G3.5ncore-PETIM in water
105479
    1aaa     N1    1   4.266   3.668   8.674  0.1689  0.7531  0.4669
    1aaa     C1    2   4.217   3.753   8.785  0.4647  0.1588 -0.0956
    1aaa     H1    3   4.174   3.691   8.864 -0.2619  0.2268 -0.4295
    1aaa     H2    4   4.302   3.810   8.823  1.6548  0.0253 -2.4251
    1aaa     C2    5   4.187   3.555   8.624  0.9929  0.0018  0.0413
    1aaa     H3    6   4.092   3.579   8.575 -0.9607 -0.4491  3.4341
    1aaa     H4    7   4.250   3.505   8.550  0.4750  0.7739 -0.9209
    1aaa     C3    8   4.362   3.726   8.579 -0.0110  0.7654 -0.5224
    1aaa     H5    9   4.384   3.647   8.506 -0.2107 -1.0025  1.2909
    1aaa     H6   10   4.327   3.803   8.509 -1.3569  1.0392  0.4347
    1aaa     C4   11   4.494   3.757   8.651  0.9961  0.2819  0.6134
    1aaa     H7   12   4.472   3.849   8.705 -0.5998  1.0287 -1.2482
    1aaa     H8   13   4.511   3.685   8.732  1.8877  1.7834  1.7841
    1aaa     C5   14   4.106   3.856   8.750 -0.4530  0.5622  0.2817
    1aaa     H9   15   4.155   3.931   8.687 -1.1688 -0.6634 -1.7810
    1aaa    H10   16   4.030   3.808   8.687  2.0527 -3.0485 -0.1789
    1aaa     C6   17   4.149   3.451   8.734 -0.6590 -0.4475 -0.7579
    1aaa    H11   18   4.092   3.494   8.817 -0.6757  1.4633 -1.7515
    1aaa    H12   19   4.081   3.372   8.701 -0.3996 -1.2019  0.4585
    1aaa     C7   20   4.278   3.383   8.801  0.3555  0.2866 -0.9066
    1aaa    H13   21   4.349   3.461   8.831 -1.8572  1.1601  2.3827
    1aaa    H14   22   4.244   3.346   8.898  1.6790 -0.4627 -0.7307
    1aaa     C8   23   4.613   3.773   8.559 -1.0888 -0.2713  0.0557
    1aaa    H15   24   4.636   3.679   8.508  1.2931  0.9472 -1.1809
    1aaa    H16   25   4.580   3.846   8.485 -0.1853 -0.1130 -0.2013
    1aaa     C9   26   4.043   3.916   8.878  0.7242 -0.2481  0.0630
    1aaa    H17   27   3.933   3.914   8.869  0.6077 -0.7761  1.4597
    1aaa    H18   28   4.068   3.866   8.972 -1.2150 -2.1972 -0.4093
    2bbb     N1   29   4.661   2.973   8.863  0.5015 -0.3568 -0.2335
    2bbb     C1   30   4.785   2.962   8.948  0.2070 -0.1097  0.2573
    2bbb     H1   31   4.825   3.064   8.952  1.2116 -0.4994  0.1834
    2bbb     H2   32   4.848   2.893   8.890 -1.4835 -1.0669 -0.4911
    2bbb     C2   33   4.568   2.859   8.857  0.3006  0.2052  0.0707
    2bbb     H3   34   4.473   2.881   8.807  0.7030  0.8522 -0.4188
    2bbb     H4   35   4.541   2.833   8.960 -0.4438  1.6124  0.2411
    2bbb     C3   36   4.655   3.073   8.754 -0.2553  0.3574 -0.4374
    2bbb     H5   37   4.714   3.042   8.667 -0.5142  1.4653 -1.0232
    2bbb     H6   38   4.700   3.167   8.788 -1.7998  1.3773 -1.1136
    2bbb     C4   39   4.514   3.112   8.702  0.8501 -0.0754  0.1105
    2bbb     H7   40   4.465   3.021   8.666  1.0046 -0.7664  1.6288
    2bbb     H8   41   4.527   3.163   8.606 -0.5336  0.6648  0.3124
    2bbb     C5   42   4.757   2.918   9.093 -0.5306 -0.9629 -0.1725
    2bbb     H9   43   4.851   2.916   9.150 -2.0581 -2.9093  2.4006
    2bbb    H10   44   4.726   2.813   9.102 -0.2819 -0.9888  0.3713
    2bbb     C6   45   4.614   2.728   8.793  0.0036  0.6833  0.6437
    2bbb    H11   46   4.704   2.695   8.846 -0.8905 -0.2888  1.5914
    2bbb    H12   47   4.644   2.746   8.689  2.9343 -0.8356  1.1712
    2bbb     C7   48   4.435   3.201   8.797  0.1342  0.2517  0.4599
    2bbb    H13   49   4.504   3.267   8.850 -0.4348  0.0216  1.5007
    2bbb    H14   50   4.381   3.135   8.866  2.0183 -2.7782 -0.8063
    2bbb     C8   51   4.515   2.614   8.805  0.4063 -0.4954 -0.0837
    2bbb    H15   52   4.481   2.599   8.908  1.0466 -0.8837  0.0715
    2bbb    H16   53   4.551   2.521   8.760  2.6513  0.1390  0.3611
    2bbb     C9   54   4.676   3.017   9.179 -0.2770 -0.1766 -0.0909
    2bbb    H17   55   4.625   2.952   9.252  0.0510  0.1504  0.4364
    2bbb    H18   56   4.598   3.060   9.114  0.2533 -0.0333 -0.6323
    2bbb     O1   57   4.351   3.287   8.723  0.0807 -0.5644 -0.1290
    3bbb     N1   58   5.092   3.799   8.607  0.0463 -0.5465 -0.2883
    3bbb     C1   59   5.149   3.677   8.664  0.9034 -0.6251 -0.6297
    3bbb     H1   60   5.206   3.624   8.587 -1.1529  1.6989 -3.8869
    3bbb     H2   61   5.069   3.613   8.703 -0.4744  0.2870 -1.9031
    3bbb     C2   62   5.182   3.873   8.512 -0.3293 -0.0845  0.4951
    3bbb     H3   63   5.277   3.897   8.562  0.7017  0.9915 -1.9041
    3bbb     H4   64   5.130   3.962   8.475  2.2512  0.8207 -1.1225
    3bbb     C3   65   5.016   3.896   8.696 -0.2714  0.5186  0.1967
    3bbb     H5   66   4.964   3.964   8.627  1.4927  0.2224 -1.4418
    3bbb     H6   67   5.086   3.958   8.753 -0.0747  0.8060 -0.3591
    3bbb     C4   68   4.904   3.842   8.790  0.0998 -0.1747  0.4298
    3bbb     H7   69   4.842   3.923   8.831 -1.9264 -1.4639  0.0264
    3bbb     H8   70   4.952   3.790   8.874  1.1462  0.2264  0.0727
    3bbb     C5   71   5.248   3.700   8.778 -0.2120 -0.1391 -0.1725
    3bbb     H9   72   5.212   3.760   8.861 -0.1857 -1.4328  0.7905
    3bbb    H10   73   5.330   3.753   8.728  1.1706 -0.1187  2.0439
    3bbb     C6   74   5.216   3.795   8.379 -0.7033  0.5832 -0.2228
    3bbb    H11   75   5.122   3.766   8.331 -0.7985  1.3400 -0.5106
    3bbb    H12   76   5.280   3.710   8.405  0.0689  1.1564 -0.2013
    3bbb     C7   77   4.797   3.750   8.723 -0.1411  0.0460  0.5724
    3bbb    H13   78   4.732   3.699   8.794 -1.1513 -1.4455 -1.3775
    3bbb    H14   79   4.847   3.662   8.680 -3.1850 -1.5909  0.3012
    3bbb     C8   80   5.289   3.884   8.280 -0.6097 -0.1946 -0.0922
    3bbb    H15   81   5.237   3.976   8.251 -1.6359 -0.5761  0.5199
    3bbb    H16   82   5.294   3.828   8.186  0.1911  1.1544 -0.8744
    3bbb     C9   83   5.297   3.564   8.842 -0.1537  0.0719 -0.0776
    3bbb    H17   84   5.213   3.496   8.861 -0.4165  0.1940 -0.8088
    3bbb    H18   85   5.351   3.586   8.935  1.4716 -0.4129 -0.8845
    3bbb     O1   86   4.724   3.834   8.622 -0.3035  0.2217  0.2532
    4bbb     N1   87   3.991   4.511   9.017 -0.3002  0.3973  0.2161
    4bbb     C1   88   4.027   4.573   8.886  0.1421  0.1226  0.0524
    4bbb     H1   89   3.941   4.623   8.839 -0.2120  1.2939  1.9134
    4bbb     H2   90   4.082   4.506   8.819 -2.1455 -0.4872 -1.2480
    4bbb     C2   91   3.899   4.598   9.104  0.2602  0.2856  0.2182
    4bbb     H3   92   3.800   4.586   9.058  0.6602 -1.4491 -0.2164
    4bbb     H4   93   3.930   4.703   9.107  0.4802  0.2089  0.7437
    4bbb     C3   94   3.950   4.372   9.012  0.3514  0.6585 -0.4018
    4bbb     H5   95   3.857   4.360   8.955 -0.9246 -0.4697  1.8622
    4bbb     H6   96   3.923   4.344   9.115 -0.1865 -2.1161 -1.2608
    4bbb     C4   97   4.060   4.274   8.954  0.2075  0.5599  0.3542
    4bbb     H7   98   4.150   4.288   9.016 -0.4958 -0.8591  1.7277
    4bbb     H8   99   4.066   4.302   8.848 -1.5092 -0.6648 -0.0790
    4bbb     C5  100   4.125   4.694   8.896  0.0430  0.2920 -0.9004
    4bbb     H9  101   4.069   4.766   8.957 -1.5422  0.6579 -2.7211
    4bbb    H10  102   4.141   4.738   8.797  2.0224 -0.9682 -1.1650
    4bbb     C6  103   3.876   4.558   9.251  0.2444  0.1031  0.2126
    4bbb    H11  104   3.837   4.456   9.259 -0.6302  0.3049 -1.3116
    4bbb    H12  105   3.799   4.623   9.294 -3.1490 -3.3476 -0.3914
    4bbb     C7  106   4.019   4.127   8.970 -0.1041 -0.3878 -0.1078
    4bbb    H13  107   3.914   4.126   8.939 -0.6821  2.3362  1.6495
    4bbb    H14  108   4.022   4.101   9.077 -0.7930  0.6314  0.1675
    4bbb     C8  109   4.014   4.562   9.325 -0.0665  0.6667 -0.1745
    4bbb    H15  110   4.060   4.661   9.314 -2.6858  2.1037  1.2489
    4bbb    H16  111   4.070   4.485   9.271  1.0797  1.1054  0.3759
    4bbb     C9  112   4.264   4.669   8.958 -0.1095  0.0669  0.1843
    4bbb    H17  113   4.260   4.565   8.995 -2.0615  0.1346  0.1988
    4bbb    H18  114   4.281   4.732   9.046 -0.6340  2.6810 -1.5215
    4bbb     O1  115   4.098   4.051   8.886  0.3305  0.1382 -0.0010
    5bbb     N1  116   4.032   2.777   8.546 -0.4826  0.3292  0.6431
    5bbb     C1  117   4.062   2.911   8.592  0.1869 -0.3921  0.5203
    5bbb     H1  118   4.040   2.915   8.699 -2.6892 -1.5040  0.0144
    5bbb     H2  119   3.980   2.964   8.543  2.0234 -1.1504 -3.5422
    5bbb     C2  120   3.893   2.722   8.571  0.4258 -0.4916 -0.5045
    5bbb     H3  121   3.817   2.796   8.544 -0.5288 -0.6226  1.7471
    5bbb     H4  122   3.891   2.729   8.681  0.1548  0.8654 -0.5907
    5bbb     C3  123   4.136   2.679   8.570 -0.0473  0.1263 -0.4045
    5bbb     H5  124   4.234   2.717   8.536 -0.2134  2.2530  1.3558
    5bbb     H6  125   4.123   2.589   8.509  2.1763 -0.5263  0.0246
    5bbb     C4  126   4.144   2.639   8.722  0.5648  0.6928 -0.0359
    5bbb     H7  127   4.057   2.579   8.749  0.9768  0.7449  1.4008
    5bbb     H8  128   4.147   2.720   8.796 -2.8989  0.5958  0.2867
    5bbb     C5  129   4.201   2.963   8.565 -0.9618 -0.2683  0.5076
    5bbb     H9  130   4.272   2.906   8.626  0.3834  2.8040  1.9466
    5bbb    H10  131   4.216   3.068   8.595 -0.5283 -0.2414  0.2044
    5bbb     C6  132   3.855   2.585   8.517  0.1251  0.5076  0.0383
    5bbb    H11  133   3.919   2.516   8.573  1.3830  0.9552 -0.8368
    5bbb    H12  134   3.868   2.569   8.409 -0.5925 -0.3623  0.0651
    5bbb     C7  135   4.279   2.561   8.751  0.5949 -0.2516  0.3887
    5bbb    H13  136   4.288   2.475   8.683  4.5186 -0.1063  0.6080
    5bbb    H14  137   4.269   2.525   8.854 -0.9389 -2.1456 -0.3779
    5bbb     C8  138   3.713   2.540   8.546  0.0951 -0.1486  0.1514
    5bbb    H15  139   3.708   2.439   8.503  0.8188  0.2789 -0.9474
    5bbb    H16  140   3.638   2.597   8.491  0.1177 -0.9569 -0.7196
    5bbb     C9  141   4.235   2.958   8.414 -0.0179  0.2906  0.1599
    5bbb    H17  142   4.249   2.855   8.380 -1.1548 -0.0422  0.6693
    5bbb    H18  143   4.328   3.013   8.399  1.1427 -1.4114  0.9853
    5bbb     O1  144   4.392   2.652   8.736 -0.0130  0.8445  0.4561
    6bbb     N1  145   4.618   3.429   9.570  0.0820 -0.3763  0.1937
    6bbb     C1  146   4.571   3.429   9.708  0.4009  0.3315 -0.2099
    6bbb     H1  147   4.491   3.504   9.721 -1.0811 -1.1981 -0.2815
    6bbb     H2  148   4.647   3.458   9.782  0.5381 -1.4675  0.3799
    6bbb     C2  149   4.619   3.555   9.500  0.0147  0.0199  0.3672
    6bbb     H3  150   4.517   3.596   9.500 -0.1919 -0.4802 -1.1899
    6bbb     H4  151   4.635   3.537   9.393  0.3437  0.9909  0.2493
    6bbb     C3  152   4.748   3.360   9.557 -0.1109  0.5801 -0.0635
    6bbb     H5  153   4.744   3.270   9.620 -2.8169 -0.7656 -2.0918
    6bbb     H6  154   4.830   3.419   9.600  0.9824 -0.2870 -0.9092
    6bbb     C4  155   4.795   3.303   9.418  0.5630 -0.1859 -0.1675
    6bbb     H7  156   4.891   3.253   9.431  0.3994  0.0279  2.1255
    6bbb     H8  157   4.789   3.384   9.345 -1.8225  1.0212  1.2797
    6bbb     C5  158   4.504   3.296   9.750 -0.4525 -0.2152  0.0957
    6bbb     H9  159   4.499   3.292   9.860 -0.0467 -1.7267  0.0744
    6bbb    H10  160   4.573   3.213   9.733 -2.2246 -1.9028  0.9116
    6bbb     C6  161   4.715   3.660   9.558  0.4380  0.2501  0.3322
    6bbb    H11  162   4.816   3.620   9.552  0.3685 -0.2280  1.9734
    6bbb    H12  163   4.689   3.684   9.662  1.2345  0.1931  0.5469
    6bbb     C7  164   4.702   3.193   9.365  0.3486  0.0254 -0.5149
    6bbb    H13  165   4.609   3.243   9.334  0.6351  0.6076 -0.4374
    6bbb    H14  166   4.675   3.124   9.446 -0.4746  1.0952  0.1529
    6bbb     C8  167   4.695   3.793   9.476 -0.5976  0.7386  0.6003
    6bbb    H15  168   4.590   3.821   9.490 -0.6972 -0.3357  2.0572
    6bbb    H16  169   4.703   3.771   9.369 -0.7094  1.4808  0.4370
    6bbb     C9  170   4.369   3.271   9.684  0.3596  0.4686 -0.1441
    6bbb    H17  171   4.390   3.258   9.577 -1.0068  0.1708 -0.3879
    6bbb    H18  172   4.319   3.367   9.701 -2.0246 -1.0633  1.8074
    6bbb     O1  173   4.760   3.120   9.247 -0.6666 -0.7336 -0.1902
    7bbb     N1  174   5.722   3.907   8.615  1.2764  0.0375 -0.2484
    7bbb     C1  175   5.859   3.853   8.602 -0.0481 -0.1636  0.4642
    7bbb     H1  176   5.921   3.901   8.679  0.7798  0.9312 -0.8424
    7bbb     H2  177   5.896   3.894   8.506 -2.1599  0.7513  0.0234
    7bbb     C2  178   5.711   4.057   8.612 -0.0194 -0.6080 -0.0934
    7bbb     H3  179   5.721   4.080   8.505 -0.0751 -0.8345 -0.1487
    7bbb     H4  180   5.784   4.105   8.678 -0.6376 -0.3452  0.4114
    7bbb     C3  181   5.622   3.826   8.531 -0.1063  0.2529 -0.4274
    7bbb     H5  182   5.519   3.861   8.546 -0.5003  0.2153 -2.8437
    7bbb     H6  183   5.623   3.722   8.563  0.5630  0.1741 -0.7013
    7bbb     C4  184   5.644   3.841   8.378 -0.0631  0.4430  0.5629
    7bbb     H7  185   5.724   3.771   8.353 -0.9049  0.1001 -1.3467
    7bbb     H8  186   5.676   3.945   8.364  1.0412 -0.1483 -1.6194
    7bbb     C5  187   5.890   3.703   8.619 -0.4035 -0.7956  0.4373
    7bbb     H9  188   5.852   3.651   8.530  0.3186  0.9294 -0.8965
    7bbb    H10  189   5.824   3.658   8.695 -1.0947 -1.8989 -0.8042
    7bbb     C6  190   5.570   4.117   8.644 -0.4698 -0.2274  0.5991
    7bbb    H11  191   5.495   4.095   8.566 -0.3924  1.0473  0.1530
    7bbb    H12  192   5.584   4.226   8.647 -2.5725  0.0659  0.7602
    7bbb     C7  193   5.517   3.818   8.290  0.3498 -0.1059 -0.4468
    7bbb    H13  194   5.475   3.717   8.297 -0.0729  0.0246 -1.0576
    7bbb    H14  195   5.547   3.841   8.186  3.2519  0.1022  0.3977
    7bbb     C8  196   5.515   4.074   8.782  0.4032 -0.5015  0.2788
    7bbb    H15  197   5.604   4.077   8.847  1.2810 -1.6394 -0.8364
    7bbb    H16  198   5.482   3.969   8.788  1.0276 -0.7193 -0.1088
    7bbb     C9  199   6.039   3.690   8.647 -0.1577  0.0906 -0.3754
    7bbb    H17  200   6.064   3.592   8.691  0.9134  0.7935  0.6274
    7bbb    H18  201   6.067   3.765   8.723  1.1714 -0.6730 -0.0878
    7bbb     O1  202   5.415   3.905   8.336  0.1847  0.1375  0.4651
    8bbb     N1  203   5.637   3.392   8.463 -0.3276  0.3391 -0.2420
    8bbb     C1  204   5.703   3.253   8.434 -0.5248 -0.3818 -0.0603
    8bbb     H1  205   5.722   3.255   8.326 -0.5946  1.4450 -0.0692
    8bbb     H2  206   5.638   3.168   8.458  0.6557 -1.3447 -0.2317
    8bbb     C2  207   5.514   3.418   8.390 -0.0340  0.3000  0.0254
    8bbb     H3  208   5.478   3.513   8.430 -3.0688 -1.5728  2.0180
    8bbb     H4  209   5.434   3.345   8.412 -1.2993  1.2878 -1.2529
    8bbb     C3  210   5.634   3.428   8.609  0.1312 -0.5715 -0.4041
    8bbb     H5  211   5.609   3.534   8.622  0.2404 -0.5016 -0.7474
    8bbb     H6  212   5.732   3.411   8.655 -1.3576 -2.4685  2.2200
    8bbb     C4  213   5.540   3.336   8.688  0.7115 -0.1918  0.2832
    8bbb     H7  214   5.596   3.247   8.719  2.1144  0.7702  0.5750
    8bbb     H8  215   5.457   3.294   8.629 -0.1067  3.7298 -1.5039
    8bbb     C5  216   5.844   3.233   8.506  0.0444 -0.8086 -0.7545
    8bbb     H9  217   5.884   3.141   8.461  0.6200 -1.4846  1.1086
    8bbb    H10  218   5.828   3.211   8.612  1.9220 -1.2347 -0.5377
    8bbb     C6  219   5.535   3.416   8.237  0.8485  1.1327  0.6817
    8bbb    H11  220   5.564   3.314   8.207 -0.6093  0.2497  2.1890
    8bbb    H12  221   5.614   3.486   8.207  2.4256 -1.0491 -0.4447
    8bbb     C7  222   5.472   3.410   8.805  0.1654 -0.1856  0.3420
    8bbb    H13  223   5.556   3.447   8.865 -0.2876 -1.0569  1.5473
    8bbb    H14  224   5.415   3.339   8.866 -1.3209  1.3975  0.8386
    8bbb     C8  225   5.412   3.453   8.151  0.6371  0.8929  0.7242
    8bbb    H15  226   5.457   3.503   8.064  1.3514  1.2480  1.2918
    8bbb    H16  227   5.332   3.512   8.198  0.1448  1.5549 -0.9065
    8bbb     C9  228   5.942   3.350   8.484 -0.6754 -0.7556 -0.4024
    8bbb    H17  229   6.037   3.339   8.538 -0.0328 -2.0356 -1.7888
    8bbb    H18  230   5.893   3.442   8.521 -0.6347 -0.8539 -0.1034
    8bbb     O1  231   5.386   3.508   8.751  0.4442 -0.5237 -0.4638
    9bbb     N1  232   4.337   4.434   9.751 -0.0027  0.9307  1.2726
    9bbb     C1  233   4.344   4.284   9.762 -0.9333  0.0989 -0.4698
    9bbb     H1  234   4.265   4.238   9.701 -1.6530 -2.9997  2.6377
    9bbb     H2  235   4.323   4.266   9.868 -2.3772 -0.0322 -0.7627
    9bbb     C2  236   4.438   4.500   9.836 -0.1204 -0.4556 -0.1381
    9bbb     H3  237   4.421   4.606   9.812 -0.5141 -0.1643  1.3949
    9bbb     H4  238   4.541   4.473   9.812  0.3287  0.4796  0.6764
    9bbb     C3  239   4.198   4.484   9.782 -0.6381 -0.3834  0.1754
    9bbb     H5  240   4.198   4.593   9.793  4.2190 -0.0221 -1.9908
    9bbb     H6  241   4.163   4.439   9.876 -0.0965 -2.8491 -0.7418
    9bbb     C4  242   4.095   4.450   9.673  0.3918 -0.9038  0.0769
    9bbb     H7  243   3.996   4.470   9.716  0.4706 -0.7049  0.1671
    9bbb     H8  244   4.095   4.343   9.648 -0.5164 -1.2917  1.6566
    9bbb     C5  245   4.476   4.226   9.724  0.7206 -0.3999  0.1732
    9bbb     H9  246   4.552   4.278   9.783 -0.9632  1.8780  0.4376
    9bbb    H10  247   4.494   4.266   9.623 -0.7584  0.2131  0.1357
    9bbb     C6  248   4.433   4.474   9.996  1.0139 -0.3051 -0.9053
    9bbb    H11  249   4.458   4.369  10.012  2.4447  0.2629  0.7289
    9bbb    H12  250   4.328   4.480  10.030  0.5873 -2.1166 -1.8144
    9bbb     C7  251   4.121   4.533   9.541 -0.6181  0.7923 -0.6196
    9bbb    H13  252   4.206   4.490   9.486  0.7850  0.1231  1.9808
    9bbb    H14  253   4.142   4.641   9.550 -1.0040  0.8233 -0.0439
    9bbb     C8  254   4.521   4.570  10.080 -0.0359 -0.1780  0.4590
    9bbb    H15  255   4.501   4.564  10.188  1.5818  0.3465  0.7958
    9bbb    H16  256   4.501   4.674  10.052 -0.3123  0.1698  1.8991
    9bbb     C9  257   4.489   4.072   9.743  0.4985 -0.5324  0.5217
    9bbb    H17  258   4.462   4.058   9.849  0.8483 -0.4519  0.6203
    9bbb    H18  259   4.593   4.040   9.730  0.2326 -0.6987 -1.2712
    9bbb     O1  260   4.002   4.523   9.463  0.2327 -0.5106  0.7443
   10bbb     N1  261   4.403   4.432   8.504 -0.6325  0.5218  0.3579
   10bbb     C1  262   4.301   4.319   8.522 -0.7381 -0.7561  0.2381
   10bbb     H1  263   4.247   4.323   8.617 -0.8520 -0.7366  0.1707
   10bbb     H2  264   4.366   4.231   8.526  0.2488  0.0473  3.9082
   10bbb     C2  265   4.464   4.450   8.373 -0.1979  0.0479  0.9505
   10bbb     H3  266   4.387   4.432   8.297  1.6012 -0.7962 -0.7401
   10bbb     H4  267   4.531   4.362   8.367 -3.1309 -2.2440  0.7583
   10bbb     C3  268   4.504   4.432   8.613  0.4572  0.7412 -0.5854
   10bbb     H5  269   4.596   4.487   8.587  0.9279  0.9419  1.4008
   10bbb     H6  270   4.533   4.329   8.636  0.2114  0.8134  0.0437
   10bbb     C4  271   4.454   4.486   8.750  0.0796  0.1539 -1.0813
   10bbb     H7  272   4.530   4.478   8.829  0.5408  0.6675 -1.4656
   10bbb     H8  273   4.368   4.420   8.766 -1.3810  1.8836 -1.6852
   10bbb     C5  274   4.196   4.305   8.408 -1.0344  0.2029  0.5354
   10bbb     H9  275   4.249   4.301   8.312 -0.4469 -1.3997  0.9114
   10bbb    H10  276   4.142   4.401   8.411  0.7921  1.2238  1.6235
   10bbb     C6  277   4.522   4.588   8.351 -0.4972 -0.2456  0.5476
   10bbb    H11  278   4.610   4.606   8.414 -0.1007  0.0059 -0.0747
   10bbb    H12  279   4.442   4.656   8.384 -1.1395  0.6114 -2.5597
   10bbb     C7  280   4.386   4.622   8.743 -0.2696  0.9265 -0.5267
   10bbb    H13  281   4.291   4.613   8.688  0.7863  2.3582 -2.6751
   10bbb    H14  282   4.458   4.682   8.685 -0.9709  0.5007 -1.8658
   10bbb     C8  283   4.562   4.643   8.206 -0.4341  0.2099 -0.0397
   10bbb    H15  284   4.637   4.724   8.213 -1.6927  1.5400 -1.7146
   10bbb    H16  285   4.479   4.681   8.147 -0.9978  0.0370  0.6351
   10bbb     C9  286   4.093   4.192   8.439 -0.0027  0.0698 -0.3725
   10bbb    H17  287   4.122   4.134   8.527 -0.3890  1.1700  0.4823
   10bbb    H18  288   4.096   4.122   8.354  0.7648 -2.6554  1.8418
   10bbb     O1  289   4.374   4.690   8.861  0.1239  0.0914  0.1024
   11bbb     N1  290   3.661   2.380   9.000 -0.1841  0.3341 -0.0118
   11bbb     C1  291   3.766   2.366   9.109  0.1067  0.2996  0.0334
   11bbb     H1  292   3.758   2.273   9.167 -1.0137 -0.1432 -0.8048
   11bbb     H2  293   3.749   2.452   9.175 -1.1863 -0.8823  1.2849
   11bbb     C2  294   3.536   2.336   9.050 -0.9910  0.1667 -0.2691
   11bbb     H3  295   3.551   2.237   9.095  0.1283  0.2853 -0.3752
   11bbb     H4  296   3.465   2.321   8.968 -2.2366 -0.1631  0.8595
   11bbb     C3  297   3.694   2.309   8.873 -0.1641 -0.5240  0.0205
   11bbb     H5  298   3.695   2.201   8.895 -1.5833 -0.8250 -1.2861
   11bbb     H6  299   3.795   2.331   8.836 -0.6856 -1.3811 -1.9765
   11bbb     C4  300   3.604   2.333   8.748 -0.5613 -0.5263 -0.7274
   11bbb     H7  301   3.510   2.283   8.775 -0.4600 -0.0890  0.4352
   11bbb     H8  302   3.645   2.287   8.657  0.7113 -0.2635 -0.3024
   11bbb     C5  303   3.910   2.381   9.056  0.6442  0.2175 -0.1937
   11bbb     H9  304   3.924   2.473   8.997 -1.1200  1.3535  1.1228
   11bbb    H10  305   3.943   2.292   9.000 -1.4993 -0.2797 -0.6901
   11bbb     C6  306   3.468   2.427   9.148  0.2974 -0.1819 -0.4742
   11bbb    H11  307   3.457   2.529   9.108 -1.4284 -0.4698 -0.7613
   11bbb    H12  308   3.537   2.428   9.234  0.1425 -0.0712 -0.3504
   11bbb     C7  309   3.569   2.482   8.728  0.1623 -0.7844 -0.1192
   11bbb    H13  310   3.532   2.529   8.820 -2.8064 -1.9399 -0.6700
   11bbb    H14  311   3.498   2.507   8.648  1.0127 -1.1531 -1.0052
   11bbb     C8  312   3.337   2.369   9.200  0.1812 -0.5443 -0.4036
   11bbb    H15  313   3.309   2.417   9.294 -0.7632  0.4691 -1.1839
   11bbb    H16  314   3.354   2.264   9.229  0.4855 -0.0627  1.2176
   11bbb     C9  315   4.002   2.395   9.174 -0.0715  0.2544  0.1812
   11bbb    H17  316   4.107   2.404   9.145  0.6375 -1.1069  2.1630
   11bbb    H18  317   3.999   2.309   9.243 -0.6588 -0.3499 -0.5741
   11bbb     O1  318   3.685   2.550   8.688  0.0310 -0.1056  0.4370
   12bbb     N1  319   3.856   2.939   8.102 -0.3432  0.8590 -0.5422
   12bbb     C1  320   3.790   2.839   8.015 -0.3937 -0.6915  0.2628
   12bbb     H1  321   3.739   2.761   8.073 -0.9512 -0.8903 -0.4923
   12bbb     H2  322   3.869   2.778   7.969 -0.9944 -0.5121 -1.0371
   12bbb     C2  323   3.780   2.995   8.208 -0.8204  1.2303 -0.1365
   12bbb     H3  324   3.725   3.077   8.160  1.4516  2.1892 -1.1666
   12bbb     H4  325   3.851   3.037   8.281  1.5498  1.2835 -2.4268
   12bbb     C3  326   3.940   3.048   8.039  0.7419  0.4745  0.5481
   12bbb     H5  327   3.883   3.129   7.991  0.2623 -0.2060 -0.0283
   12bbb     H6  328   3.998   2.997   7.961  0.1104 -0.4782  0.7046
   12bbb     C4  329   4.046   3.119   8.133 -0.0333  0.1130 -0.3748
   12bbb     H7  330   4.003   3.177   8.216 -0.8491 -2.3145  0.9728
   12bbb     H8  331   4.096   3.178   8.055 -0.3416  1.3419  0.3383
   12bbb     C5  332   3.689   2.893   7.914 -0.2786  0.0627  0.3065
   12bbb     H9  333   3.753   2.925   7.831 -1.5858  0.5687 -0.5132
   12bbb    H10  334   3.623   2.963   7.967  0.0124  2.2554 -2.1595
   12bbb     C6  335   3.682   2.910   8.296  0.1429 -0.3885 -0.3642
   12bbb    H11  336   3.742   2.833   8.348 -2.0939  0.3683  3.5262
   12bbb    H12  337   3.615   2.859   8.225  0.7636 -1.1613 -0.4096
   12bbb     C7  338   4.150   3.019   8.194  0.4204 -0.0773 -0.6412
   12bbb    H13  339   4.255   3.050   8.185  0.8393 -1.8565 -2.1957
   12bbb    H14  340   4.136   2.923   8.144 -1.4960  0.2244 -0.7167
   12bbb     C8  341   3.601   2.997   8.398  0.3144 -0.1667  0.2562
   12bbb    H15  342   3.535   3.065   8.342  0.1217 -0.6513 -0.1186
   12bbb    H16  343   3.668   3.061   8.455  0.7447 -0.2225 -0.1772
   12bbb     C9  344   3.594   2.775   7.870  0.6193 -0.0900  0.2032
   12bbb    H17  345   3.644   2.678   7.866  0.7476 -0.0523  0.8194
   12bbb    H18  346   3.549   2.799   7.773 -2.1975 -1.1593  1.1964
   12bbb     O1  347   4.130   3.014   8.339  0.4559  0.2026  0.5353
   13bbb     N1  348   5.046   4.269   9.536  0.8449 -0.8335 -0.3044
   13bbb     C1  349   4.991   4.382   9.450 -0.4525  0.2520  0.5765
   13bbb     H1  350   4.891   4.413   9.481 -0.1588  0.4991  1.2803
   13bbb     H2  351   4.994   4.354   9.344 -1.7583 -2.2638  1.1650
   13bbb     C2  352   5.066   4.306   9.683  0.6502 -0.3461  0.2337
   13bbb     H3  353   4.976   4.354   9.723  0.1404 -0.5126 -0.6928
   13bbb     H4  354   5.143   4.384   9.676  0.6630 -0.3979 -0.2073
   13bbb     C3  355   4.973   4.145   9.497 -0.1792 -0.3559  0.4921
   13bbb     H5  356   5.033   4.059   9.529  0.1167 -1.0331 -1.7780
   13bbb     H6  357   4.972   4.128   9.389  0.1010 -0.9107  0.5748
   13bbb     C4  358   4.828   4.127   9.553 -0.0320 -0.3256 -0.4513
   13bbb     H7  359   4.775   4.222   9.535  0.4374 -0.2258 -1.3620
   13bbb     H8  360   4.823   4.110   9.661 -0.7594  4.0895  0.2950
   13bbb     C5  361   5.075   4.507   9.453 -0.8460 -0.2011 -0.4634
   13bbb     H9  362   5.178   4.471   9.438 -1.2368 -1.6952  0.3973
   13bbb    H10  363   5.073   4.558   9.550 -1.0059  0.1057 -0.6262
   13bbb     C6  364   5.113   4.192   9.779 -0.7070 -0.4314 -0.5329
   13bbb    H11  365   5.173   4.131   9.710 -0.9559 -0.1067 -1.0463
   13bbb    H12  366   5.033   4.133   9.825 -0.8681  0.0308 -0.2135
   13bbb     C7  367   4.740   4.027   9.480 -0.1845  0.4294 -0.1668
   13bbb    H13  368   4.734   4.039   9.371  1.5896 -2.1376 -0.5914
   13bbb    H14  369   4.638   4.037   9.519 -1.7917 -0.0436 -3.9528
   13bbb     C8  370   5.201   4.237   9.901  0.3229 -0.1251  0.3974
   13bbb    H15  371   5.304   4.258   9.867  0.7116 -1.7921  0.4619
   13bbb    H16  372   5.214   4.154   9.972 -0.1008 -0.9315 -0.4562
   13bbb     C9  373   5.054   4.611   9.338  0.0087 -0.1295 -0.5315
   13bbb    H17  374   4.947   4.612   9.316  0.2159 -2.3779 -1.7828
   13bbb    H18  375   5.110   4.580   9.249  2.5155  1.7770  0.3170
   13bbb     O1  376   4.785   3.897   9.519  0.0607 -0.2006 -0.5220
   14bbb     N1  377   3.850   3.258   9.900  0.4345 -0.2653  0.0194
   14bbb     C1  378   3.825   3.373   9.806  0.0839  0.4095 -0.1643
   14bbb     H1  379   3.826   3.344   9.700 -1.6227  1.4754 -0.4938
   14bbb     H2  380   3.906   3.444   9.822  0.3263  0.4886 -1.6139
   14bbb     C2  381   3.881   3.298  10.039  0.2277 -0.0094 -0.5652
   14bbb     H3  382   3.809   3.370  10.080 -1.8149 -0.3231 -3.4222
   14bbb     H4  383   3.978   3.349  10.037  1.1510 -1.8008 -2.3802
   14bbb     C3  384   3.944   3.166   9.837 -0.2356  0.4022 -0.0804
   14bbb     H5  385   3.908   3.128   9.740 -0.6995 -0.4776  0.4307
   14bbb     H6  386   3.948   3.063   9.874 -0.7222 -0.4895 -2.3950
   14bbb     C4  387   4.083   3.222   9.809  0.0861 -0.5016  0.0704
   14bbb     H7  388   4.138   3.229   9.904  0.5855  2.3038 -0.3744
   14bbb     H8  389   4.069   3.326   9.775  0.6286 -0.1786  0.8098
   14bbb     C5  390   3.691   3.440   9.835  0.2442 -0.0040 -0.3931
   14bbb     H9  391   3.675   3.532   9.777 -1.0302  1.5276  2.2718
   14bbb    H10  392   3.688   3.486   9.935  0.1515  0.8087 -0.7716
   14bbb     C6  393   3.900   3.190  10.149  0.0435 -0.3169 -0.4132
   14bbb    H11  394   3.943   3.236  10.239 -1.2045 -0.7924  0.4444
   14bbb    H12  395   3.969   3.124  10.095  0.2670  1.3664 -2.2751
   14bbb     C7  396   4.171   3.138   9.708 -0.3230 -0.0048 -0.2222
   14bbb    H13  397   4.154   3.183   9.610 -0.2869 -0.6611 -0.5289
   14bbb    H14  398   4.136   3.038   9.736  2.4903 -1.0103 -0.1569
   14bbb     C8  399   3.776   3.100  10.166 -0.7412 -0.2206  0.2300
   14bbb    H15  400   3.781   3.021  10.090  1.0776 -0.2541  0.3515
   14bbb    H16  401   3.686   3.161  10.152 -0.1576  0.7498  0.6585
   14bbb     C9  402   3.563   3.353   9.809  0.6550  1.2438  0.0056
   14bbb    H17  403   3.472   3.410   9.828  0.5121  0.8775  0.4608
   14bbb    H18  404   3.570   3.265   9.876 -0.8089 -0.7418 -2.3742
   14bbb     O1  405   4.313   3.154   9.741 -0.4228  0.1970  0.5051
   15bbb     N1  406   5.101   4.441   8.595  0.1761 -0.4473  0.0617
   15bbb     C1  407   4.951   4.456   8.578  0.5129  0.2849 -1.3154
   15bbb     H1  408   4.911   4.374   8.516  1.8182 -0.3697 -1.3094
   15bbb     H2  409   4.921   4.550   8.529  0.0613  0.0720 -1.4471
   15bbb     C2  410   5.183   4.514   8.500  0.0265  0.2927  0.1357
   15bbb     H3  411   5.288   4.484   8.493 -0.2484 -1.0790  1.6862
   15bbb     H4  412   5.182   4.618   8.535  1.1087  0.5403 -0.5303
   15bbb     C3  413   5.140   4.302   8.618 -0.4571 -0.0061  0.2280
   15bbb     H5  414   5.169   4.254   8.524  1.4153  1.5966 -0.0699
   15bbb     H6  415   5.054   4.260   8.672  0.0616 -1.3965 -0.0019
   15bbb     C4  416   5.255   4.302   8.722 -0.5455  0.3301  0.3905
   15bbb     H7  417   5.240   4.368   8.808 -0.3856  2.1159 -0.9060
   15bbb     H8  418   5.341   4.342   8.667 -0.7258 -1.5681 -1.3570
   15bbb     C5  419   4.874   4.444   8.710  0.2131  0.0283 -0.1032
   15bbb     H9  420   4.903   4.357   8.770  0.9204 -2.7670 -4.1957
   15bbb    H10  421   4.765   4.431   8.701  0.2921 -1.0006  0.3790
   15bbb     C6  422   5.126   4.497   8.357 -0.2733 -0.0556 -1.3474
   15bbb    H11  423   5.023   4.531   8.343 -1.1978 -3.2253 -2.7416
   15bbb    H12  424   5.122   4.389   8.335 -0.4273 -0.1957 -0.6403
   15bbb     C7  425   5.282   4.166   8.777 -0.2515 -0.2745  0.3787
   15bbb    H13  426   5.271   4.084   8.705  1.1923 -1.7650  1.8194
   15bbb    H14  427   5.206   4.144   8.852  1.3311 -1.6492  1.6228
   15bbb     C8  428   5.221   4.570   8.252  0.7148 -0.0715  0.2955
   15bbb    H15  429   5.325   4.540   8.267  0.2431 -1.2017  1.4684
   15bbb    H16  430   5.216   4.678   8.264 -1.2708 -0.0668 -0.2993
   15bbb     C9  431   4.897   4.578   8.788 -0.3507  0.0096 -0.0613
   15bbb    H17  432   4.893   4.663   8.719 -2.3561  1.8616  2.2533
   15bbb    H18  433   4.997   4.580   8.833 -0.0125  0.4164 -0.8252
   15bbb     O1  434   5.414   4.170   8.835  0.0920  0.1303 -0.0014
   16bbb     N1  435   6.341   3.876   8.188  0.3604  0.3774 -0.5923
   16bbb     C1  436   6.318   4.011   8.125  1.0210  0.4297 -0.2486
   16bbb     H1  437   6.215   4.013   8.087  0.4290  0.4529  1.3350
   16bbb     H2  438   6.373   4.020   8.031 -0.6939 -2.4299 -1.6099
   16bbb     C2  439   6.337   3.764   8.088  0.3861 -0.7038  0.0124
   16bbb     H3  440   6.233   3.750   8.055 -0.3070 -0.9375  2.2028
   16bbb     H4  441   6.361   3.672   8.143  1.2643 -1.3006 -1.3243
   16bbb     C3  442   6.250   3.852   8.302 -0.1941  0.3907 -0.4431
   16bbb     H5  443   6.152   3.818   8.266 -1.7954  1.7907  2.4524
   16bbb     H6  444   6.231   3.941   8.362  2.1705 -0.2060  1.2555
   16bbb     C4  445   6.314   3.749   8.397 -0.0799  0.3702  0.7520
   16bbb     H7  446   6.417   3.784   8.410 -0.1008  0.7175  0.0733
   16bbb     H8  447   6.315   3.652   8.346  3.2390  0.5686  0.3623
   16bbb     C5  448   6.345   4.125   8.215  0.5495  0.2104 -0.5926
   16bbb     H9  449   6.435   4.111   8.277 -1.1046 -1.5447  1.4893
   16bbb    H10  450   6.258   4.141   8.280  0.9250  1.1428 -0.2977
   16bbb     C6  451   6.436   3.770   7.973  0.1125  0.0636 -1.1499
   16bbb    H11  452   6.533   3.799   8.015 -1.0162 -0.7135  2.1589
   16bbb    H12  453   6.415   3.852   7.904 -0.0430  1.0308  0.0178
   16bbb     C7  454   6.247   3.749   8.532  0.1210  0.4759  0.4663
   16bbb    H13  455   6.271   3.849   8.570 -0.2242  1.0547 -0.8097
   16bbb    H14  456   6.298   3.671   8.589  0.2704  0.0582 -0.2227
   16bbb     C8  457   6.467   3.632   7.904  0.7175  0.2503  0.6891
   16bbb    H15  458   6.524   3.566   7.971 -0.8359 -0.0873  1.7052
   16bbb    H16  459   6.529   3.649   7.815 -0.4170  0.9361  0.0142
   16bbb     C9  460   6.361   4.265   8.143  0.4194 -0.5299 -0.0906
   16bbb    H17  461   6.437   4.257   8.064 -0.0772 -1.6922 -0.4672
   16bbb    H18  462   6.384   4.334   8.225 -2.2266 -0.8689  0.9780
   16bbb     O1  463   6.110   3.711   8.521  0.3267 -0.2595  0.3900
   17bbb     N1  464   5.004   3.218   8.138 -0.2828 -0.0258  0.9328
   17bbb     C1  465   5.041   3.328   8.235 -0.1032  0.0033 -0.3089
   17bbb     H1  466   4.951   3.372   8.280  0.8176  1.6040  0.0283
   17bbb     H2  467   5.098   3.405   8.181  1.4767  0.1315  1.4621
   17bbb     C2  468   4.906   3.273   8.040  0.1174  0.2563 -0.5358
   17bbb     H3  469   4.967   3.333   7.972  0.7971  1.0884  0.7806
   17bbb     H4  470   4.836   3.348   8.077  0.0134  0.8736 -1.9661
   17bbb     C3  471   5.105   3.130   8.068 -0.0946 -0.3016 -0.9388
   17bbb     H5  472   5.054   3.036   8.045  2.4361 -1.7865 -0.7290
   17bbb     H6  473   5.178   3.086   8.137 -0.0822 -1.0162 -1.3988
   17bbb     C4  474   5.189   3.202   7.952  0.4108  0.0952 -0.4654
   17bbb     H7  475   5.129   3.228   7.864  0.9038 -0.3968 -0.9509
   17bbb     H8  476   5.260   3.128   7.912  0.5387  0.1103 -0.2657
   17bbb     C5  477   5.126   3.272   8.354  0.2272  0.0668  0.9658
   17bbb     H9  478   5.145   3.353   8.426  3.1999  0.7237 -0.4435
   17bbb    H10  479   5.229   3.260   8.316  0.8295  2.1886  1.8351
   17bbb     C6  480   4.826   3.159   7.962 -0.3018  0.3952  0.1406
   17bbb    H11  481   4.769   3.111   8.043  0.5684 -0.3667  0.3059
   17bbb    H12  482   4.890   3.087   7.910 -2.1194  0.1774 -1.8520
   17bbb     C7  483   5.264   3.334   7.989 -0.9273  0.4633 -0.8148
   17bbb    H13  484   5.195   3.418   8.002  0.7838  2.0070 -1.4803
   17bbb    H14  485   5.328   3.355   7.902 -0.5987  1.7305 -0.2787
   17bbb     C8  486   4.730   3.236   7.867 -0.4731  0.4912 -0.2720
   17bbb    H15  487   4.783   3.315   7.812  2.0301 -1.7515 -1.1778
   17bbb    H16  488   4.648   3.282   7.923  0.6046  0.1049  1.6987
   17bbb     C9  489   5.071   3.159   8.439 -0.0303 -0.2023 -0.0765
   17bbb    H17  490   5.053   3.079   8.366 -3.2447 -0.2089  0.6483
   17bbb    H18  491   4.970   3.192   8.468 -0.2350  2.0149 -3.0373
   17bbb     O1  492   5.347   3.327   8.109  0.0478  0.3146  0.6454
   18bbb     N1  493   5.927   3.663   8.029 -0.1517  0.1286  0.0546
   18bbb     C1  494   5.833   3.776   8.033  0.5746 -0.1142 -0.1981
   18bbb     H1  495   5.843   3.831   8.128  2.1901  1.7021 -1.3748
   18bbb     H2  496   5.729   3.741   8.030  1.2699 -2.1793 -1.8990
   18bbb     C2  497   5.906   3.573   7.910 -0.3147 -0.0674  0.3838
   18bbb     H3  498   5.990   3.504   7.894 -0.1611 -0.1255  1.4381
   18bbb     H4  499   5.894   3.632   7.818 -1.2399  0.5675  0.9088
   18bbb     C3  500   5.932   3.587   8.160 -0.4335 -0.3569 -0.3649
   18bbb     H5  501   5.839   3.533   8.183  0.5796 -2.2954 -0.7113
   18bbb     H6  502   5.956   3.661   8.237  0.8933  1.9925 -2.9564
   18bbb     C4  503   6.045   3.486   8.152  0.0443  0.1880 -0.3162
   18bbb     H7  504   6.131   3.536   8.106 -0.1188  1.6096  0.8942
   18bbb     H8  505   6.015   3.406   8.082 -1.8493  1.2345 -0.7351
   18bbb     C5  506   5.846   3.883   7.919 -0.3244 -0.1782 -0.6503
   18bbb     H9  507   5.766   3.957   7.930 -0.2081  0.0408 -1.2231
   18bbb    H10  508   5.821   3.830   7.826 -0.1933  1.1789 -1.4782
   18bbb     C6  509   5.781   3.475   7.916 -0.2020 -0.4325 -0.0548
   18bbb    H11  510   5.696   3.537   7.946 -0.6644 -0.5518 -1.0798
   18bbb    H12  511   5.798   3.395   7.988  0.7750 -0.5534 -0.4139
   18bbb     C7  512   6.072   3.440   8.298  0.1372  0.0322  0.2661
   18bbb    H13  513   6.074   3.525   8.367  0.4414 -0.6523  1.1094
   18bbb    H14  514   6.174   3.399   8.298  0.6306  1.2280  2.4866
   18bbb     C8  515   5.751   3.413   7.782  0.2175 -0.5223  0.2016
   18bbb    H15  516   5.838   3.366   7.735 -0.2653 -0.8205 -0.4006
   18bbb    H16  517   5.722   3.490   7.709  2.6697  0.9587  0.7147
   18bbb     C9  518   5.995   3.943   7.921 -0.2235 -0.5496 -0.9007
   18bbb    H17  519   6.065   3.862   7.945  1.0237  0.6178 -0.5614
   18bbb    H18  520   5.990   4.009   8.008 -2.9335 -0.8680 -0.7681
   18bbb     O1  521   5.968   3.353   8.339  0.3778  0.4041 -0.5351
   19bbb     N1  522   4.804   4.857   9.825 -0.5547 -0.2304 -0.1432
   19bbb     C1  523   4.855   4.837   9.689  0.6318 -0.0515  0.1208
   19bbb     H1  524   4.960   4.810   9.674  0.4020  0.2411 -2.3285
   19bbb     H2  525   4.837   4.934   9.640 -2.5901 -0.4519  0.3868
   19bbb     C2  526   4.843   4.981   9.884 -0.9098  0.0731 -0.3362
   19bbb     H3  527   4.951   4.979   9.901 -1.0066 -0.3702  0.2384
   19bbb     H4  528   4.803   4.991   9.986  0.6189  1.2817  0.1556
   19bbb     C3  529   4.818   4.731   9.905 -0.2720 -0.6332 -0.4317
   19bbb     H5  530   4.921   4.696   9.901  0.3090  0.7699  1.4843
   19bbb     H6  531   4.754   4.652   9.865 -1.1617  0.0806 -0.4403
   19bbb     C4  532   4.771   4.748  10.054 -0.3560 -0.1241 -0.1273
   19bbb     H7  533   4.679   4.807  10.063  0.2708  0.9956 -0.8546
   19bbb     H8  534   4.839   4.806  10.117 -1.5747  2.5418 -1.1674
   19bbb     C5  535   4.782   4.732   9.601 -0.3303  0.3651 -0.2631
   19bbb     H9  536   4.788   4.635   9.651  3.7339 -0.3292 -1.8538
   19bbb    H10  537   4.842   4.728   9.508 -1.0567 -1.5583 -0.6798
   19bbb     C6  538   4.787   5.114   9.823  0.5662  0.5248 -0.0944
   19bbb    H11  539   4.677   5.109   9.821  0.6168 -0.8178 -3.1778
   19bbb    H12  540   4.814   5.123   9.717  1.2011 -0.1007  0.0101
   19bbb     C7  541   4.757   4.620  10.136  0.0095 -1.5280  0.6481
   19bbb    H13  542   4.710   4.631  10.235 -1.5777 -1.2707 -0.1216
   19bbb    H14  543   4.849   4.563  10.154  1.8007  1.3530  0.9627
   19bbb     C8  544   4.824   5.246   9.900  0.1366 -0.0802 -0.4333
   19bbb    H15  545   4.835   5.214  10.004  1.8888  0.5252 -0.4103
   19bbb    H16  546   4.732   5.305   9.894  0.4903  0.4940 -0.2529
   19bbb     C9  547   4.632   4.756   9.571 -0.2861  0.8570  0.4817
   19bbb    H17  548   4.629   4.855   9.523  1.3800  0.6401 -0.1037
   19bbb    H18  549   4.578   4.752   9.666 -0.4035  2.1982  0.4817
   19bbb     O1  550   4.664   4.533  10.068  0.2841 -0.2416 -0.3331
   20bbb     N1  551   4.146   3.671   9.906  0.1514  0.8854 -0.5748
   20bbb     C1  552   4.008   3.737   9.907 -0.4045  0.3497 -0.0180
   20bbb     H1  553   3.956   3.701   9.818 -0.2979  1.7888 -0.6750
   20bbb     H2  554   4.019   3.846   9.898  1.1956  0.2729  0.7726
   20bbb     C2  555   4.211   3.669  10.042  0.1991 -0.3895 -0.3699
   20bbb     H3  556   4.149   3.624  10.120 -1.2618 -3.5960 -3.2317
   20bbb     H4  557   4.236   3.765  10.088 -1.4063  1.3643 -3.0467
   20bbb     C3  558   4.232   3.702   9.785  0.1509 -0.4510 -0.2448
   20bbb     H5  559   4.178   3.699   9.689 -0.2045 -1.9709 -0.0085
   20bbb     H6  560   4.309   3.625   9.778  2.2334  1.4882  0.8186
   20bbb     C4  561   4.298   3.844   9.789  0.1665 -0.4206  0.5450
   20bbb     H7  562   4.369   3.845   9.873 -0.6797  1.3318  1.2704
   20bbb     H8  563   4.233   3.930   9.806  1.4546  0.7914 -0.5501
   20bbb     C5  564   3.913   3.698  10.029  0.0797 -0.3575  0.1299
   20bbb     H9  565   3.957   3.750  10.115  0.4984 -0.8998  0.2472
   20bbb    H10  566   3.910   3.590  10.046  1.8648 -0.4438  0.0389
   20bbb     C6  567   4.343   3.583  10.054  0.2912  0.5113  0.2434
   20bbb    H11  568   4.404   3.622  10.136 -0.1960  1.4407  0.1726
   20bbb    H12  569   4.402   3.595   9.962 -0.4077 -0.7756 -0.3953
   20bbb     C7  570   4.377   3.872   9.657 -0.5466 -0.4838  0.4399
   20bbb    H13  571   4.317   3.834   9.574 -1.3333  0.2434  0.6693
   20bbb    H14  572   4.475   3.822   9.659 -0.2766  0.0653  2.4603
   20bbb     C8  573   4.315   3.423  10.075  0.7036 -0.4629  0.0790
   20bbb    H15  574   4.410   3.367  10.075  1.3126  0.5221  2.4456
   20bbb    H16  575   4.249   3.385   9.996 -0.5234  1.0785  0.3482
   20bbb     C9  576   3.776   3.752  10.003  0.9118 -0.2016 -0.6819
   20bbb    H17  577   3.732   3.708   9.913 -0.2778 -0.5268  0.0516
   20bbb    H18  578   3.795   3.859   9.989  0.8030 -0.1012 -0.0707
   20bbb     O1  579   4.398   4.011   9.648 -0.3322  0.0121 -0.3669
   21bbb     N1  580   4.763   4.138   8.048  0.9006  0.4371 -0.4480
   21bbb     C1  581   4.663   4.076   7.959 -0.8923 -0.1128 -0.6536
   21bbb     H1  582   4.565   4.059   8.005 -1.4125  0.8966 -1.3776
   21bbb     H2  583   4.695   3.977   7.924  1.6936  0.4866 -0.1256
   21bbb     C2  584   4.827   4.047   8.146 -0.1105 -0.3128 -0.3423
   21bbb     H3  585   4.857   3.960   8.087  3.7945 -0.3895  1.5676
   21bbb     H4  586   4.752   4.007   8.216 -0.1607 -1.0819 -0.8309
   21bbb     C3  587   4.715   4.267   8.112  0.0113 -0.4713 -0.3797
   21bbb     H5  588   4.704   4.254   8.220  0.4315  0.6423 -0.1902
   21bbb     H6  589   4.613   4.287   8.078  0.8257 -0.7093 -3.0446
   21bbb     C4  590   4.808   4.393   8.076 -0.2304  0.5979  0.7441
   21bbb     H7  591   4.814   4.406   7.968 -0.3888  1.9336  0.8847
   21bbb     H8  592   4.913   4.369   8.095 -0.2006  0.6698  0.6715
   21bbb     C5  593   4.648   4.166   7.838 -0.3673 -1.1903 -0.3598
   21bbb     H9  594   4.747   4.210   7.823 -0.9496  0.2772  0.0767
   21bbb    H10  595   4.580   4.250   7.854  0.0742 -0.5722 -1.6088
   21bbb     C6  596   4.950   4.100   8.215 -0.1192 -0.0599  1.0892
   21bbb    H11  597   4.989   4.017   8.275  1.0790  0.0644  0.4885
   21bbb    H12  598   4.927   4.185   8.281  0.2672  0.9019 -0.0140
   21bbb     C7  599   4.766   4.520   8.157 -0.5247  0.4643  0.1568
   21bbb    H13  600   4.828   4.605   8.127  0.0640 -0.5444 -1.6051
   21bbb    H14  601   4.787   4.501   8.263  0.8134  0.6289 -0.0672
   21bbb     C8  602   5.067   4.132   8.122  0.4751 -0.0634 -0.2980
   21bbb    H15  603   5.035   4.189   8.034 -1.3156  2.9942  2.2322
   21bbb    H16  604   5.105   4.038   8.081  0.2799 -0.2774  0.0049
   21bbb     C9  605   4.609   4.094   7.702  0.4793  0.0001 -0.6413
   21bbb    H17  606   4.507   4.056   7.713  0.9451 -0.8046  1.1889
   21bbb    H18  607   4.675   4.009   7.681 -1.3357 -1.4079 -0.7155
   21bbb     O1  608   4.624   4.544   8.130  1.1118  0.1504 -0.3204
   22bbb     N1  609   3.539   4.241   8.603  0.0478  0.0459 -0.1203
   22bbb     C1  610   3.501   4.324   8.730 -0.5084  0.3634 -0.4764
   22bbb     H1  611   3.394   4.310   8.748 -0.2572 -0.7538  0.2215
   22bbb     H2  612   3.520   4.428   8.701  0.4754  0.2136 -0.3985
   22bbb     C2  613   3.483   4.305   8.480 -0.3518  0.1721  0.7121
   22bbb     H3  614   3.518   4.407   8.462 -0.4047 -0.2016 -1.6755
   22bbb     H4  615   3.374   4.308   8.484 -0.3759 -0.6805  0.8923
   22bbb     C3  616   3.690   4.213   8.595  0.0831 -0.1331  0.0512
   22bbb     H5  617   3.715   4.151   8.508  1.6121 -0.8780  0.9982
   22bbb     H6  618   3.722   4.155   8.682 -1.0044 -2.8263 -1.2733
   22bbb     C4  619   3.788   4.341   8.586  0.4941  0.7655  0.0643
   22bbb     H7  620   3.755   4.400   8.673 -1.0857  0.1879 -0.1461
   22bbb     H8  621   3.760   4.405   8.502  0.7608  1.3770  0.4322
   22bbb     C5  622   3.589   4.287   8.854  0.8387 -0.7891 -0.0596
   22bbb     H9  623   3.558   4.365   8.924 -2.2148 -2.3715  0.4617
   22bbb    H10  624   3.696   4.298   8.832  0.3698 -1.3832 -2.9816
   22bbb     C6  625   3.520   4.237   8.342 -0.2355 -0.2095 -0.2313
   22bbb    H11  626   3.628   4.248   8.324 -0.2972  1.6485  0.3545
   22bbb    H12  627   3.465   4.284   8.260  1.6443  0.0214 -1.3895
   22bbb     C7  628   3.935   4.299   8.589 -0.6017  0.8177 -0.1078
   22bbb    H13  629   3.952   4.239   8.680 -0.9172  0.3822 -0.3342
   22bbb    H14  630   3.990   4.394   8.590 -0.2405  0.6151 -0.5158
   22bbb     C8  631   3.479   4.089   8.346  0.2053 -0.1574 -0.7719
   22bbb    H15  632   3.378   4.075   8.385  1.3547  2.2371  3.3316
   22bbb    H16  633   3.552   4.042   8.413 -0.4603 -1.1663 -0.7365
   22bbb     C9  634   3.567   4.151   8.924 -0.5021  0.2796  0.2758
   22bbb    H17  635   3.583   4.071   8.850  0.9969  1.5409 -0.7912
   22bbb    H18  636   3.461   4.128   8.940 -0.2052 -1.9400 -0.7654
   22bbb     O1  637   3.959   4.234   8.461  0.3014 -0.0390 -0.0791
   23bbb     N1  638   2.784   2.543   9.086  0.1048  0.2883  0.1298
   23bbb     C1  639   2.665   2.572   9.167 -0.5775 -0.1353 -0.9911
   23bbb     H1  640   2.593   2.490   9.159 -0.0380 -0.7972  0.7379
   23bbb     H2  641   2.611   2.664   9.139 -0.3897  0.3536  0.2247
   23bbb     C2  642   2.765   2.552   8.941  0.1926 -0.4343  0.1474
   23bbb     H3  643   2.697   2.473   8.906 -1.9449  2.0055 -1.3987
   23bbb     H4  644   2.861   2.539   8.890 -1.1553 -0.2863 -2.4724
   23bbb     C3  645   2.861   2.422   9.130  0.5803  0.2049  0.9731
   23bbb     H5  646   2.808   2.329   9.111  1.4474 -0.3569  1.2773
   23bbb     H6  647   2.887   2.436   9.236  0.4539 -1.1167  1.1773
   23bbb     C4  648   2.996   2.415   9.060 -0.9734  0.2384 -0.4643
   23bbb     H7  649   3.036   2.515   9.037  0.7136 -0.9383 -2.7790
   23bbb     H8  650   2.976   2.369   8.963  0.0649 -2.5208  0.5676
   23bbb     C5  651   2.711   2.595   9.316 -0.7509  0.2041 -0.1781
   23bbb     H9  652   2.774   2.684   9.308 -0.2012 -0.0665  1.0085
   23bbb    H10  653   2.773   2.515   9.358  0.8487  0.3370 -2.2183
   23bbb     C6  654   2.687   2.684   8.891  0.2800 -0.5581 -0.0908
   23bbb    H11  655   2.583   2.698   8.923  1.1022  2.2086  1.5541
   23bbb    H12  656   2.671   2.681   8.783 -1.1372  1.2596  0.0600
   23bbb     C7  657   3.105   2.346   9.144 -0.2854  0.4331 -0.1145
   23bbb    H13  658   3.096   2.237   9.138  2.7490  0.1726 -0.9857
   23bbb    H14  659   3.100   2.367   9.252  0.1842  0.3333 -0.0714
   23bbb     C8  660   2.769   2.811   8.937  0.2515 -0.5032 -0.1652
   23bbb    H15  661   2.859   2.837   8.880  0.0145  2.8341  0.8611
   23bbb    H16  662   2.813   2.794   9.036 -1.0913 -0.0561  0.5163
   23bbb     C9  663   2.602   2.623   9.417 -0.2143  0.0536 -0.2099
   23bbb    H17  664   2.651   2.646   9.513 -0.7900 -0.1709  0.1370
   23bbb    H18  665   2.543   2.534   9.439 -1.6287  1.7005  2.9637
   23bbb     O1  666   3.234   2.396   9.100  0.0581  0.6370 -0.3830
   24bbb     N1  667   3.721   2.354   9.578 -0.6377 -0.1362 -0.4950
   24bbb     C1  668   3.671   2.256   9.474  0.3463 -0.5016 -0.0208
   24bbb     H1  669   3.754   2.221   9.412  1.7627  3.6393 -0.5832
   24bbb     H2  670   3.600   2.302   9.404  0.5994 -1.2403 -0.7638
   24bbb     C2  671   3.609   2.404   9.664  0.5616  0.0985  0.0493
   24bbb     H3  672   3.643   2.484   9.732 -0.5682  1.0136 -0.4422
   24bbb     H4  673   3.567   2.320   9.721 -1.0005 -1.0256 -2.6801
   24bbb     C3  674   3.802   2.461   9.515  0.7248 -0.0275  0.3124
   24bbb     H5  675   3.798   2.554   9.573 -0.2621  0.1860 -0.1052
   24bbb     H6  676   3.754   2.494   9.423  0.6101  0.1726  0.4445
   24bbb     C4  677   3.948   2.412   9.496  0.2115 -0.2659  0.1277
   24bbb     H7  678   3.946   2.318   9.440  1.2973 -0.2242  0.0016
   24bbb     H8  679   3.989   2.402   9.597 -0.3974  1.5217  0.5764
   24bbb     C5  680   3.603   2.132   9.533 -0.2216 -0.0608 -0.8983
   24bbb     H9  681   3.510   2.155   9.587  0.5367  2.2258 -0.5093
   24bbb    H10  682   3.666   2.092   9.614  0.1825  2.3689  0.0210
   24bbb     C6  683   3.491   2.473   9.578  0.6127 -0.0598 -0.2821
   24bbb    H11  684   3.436   2.395   9.525  0.3693  0.0134 -0.1348
   24bbb    H12  685   3.537   2.540   9.503  0.2174  0.8764  0.2983
   24bbb     C7  686   4.020   2.509   9.394 -1.0880  0.1916  0.5657
   24bbb    H13  687   4.126   2.482   9.389 -1.1677  0.0986 -0.7332
   24bbb    H14  688   4.022   2.612   9.433 -1.2818  1.3798 -2.4173
   24bbb     C8  689   3.391   2.553   9.664  0.0553 -0.6740 -0.1337
   24bbb    H15  690   3.430   2.651   9.693  2.2097 -0.9215 -2.0976
   24bbb    H16  691   3.386   2.490   9.754  1.7601 -1.0364 -0.2869
   24bbb     C9  692   3.572   2.028   9.423 -0.0010  0.1905 -0.5163
   24bbb    H17  693   3.517   2.082   9.345 -1.4024  1.5974  1.4333
   24bbb    H18  694   3.509   1.949   9.466  1.1941  0.3698  1.5971
   24bbb     O1  695   3.964   2.512   9.259 -0.8204  0.2873  0.3203
   25bbb     N1  696   3.142   2.863   8.706  0.1832  0.2270  0.5210
   25bbb     C1  697   3.145   2.738   8.794  1.1860  0.1001  0.3231
   25bbb     H1  698   3.042   2.708   8.814  0.6237  1.3232 -0.6100
   25bbb     H2  699   3.178   2.777   8.891  0.9078  1.8568 -0.2724
   25bbb     C2  700   3.068   2.984   8.754  0.5751 -0.2746  0.5557
   25bbb     H3  701   3.134   3.054   8.807 -0.6291 -0.4755  2.3409
   25bbb     H4  702   3.001   2.950   8.834  0.1580  0.7994  0.6616
   25bbb     C3  703   3.248   2.886   8.608 -0.1094 -0.3409  0.1835
   25bbb     H5  704   3.224   2.967   8.538  2.6194  0.8419  0.5480
   25bbb     H6  705   3.271   2.798   8.546 -1.5408 -0.8400  0.3518
   25bbb     C4  706   3.379   2.917   8.681  0.6430 -0.4743 -0.2258
   25bbb     H7  707   3.437   2.826   8.702 -0.7371 -1.3883 -0.3136
   25bbb     H8  708   3.363   2.972   8.774 -0.1059 -0.1656 -0.5408
   25bbb     C5  709   3.216   2.609   8.749 -0.1195 -0.3881 -0.6750
   25bbb     H9  710   3.213   2.526   8.821  0.4115  2.1367  2.3944
   25bbb    H10  711   3.322   2.628   8.727  0.0995 -1.1983 -0.3683
   25bbb     C6  712   2.990   3.068   8.653 -0.1532 -1.0759  0.3630
   25bbb    H11  713   2.916   3.004   8.606 -1.5347 -0.6177  1.8755
   25bbb    H12  714   3.064   3.103   8.579  0.7859 -0.4983  1.5501
   25bbb     C7  715   3.465   3.005   8.587  0.0175  0.8606  0.0106
   25bbb    H13  716   3.547   3.037   8.653  0.4521 -1.7978  0.8203
   25bbb    H14  717   3.413   3.091   8.542 -0.0254  0.5009 -0.6275
   25bbb     C8  718   2.933   3.193   8.717 -0.3505 -0.2532  0.1776
   25bbb    H15  719   3.017   3.261   8.738 -2.5241  2.4071  0.4646
   25bbb    H16  720   2.889   3.165   8.813 -1.4163 -2.5864 -0.9321
   25bbb     C9  721   3.156   2.557   8.618 -0.4612  0.6520  0.0215
   25bbb    H17  722   3.216   2.472   8.581 -0.6511  1.2324 -1.6699
   25bbb    H18  723   3.159   2.628   8.535 -2.5981  0.0287 -0.6180
   25bbb     O1  724   3.518   2.916   8.483  0.3392 -0.7858 -0.2083
   26bbb     N1  725   3.117   2.780   8.172  0.5894 -0.2874  0.1523
   26bbb     C1  726   3.033   2.673   8.225 -0.5522  0.3295 -0.3608
   26bbb     H1  727   2.954   2.715   8.290  0.7475  1.3865  0.5702
   26bbb     H2  728   3.095   2.607   8.287  0.4279  2.3466  0.8612
   26bbb     C2  729   3.205   2.840   8.278  0.2335 -0.1523  0.7168
   26bbb     H3  730   3.279   2.767   8.311 -0.4598 -0.9206  0.5756
   26bbb     H4  731   3.141   2.873   8.361 -0.4081  0.6243 -0.0742
   26bbb     C3  732   3.181   2.760   8.040  0.0503 -0.6846 -0.0509
   26bbb     H5  733   3.228   2.853   8.007  0.2393 -0.4691  0.8369
   26bbb     H6  734   3.104   2.739   7.964 -1.2237 -1.2698  1.3796
   26bbb     C4  735   3.284   2.649   8.040 -0.5532  0.5542  0.5836
   26bbb     H7  736   3.237   2.550   8.037 -1.8179  1.1378  0.5884
   26bbb     H8  737   3.334   2.642   8.138 -0.2656  0.8188  0.4545
   26bbb     C5  738   2.949   2.589   8.123  0.3467 -0.9575 -0.5072
   26bbb     H9  739   3.012   2.550   8.042 -0.5818 -2.2153 -0.6384
   26bbb    H10  740   2.891   2.670   8.076  0.8960 -0.4808 -0.3766
   26bbb     C6  741   3.290   2.964   8.235 -0.1264  0.0257  0.2462
   26bbb    H11  742   3.372   2.935   8.168 -0.5222  0.3582 -0.3856
   26bbb    H12  743   3.344   2.990   8.326  1.8164  0.6802 -1.0731
   26bbb     C7  744   3.393   2.662   7.930  0.1016 -0.3535  0.3095
   26bbb    H13  745   3.353   2.665   7.828  0.8210 -1.7802 -0.0300
   26bbb    H14  746   3.453   2.570   7.937 -1.4907 -1.4963 -0.8963
   26bbb     C8  747   3.209   3.085   8.185  0.1758 -0.3368 -0.1637
   26bbb    H15  748   3.128   3.108   8.255  0.9605 -0.2585  0.7214
   26bbb    H16  749   3.158   3.062   8.091 -1.0837 -0.9468  0.6547
   26bbb     C9  750   2.852   2.474   8.175 -0.7444 -0.5424 -0.1623
   26bbb    H17  751   2.803   2.504   8.268  0.0724  0.6801 -0.1157
   26bbb    H18  752   2.921   2.394   8.204 -0.3773 -0.5979 -1.1623
   26bbb     O1  753   3.479   2.774   7.956  0.4352  0.1690  0.3578
   27bbb     N1  754   5.370   4.687  10.050  0.5057 -0.5486  0.0374
   27bbb     C1  755   5.437   4.748   9.940 -0.1898 -0.0863  0.4074
   27bbb     H1  756   5.518   4.816   9.967 -1.3770  1.3235  0.4727
   27bbb     H2  757   5.365   4.819   9.897 -1.0812 -1.0570  0.2581
   27bbb     C2  758   5.429   4.719  10.189 -0.0905  0.0088  0.0022
   27bbb     H3  759   5.372   4.676  10.272 -0.1341  0.2409  0.0935
   27bbb     H4  760   5.421   4.829  10.192 -2.1053 -0.0851 -1.0883
   27bbb     C3  761   5.221   4.672  10.036  0.1261  1.0098  0.1432
   27bbb     H5  762   5.199   4.660   9.929  2.1389  1.1377 -0.3166
   27bbb     H6  763   5.171   4.766  10.062  0.0385  0.3320  2.5437
   27bbb     C4  764   5.160   4.547  10.112 -0.0007  0.2888 -0.2356
   27bbb     H7  765   5.052   4.555  10.093  0.0502  1.8485  0.0453
   27bbb     H8  766   5.175   4.565  10.219  0.5733  0.5362 -0.3562
   27bbb     C5  767   5.495   4.647   9.840  0.2969  0.9723 -0.0369
   27bbb     H9  768   5.534   4.563   9.899  0.9071  0.9087 -0.5273
   27bbb    H10  769   5.583   4.699   9.800  1.1965  0.6933  1.5505
   27bbb     C6  770   5.579   4.683  10.209 -0.2078 -0.1870 -0.2921
   27bbb    H11  771   5.608   4.721  10.307 -0.9375 -1.0940  0.2927
   27bbb    H12  772   5.648   4.731  10.139  0.5491  1.1265  1.3338
   27bbb     C7  773   5.225   4.418  10.069  0.3548  0.5748  0.4584
   27bbb    H13  774   5.242   4.348  10.153  2.0416  0.7193  0.2527
   27bbb    H14  775   5.326   4.442  10.034 -0.3810  1.4859 -1.0939
   27bbb     C8  776   5.611   4.530  10.197 -0.5059 -0.1053  0.4744
   27bbb    H15  777   5.626   4.507  10.090 -1.6194  0.5007  0.1789
   27bbb    H16  778   5.526   4.464  10.216 -2.1673  2.2277  1.4622
   27bbb     C9  779   5.406   4.605   9.721 -0.2700  0.2525 -0.2385
   27bbb    H17  780   5.352   4.696   9.692 -0.2198 -0.1902 -1.7688
   27bbb    H18  781   5.328   4.541   9.764  0.8764  1.1786  3.3715
   27bbb     O1  782   5.153   4.362   9.957  0.2198  0.9070 -0.6814
   28bbb     N1  783   5.292   5.029   9.585  0.3538  0.5209  0.5508
   28bbb     C1  784   5.295   5.004   9.731  1.2326 -0.0432  0.2928
   28bbb     H1  785   5.400   4.995   9.759  1.3686  0.3931 -0.0677
   28bbb     H2  786   5.244   4.909   9.749  1.4012 -0.2993 -0.5735
   28bbb     C2  787   5.361   5.145   9.530 -0.0033  0.8196 -0.3928
   28bbb     H3  788   5.317   5.232   9.581  1.3413  0.6903  1.0446
   28bbb     H4  789   5.332   5.151   9.425 -1.9182 -0.0587  0.0703
   28bbb     C3  790   5.158   5.002   9.518 -0.1826 -0.0877  0.1501
   28bbb     H5  791   5.088   5.085   9.531 -1.8841 -1.8285  2.4963
   28bbb     H6  792   5.101   4.919   9.562 -1.6809  0.5007 -0.6438
   28bbb     C4  793   5.163   4.967   9.362 -0.1332 -0.0895  0.3709
   28bbb     H7  794   5.260   4.920   9.341 -1.1386 -1.5573 -1.1402
   28bbb     H8  795   5.160   5.058   9.301 -1.0827  0.3452  1.0502
   28bbb     C5  796   5.228   5.111   9.821 -0.1437  0.2536 -0.1109
   28bbb     H9  797   5.120   5.105   9.806 -0.0080  1.4094 -1.6146
   28bbb    H10  798   5.267   5.206   9.782 -0.3812 -1.2463 -4.2539
   28bbb     C6  799   5.514   5.144   9.550 -0.2396 -0.4980 -0.1598
   28bbb    H11  800   5.556   5.047   9.523 -0.4393 -0.2820 -1.3093
   28bbb    H12  801   5.536   5.174   9.653 -2.3463  0.1968  0.1107
   28bbb     C7  802   5.060   4.861   9.318  0.6286 -0.3236  0.2482
   28bbb    H13  803   5.061   4.846   9.209  0.8721  1.1003  0.0325
   28bbb    H14  804   4.961   4.884   9.358  1.3287 -0.3768  2.0346
   28bbb     C8  805   5.584   5.257   9.467  0.1169  0.2011 -0.3343
   28bbb    H15  806   5.684   5.264   9.511 -1.0018 -2.6493  2.8676
   28bbb    H16  807   5.533   5.354   9.475  0.3544  0.1986  1.5062
   28bbb     C9  808   5.267   5.087   9.970  0.9001  0.4988  0.0915
   28bbb    H17  809   5.212   5.155  10.035  0.5854  1.0717 -0.7605
   28bbb    H18  810   5.239   4.984   9.994 -1.0391  0.3217 -2.7101
   28bbb     O1  811   5.093   4.740   9.388  1.0079 -0.7528 -0.3285
   29bbb     N1  812   3.418   2.797  10.194  0.1636 -0.5652  0.0639
   29bbb     C1  813   3.447   2.820  10.053 -0.0713  0.6360  0.1468
   29bbb     H1  814   3.422   2.727  10.001 -1.5967  1.1632 -0.0752
   29bbb     H2  815   3.551   2.844  10.028  0.0652 -2.3669 -2.4209
   29bbb     C2  816   3.293   2.727  10.224 -0.4062  0.2031  0.5787
   29bbb     H3  817   3.219   2.746  10.146  2.7771  1.1584 -2.3600
   29bbb     H4  818   3.264   2.762  10.324 -1.0662 -0.4859  0.6284
   29bbb     C3  819   3.541   2.735  10.259  0.0263  0.3111  0.5915
   29bbb     H5  820   3.563   2.635  10.220  0.7970  0.6942  0.0252
   29bbb     H6  821   3.519   2.716  10.365  1.2393  0.9757  0.9696
   29bbb     C4  822   3.672   2.819  10.254 -0.1044  0.0626  0.3647
   29bbb     H7  823   3.710   2.827  10.151  3.1291  0.7550  1.5818
   29bbb     H8  824   3.749   2.770  10.314  0.4417 -0.2601 -0.5871
   29bbb     C5  825   3.352   2.925   9.985  0.4294  0.0858 -0.5791
   29bbb     H9  826   3.248   2.895  10.002  1.0625  0.0991  3.8692
   29bbb    H10  827   3.370   2.932   9.877 -0.1609  1.9770 -0.5769
   29bbb     C6  828   3.297   2.568  10.225 -0.7296  0.2373  0.0955
   29bbb    H11  829   3.364   2.535  10.306 -1.1821 -0.7329  0.0864
   29bbb    H12  830   3.340   2.530  10.132  1.4404  2.9650 -0.0777
   29bbb     C7  831   3.660   2.953  10.324 -0.2709 -0.2607 -0.5685
   29bbb    H13  832   3.657   2.939  10.433  1.9727 -1.9077 -0.6744
   29bbb    H14  833   3.570   3.011  10.303 -0.2327  0.0937  0.2258
   29bbb     C8  834   3.150   2.516  10.224 -0.4775  0.2633 -0.6668
   29bbb    H15  835   3.104   2.563  10.137  0.9233  3.2615  0.1632
   29bbb    H16  836   3.099   2.561  10.311 -0.4002 -0.9173  0.0014
   29bbb     C9  837   3.390   3.062  10.046 -0.0843  0.0816 -0.4813
   29bbb    H17  838   3.468   3.117   9.991  1.1627  1.5342  2.6101
   29bbb    H18  839   3.442   3.035  10.139 -1.3696  1.1762  0.5694
   29bbb     O1  840   3.774   3.043  10.296  0.2777 -0.0074  0.1329
   30bbb     N1  841   3.652   2.885   9.555  0.1190  0.2108  0.4526
   30bbb     C1  842   3.763   2.850   9.466  0.6104 -0.4511  0.0992
   30bbb     H1  843   3.791   2.744   9.473 -0.1260 -0.8448 -2.4177
   30bbb     H2  844   3.851   2.901   9.506  0.9017 -0.7137 -0.2158
   30bbb     C2  845   3.636   2.801   9.671 -0.3479  0.1608 -0.0886
   30bbb     H3  846   3.634   2.697   9.639 -1.8911 -0.2931  1.4214
   30bbb     H4  847   3.537   2.822   9.713 -0.6508  1.1280 -1.2544
   30bbb     C3  848   3.636   3.030   9.570 -0.2663  0.6642  0.5803
   30bbb     H5  849   3.628   3.081   9.473 -1.1693 -0.0147  0.2921
   30bbb     H6  850   3.729   3.067   9.615  1.5388 -1.9260 -0.9180
   30bbb     C4  851   3.517   3.067   9.652 -0.0881 -0.0653  0.2518
   30bbb     H7  852   3.538   3.056   9.759  0.7398 -1.4625 -0.0400
   30bbb     H8  853   3.432   3.004   9.624  0.0674  0.2880 -1.0524
   30bbb     C5  854   3.738   2.874   9.318  0.7341 -0.4625 -0.3865
   30bbb     H9  855   3.831   2.851   9.264 -0.2508 -0.4549 -2.1462
   30bbb    H10  856   3.729   2.982   9.301  1.8062 -0.2840  0.1452
   30bbb     C6  857   3.748   2.824   9.778  0.3531  0.0644  0.2352
   30bbb    H11  858   3.711   2.897   9.851  0.9374  0.8657 -0.2487
   30bbb    H12  859   3.834   2.865   9.724  1.2044 -1.1468  0.6482
   30bbb     C7  860   3.474   3.215   9.627  0.3588  0.6596  0.0829
   30bbb    H13  861   3.382   3.238   9.683 -0.6153  0.6862 -1.4915
   30bbb    H14  862   3.448   3.227   9.521  0.4028  1.0905  0.1207
   30bbb     C8  863   3.803   2.704   9.864  0.0067 -0.5417 -0.7219
   30bbb    H15  864   3.838   2.626   9.796  0.1179 -1.1581  0.0435
   30bbb    H16  865   3.724   2.654   9.922 -1.2483  2.6234  0.4195
   30bbb     C9  866   3.615   2.796   9.253  1.0560  0.0402  0.1403
   30bbb    H17  867   3.529   2.806   9.321 -0.3229 -1.9616 -1.2617
   30bbb    H18  868   3.642   2.690   9.260  3.2398  0.4984 -1.0711
   30bbb     O1  869   3.569   3.317   9.668 -0.7127 -1.1523  0.8403
   31bbb     N1  870   5.309   4.510   7.640 -0.9786 -0.4731  0.1641
   31bbb     C1  871   5.333   4.365   7.627 -0.0526  0.6222 -0.1436
   31bbb     H1  872   5.293   4.299   7.704 -2.1447 -2.1932 -3.4913
   31bbb     H2  873   5.440   4.354   7.646 -0.0414  0.4588 -0.2924
   31bbb     C2  874   5.177   4.540   7.590 -0.6887  0.4025 -0.7711
   31bbb     H3  875   5.106   4.481   7.649 -0.2270  0.0746 -0.5436
   31bbb     H4  876   5.165   4.504   7.487 -0.7290 -1.5470 -0.1053
   31bbb     C3  877   5.344   4.562   7.775 -0.6414 -0.3844  0.3120
   31bbb     H5  878   5.346   4.672   7.778  2.5445 -0.4119  0.7599
   31bbb     H6  879   5.442   4.526   7.806 -0.4920 -0.8526 -0.6843
   31bbb     C4  880   5.251   4.512   7.889  0.4987  1.0385 -0.9476
   31bbb     H7  881   5.276   4.407   7.906  2.8064  1.5953 -0.6364
   31bbb     H8  882   5.146   4.523   7.861  0.2730  0.2776 -0.4174
   31bbb     C5  883   5.315   4.317   7.482  0.4391 -0.3846 -0.1307
   31bbb     H9  884   5.367   4.392   7.421  1.7827  0.3693  1.8826
   31bbb    H10  885   5.207   4.315   7.460  0.3405 -1.4939  0.4024
   31bbb     C6  886   5.136   4.685   7.591 -0.2810  0.0471 -0.3796
   31bbb    H11  887   5.128   4.721   7.694  1.0407  1.5035 -0.7738
   31bbb    H12  888   5.035   4.684   7.547  0.0622 -0.4794 -1.1631
   31bbb     C7  889   5.272   4.580   8.025  0.2868  0.5366 -0.4435
   31bbb    H13  890   5.264   4.688   8.009 -1.8452  0.1354 -2.3301
   31bbb    H14  891   5.376   4.562   8.055  0.3196 -0.5364 -1.1862
   31bbb     C8  892   5.231   4.786   7.518  0.1595 -0.1779 -0.4402
   31bbb    H15  893   5.335   4.760   7.543 -0.2549 -0.9174  0.5549
   31bbb    H16  894   5.216   4.889   7.551 -0.3156 -0.8901  1.6278
   31bbb     C9  895   5.379   4.179   7.464  0.3538  0.2745  0.0421
   31bbb    H17  896   5.339   4.123   7.549  2.1926 -2.8023 -1.0120
   31bbb    H18  897   5.486   4.195   7.480  0.0986  0.5003  1.5533
   31bbb     O1  898   5.171   4.540   8.125 -0.1860 -0.8409 -0.2820
   32bbb     N1  899   4.645   4.937   9.087  0.0375  0.0146  0.0172
   32bbb     C1  900   4.670   5.067   9.157 -0.1715 -0.2758  0.2573
   32bbb     H1  901   4.661   5.146   9.081  0.7462 -0.3571  0.0587
   32bbb     H2  902   4.773   5.068   9.194 -0.1925  1.8335  0.2845
   32bbb     C2  903   4.515   4.914   9.016  0.3828  0.2593  0.1735
   32bbb     H3  904   4.446   4.881   9.094  0.1655  2.6058  1.0136
   32bbb     H4  905   4.538   4.840   8.939 -0.8239 -1.7753  1.7360
   32bbb     C3  906   4.694   4.822   9.167  0.0089  0.2541  0.2868
   32bbb     H5  907   4.628   4.805   9.253 -2.1408 -1.2979 -1.6189
   32bbb     H6  908   4.789   4.849   9.214  0.2691  1.1143 -0.7164
   32bbb     C4  909   4.699   4.678   9.091  0.5246  0.4878 -0.7660
   32bbb     H7  910   4.606   4.651   9.040 -1.1164 -1.5568  3.0951
   32bbb     H8  911   4.717   4.593   9.157 -2.4057  0.8056  0.5375
   32bbb     C5  912   4.576   5.101   9.273 -0.6705  0.5050  0.1854
   32bbb     H9  913   4.569   5.013   9.339  0.1823  0.9139  0.8215
   32bbb    H10  914   4.474   5.124   9.237  0.2648  0.2041 -2.8601
   32bbb     C6  915   4.466   5.048   8.949  0.2693  0.0964 -0.4374
   32bbb    H11  916   4.559   5.079   8.899  1.3533  0.8378  1.9456
   32bbb    H12  917   4.442   5.119   9.029  0.0234 -1.5331  0.9654
   32bbb     C7  918   4.813   4.687   8.996 -0.2919 -0.0455  0.2873
   32bbb    H13  919   4.911   4.662   9.037  0.3765  0.5269 -0.9331
   32bbb    H14  920   4.822   4.785   8.948 -1.1137 -0.3316 -0.4634
   32bbb     C8  921   4.346   5.018   8.853 -0.2667  0.1355  0.0644
   32bbb    H15  922   4.291   4.927   8.881 -0.7792  0.2252 -0.6340
   32bbb    H16  923   4.393   4.985   8.759  0.7915  1.6381  0.0498
   32bbb     C9  924   4.636   5.208   9.363 -0.1087  0.1037 -0.2736
   32bbb    H17  925   4.682   5.282   9.296  0.9333 -1.3914 -1.2395
   32bbb    H18  926   4.718   5.158   9.415  0.4148  0.7757 -0.4423
   32bbb     O1  927   4.795   4.591   8.890 -0.0772 -0.5696  0.0610
   33bbb     N1  928   6.003   3.504   7.521  0.4188  0.8503  0.7748
   33bbb     C1  929   5.914   3.562   7.416 -0.2755  0.4261  0.1246
   33bbb     H1  930   5.841   3.487   7.382 -0.6557  0.1183  1.5730
   33bbb     H2  931   5.968   3.592   7.326 -1.8355 -0.4436 -1.1197
   33bbb     C2  932   6.059   3.375   7.481  0.0442  0.6162 -0.4662
   33bbb     H3  933   6.117   3.330   7.564  1.6584  3.0624 -0.2015
   33bbb     H4  934   6.132   3.388   7.400 -0.3179  1.5929 -0.6423
   33bbb     C3  935   6.094   3.600   7.576 -0.6905 -0.4462 -0.0894
   33bbb     H5  936   6.033   3.675   7.629 -1.7993 -1.0224 -0.5514
   33bbb     H6  937   6.155   3.654   7.502 -0.1625  1.4065  1.6422
   33bbb     C4  938   6.187   3.537   7.681  0.3250 -0.3623 -0.5880
   33bbb     H7  939   6.268   3.484   7.628  2.1990  1.5439  0.2908
   33bbb     H8  940   6.144   3.456   7.741 -1.4561  1.2628  0.3551
   33bbb     C5  941   5.850   3.701   7.454  0.2973  0.1245 -0.1457
   33bbb     H9  942   5.927   3.776   7.474  0.5243  0.6583 -2.8224
   33bbb    H10  943   5.788   3.687   7.544  2.4577 -0.7307  1.2402
   33bbb     C6  944   5.956   3.270   7.451  0.2932  0.3482  0.4107
   33bbb    H11  945   5.900   3.290   7.359  1.4351  0.4816 -0.2605
   33bbb    H12  946   5.880   3.271   7.530  0.3935 -1.9740  0.5817
   33bbb     C7  947   6.253   3.636   7.774  0.0836 -0.3805  0.2964
   33bbb    H13  948   6.174   3.681   7.834  0.7310  0.2570  0.6873
   33bbb    H14  949   6.306   3.718   7.723 -1.1392  0.4156  0.3099
   33bbb     C8  950   6.013   3.128   7.435  0.5529  0.1747  0.1885
   33bbb    H15  951   5.945   3.042   7.445 -0.8249  0.7675 -3.4428
   33bbb    H16  952   6.085   3.108   7.516 -1.9076 -2.8086  1.7655
   33bbb     C9  953   5.766   3.750   7.333 -0.0824  0.4717 -0.0078
   33bbb    H17  954   5.697   3.669   7.306  1.0479 -1.4158  2.5584
   33bbb    H18  955   5.834   3.759   7.246  0.2736 -0.9701  0.1039
   33bbb     O1  956   6.344   3.558   7.857 -0.2983 -0.9229 -0.6907
   34bbb     N1  957   5.880   4.457   7.843  0.1237 -0.6185 -0.1333
   34bbb     C1  958   5.801   4.528   7.948 -0.1306 -0.2244 -1.1083
   34bbb     H1  959   5.831   4.502   8.050 -0.6253  0.9048 -0.6632
   34bbb     H2  960   5.693   4.509   7.944 -0.0487 -1.7526  2.1651
   34bbb     C2  961   5.800   4.369   7.747 -1.0153 -0.4612 -0.6311
   34bbb     H3  962   5.862   4.307   7.681 -1.8829 -0.5267 -1.3868
   34bbb     H4  963   5.740   4.437   7.684 -1.0199  2.6859  2.6025
   34bbb     C3  964   5.996   4.384   7.896  0.5945 -0.3449 -0.4209
   34bbb     H5  965   6.040   4.328   7.813 -3.2575 -0.3774 -2.5483
   34bbb     H6  966   5.965   4.305   7.966  0.1999 -0.1673 -0.3959
   34bbb     C4  967   6.106   4.470   7.965 -0.3529 -0.4701 -0.2621
   34bbb     H7  968   6.073   4.512   8.060 -0.7754  0.1697 -0.6840
   34bbb     H8  969   6.127   4.554   7.897  3.3794 -0.2373  1.0357
   34bbb     C5  970   5.808   4.686   7.938 -0.6848 -0.4632  0.0134
   34bbb     H9  971   5.914   4.711   7.924 -0.7385  1.0603  1.9685
   34bbb    H10  972   5.774   4.723   8.036 -0.1002  0.6434 -0.1896
   34bbb     C6  973   5.696   4.271   7.812  0.1594 -0.2364  0.0141
   34bbb    H11  974   5.601   4.322   7.832 -0.8547 -1.0288 -2.5713
   34bbb    H12  975   5.731   4.233   7.909 -1.0290 -2.5039 -0.4195
   34bbb     C7  976   6.239   4.393   7.981 -0.1453  0.6608 -0.3789
   34bbb    H13  977   6.322   4.464   7.995  2.7124 -2.2456 -1.7465
   34bbb    H14  978   6.249   4.353   7.880  0.1389  2.8427 -1.2379
   34bbb     C8  979   5.668   4.139   7.726  0.2681 -0.5216 -0.2229
   34bbb    H15  980   5.765   4.090   7.714  1.1411  0.9715  0.5180
   34bbb    H16  981   5.634   4.161   7.624 -1.5408  0.1506  0.5096
   34bbb     C9  982   5.725   4.748   7.819 -0.2748 -0.4985  0.0109
   34bbb    H17  983   5.620   4.744   7.847 -0.1087  1.7838  1.0352
   34bbb    H18  984   5.739   4.680   7.733  1.0628  0.2633 -0.4041
   34bbb     O1  985   6.238   4.293   8.087 -0.0109  0.4811 -0.2696
   35bbb     N1  986   4.354   2.942   7.563  0.2795 -0.1271 -0.4804
   35bbb     C1  987   4.429   2.844   7.481 -0.7593 -0.1198 -0.2104
   35bbb     H1  988   4.506   2.891   7.419 -0.6230  0.0130  0.0608
   35bbb     H2  989   4.359   2.796   7.412  0.7812 -0.7359 -1.3820
   35bbb     C2  990   4.260   3.022   7.480  0.4005  0.5849  0.0959
   35bbb     H3  991   4.315   3.066   7.396  0.0149 -1.9122 -1.4978
   35bbb     H4  992   4.228   3.104   7.546  0.8328 -0.3945  1.5544
   35bbb     C3  993   4.420   3.041   7.662  0.6490  0.3816  0.5370
   35bbb     H5  994   4.493   2.996   7.730  0.5713  2.7563  2.2211
   35bbb     H6  995   4.343   3.095   7.718 -1.3869 -2.2625  0.3872
   35bbb     C4  996   4.515   3.135   7.582  0.6911 -0.2726  0.1473
   35bbb     H7  997   4.441   3.194   7.526 -0.4525 -0.4009  1.5068
   35bbb     H8  998   4.573   3.084   7.504 -0.3691 -0.9048 -0.2410
   35bbb     C5  999   4.494   2.729   7.555  0.9619  0.8939  0.1631
   35bbb     H9 1000   4.543   2.780   7.639 -1.2781  2.7935  0.3489
   35bbb    H10 1001   4.563   2.665   7.498 -1.1829 -3.4258  2.1359
   35bbb     C6 1002   4.137   2.954   7.409  0.5245 -0.4246  0.1059
   35bbb    H11 1003   4.072   2.907   7.484  1.8201 -0.9886  0.9002
   35bbb    H12 1004   4.166   2.883   7.330 -1.5894  0.4542 -1.4972
   35bbb     C7 1005   4.601   3.228   7.675  0.2623 -0.3856  0.1862
   35bbb    H13 1006   4.536   3.293   7.735  0.9799 -0.5919  1.1937
   35bbb    H14 1007   4.660   3.296   7.612 -0.3728 -0.7234 -0.7882
   35bbb     C8 1008   4.054   3.062   7.333 -0.3887 -0.1354  0.1472
   35bbb    H15 1009   4.003   3.131   7.402  0.1805 -0.4191  0.8473
   35bbb    H16 1010   3.970   3.009   7.285 -0.4230  0.3667 -0.3502
   35bbb     C9 1011   4.384   2.625   7.602 -0.2601 -0.3690 -0.0622
   35bbb    H17 1012   4.297   2.631   7.536  0.6719 -2.0862 -1.5008
   35bbb    H18 1013   4.353   2.645   7.705 -2.3747 -1.0624 -0.5463
   35bbb     O1 1014   4.674   3.149   7.770  0.8043  0.4574 -0.4294
   36bbb     N1 1015   5.353   2.952   8.874 -0.3319 -0.6587 -0.4115
   36bbb     C1 1016   5.281   2.929   8.994  0.1285 -0.5556 -0.3604
   36bbb     H1 1017   5.245   3.023   9.038 -1.6761 -2.1666  1.7750
   36bbb     H2 1018   5.350   2.880   9.064 -3.3546 -1.2448  2.7575
   36bbb     C2 1019   5.474   3.031   8.897  0.0506 -0.1579 -0.7657
   36bbb     H3 1020   5.438   3.122   8.948 -2.5786 -0.4151 -2.0695
   36bbb     H4 1021   5.520   3.064   8.803  0.5307  0.4232 -0.3304
   36bbb     C3 1022   5.276   3.005   8.757 -0.0764 -0.4978  0.1111
   36bbb     H5 1023   5.205   2.927   8.725  0.1091  0.5628 -3.0650
   36bbb     H6 1024   5.347   3.017   8.674  0.4620  3.5340  1.0593
   36bbb     C4 1025   5.197   3.136   8.787 -1.3418  0.4992  0.1888
   36bbb     H7 1026   5.251   3.204   8.855  0.3877 -0.9219  0.2629
   36bbb     H8 1027   5.098   3.114   8.829 -0.6427  0.8419  2.0868
   36bbb     C5 1028   5.158   2.835   8.992  0.0942 -0.1391  0.0852
   36bbb     H9 1029   5.081   2.873   8.924 -0.2719  0.0783  0.6178
   36bbb    H10 1030   5.128   2.829   9.097 -0.9419 -0.4557 -0.2240
   36bbb     C6 1031   5.584   2.965   8.980 -0.7595 -0.1078  0.4497
   36bbb    H11 1032   5.626   2.879   8.926  2.6593  2.4559 -1.2485
   36bbb    H12 1033   5.557   2.925   9.078  3.8807 -0.7492  1.6216
   36bbb     C7 1034   5.163   3.211   8.659  0.1402 -0.0973  0.1274
   36bbb    H13 1035   5.243   3.281   8.631  0.0839  0.6209  1.6733
   36bbb    H14 1036   5.078   3.279   8.673 -0.3059 -0.5900 -0.1967
   36bbb     C8 1037   5.708   3.062   9.006  0.2543 -0.2525  0.4383
   36bbb    H15 1038   5.786   3.018   9.069 -0.6812 -1.2615  0.8966
   36bbb    H16 1039   5.678   3.155   9.056 -0.3640 -0.8539  1.2045
   36bbb     C9 1040   5.195   2.689   8.959 -0.3285 -1.1684 -0.2232
   36bbb    H17 1041   5.255   2.692   8.867  0.5144  1.4766  0.3852
   36bbb    H18 1042   5.269   2.647   9.028 -0.4823 -2.2392 -0.6968
   36bbb     O1 1043   5.150   3.116   8.550  0.3084  0.1600 -0.2733
   37bbb     N1 1044   5.666   2.961   7.869  0.1395 -0.0377  0.8185
   37bbb     C1 1045   5.699   2.874   7.757 -0.0029  0.1574  0.2348
   37bbb     H1 1046   5.661   2.924   7.667 -3.1246  0.6059  1.7586
   37bbb     H2 1047   5.645   2.779   7.763 -0.0893  0.2609  1.2281
   37bbb     C2 1048   5.693   2.893   8.001  0.2106 -0.1905 -0.2373
   37bbb     H3 1049   5.795   2.853   8.006  0.4605  0.4497 -0.1099
   37bbb     H4 1050   5.630   2.803   8.001  1.5417 -1.1407 -1.1778
   37bbb     C3 1051   5.535   3.031   7.859  0.2739 -0.1480  0.2650
   37bbb     H5 1052   5.520   3.094   7.948 -2.0486  1.2323 -1.0210
   37bbb     H6 1053   5.459   2.952   7.851 -0.0395  0.1701  0.0351
   37bbb     C4 1054   5.513   3.121   7.727  0.2690  0.2167 -0.7000
   37bbb     H7 1055   5.417   3.173   7.731  1.8035  3.0822  0.2180
   37bbb     H8 1056   5.494   3.062   7.637 -0.8508 -0.6501  0.0969
   37bbb     C5 1057   5.845   2.835   7.728  0.2018 -1.1637 -0.2191
   37bbb     H9 1058   5.880   2.770   7.809  4.3402  1.5668  0.3328
   37bbb    H10 1059   5.903   2.928   7.716 -2.3071  0.2398 -2.2699
   37bbb     C6 1060   5.671   2.983   8.128  0.1313 -0.7989  0.4699
   37bbb    H11 1061   5.564   3.004   8.135  0.2470  1.3769 -3.2986
   37bbb    H12 1062   5.720   3.080   8.114  3.4056 -2.3897  0.1608
   37bbb     C7 1063   5.629   3.222   7.698 -0.3028 -0.1469 -0.6281
   37bbb    H13 1064   5.608   3.277   7.605  0.7316 -0.6391 -1.1523
   37bbb    H14 1065   5.717   3.158   7.689  0.8422  1.2444  0.3268
   37bbb     C8 1066   5.730   2.910   8.249  0.0812 -0.0490  0.4995
   37bbb    H15 1067   5.770   2.979   8.324  1.2777  0.3420 -0.4820
   37bbb    H16 1068   5.818   2.850   8.220  1.1708  0.8395  1.8881
   37bbb     C9 1069   5.854   2.761   7.591 -0.7884 -0.1902  0.1817
   37bbb    H17 1070   5.853   2.833   7.508 -0.4542 -1.0089 -0.5527
   37bbb    H18 1071   5.769   2.691   7.582 -0.1231 -0.9480 -0.2652
   37bbb     O1 1072   5.650   3.315   7.801  0.1709 -0.2300  0.0586
   38bbb     N1 1073   6.408   4.003   7.612 -0.6113 -0.6216  0.5263
   38bbb     C1 1074   6.554   4.044   7.603 -0.8656  0.6995  0.0419
   38bbb     H1 1075   6.561   4.132   7.668 -0.9789  0.5106  0.3149
   38bbb     H2 1076   6.567   4.073   7.498  0.7130 -0.9083 -0.2307
   38bbb     C2 1077   6.368   3.884   7.530 -0.5841 -0.2271  0.0310
   38bbb     H3 1078   6.262   3.861   7.546 -0.8864  1.1715  0.0505
   38bbb     H4 1079   6.418   3.792   7.563 -2.1992 -0.6654  1.2650
   38bbb     C3 1080   6.319   4.123   7.601  0.1511  0.2695 -0.2872
   38bbb     H5 1081   6.345   4.175   7.508 -0.6437 -0.1415 -0.7455
   38bbb     H6 1082   6.341   4.194   7.681  1.1099 -0.2317 -0.1002
   38bbb     C4 1083   6.169   4.094   7.629 -0.4239  0.6845 -0.0421
   38bbb     H7 1084   6.118   4.033   7.555  2.1269  0.3684 -1.5967
   38bbb     H8 1085   6.115   4.190   7.624  0.2246  0.9324 -2.5419
   38bbb     C5 1086   6.657   3.937   7.657 -1.2663 -0.2441 -0.4523
   38bbb     H9 1087   6.748   3.949   7.596 -1.8085  0.4817 -1.1293
   38bbb    H10 1088   6.627   3.832   7.651 -0.0806 -0.5800 -0.6854
   38bbb     C6 1089   6.396   3.893   7.378  0.4837  0.1370  0.3098
   38bbb    H11 1090   6.503   3.887   7.358  0.6890  2.6071  0.5570
   38bbb    H12 1091   6.358   3.988   7.337  0.7903  0.1562  0.0658
   38bbb     C7 1092   6.150   4.033   7.769  0.4863  0.0100  0.0461
   38bbb    H13 1093   6.184   4.098   7.851 -0.2378 -0.2019  0.5263
   38bbb    H14 1094   6.200   3.936   7.778  1.3235  0.2628 -1.8566
   38bbb     C8 1095   6.336   3.771   7.300  0.3459 -0.0350  0.6676
   38bbb    H15 1096   6.229   3.754   7.315  0.1511 -0.0140 -0.7124
   38bbb    H16 1097   6.393   3.681   7.325 -0.8337 -1.1848 -0.7294
   38bbb     C9 1098   6.711   3.965   7.806  0.6073 -0.1985  0.1049
   38bbb    H17 1099   6.623   3.975   7.870 -0.5062 -0.1737 -1.4151
   38bbb    H18 1100   6.765   4.060   7.804  1.5163 -0.7227 -2.4729
   38bbb     O1 1101   6.015   3.995   7.787  0.7041  0.4345 -0.1206
   39bbb     N1 1102   5.105   5.543   9.510  0.0782  0.3426 -0.5455
   39bbb     C1 1103   5.096   5.476   9.378 -0.0041 -0.7205  0.3816
   39bbb     H1 1104   5.173   5.398   9.366  1.8518  1.2710 -0.9450
   39bbb     H2 1105   5.116   5.553   9.303 -0.0205 -2.0460 -1.0021
   39bbb     C2 1106   5.238   5.602   9.537 -0.5810  0.6205  0.0112
   39bbb     H3 1107   5.309   5.520   9.548 -0.7821  0.5287  0.6399
   39bbb     H4 1108   5.244   5.649   9.636 -3.4455 -0.4261  0.7387
   39bbb     C3 1109   5.052   5.459   9.624 -0.2400 -0.1167 -0.2391
   39bbb     H5 1110   5.127   5.381   9.638  0.2883  0.5981  1.0797
   39bbb     H6 1111   4.958   5.408   9.600 -0.1970  0.1926 -1.0675
   39bbb     C4 1112   5.029   5.523   9.764 -0.5834  0.0825  0.1818
   39bbb     H7 1113   4.991   5.625   9.752  0.8846  0.7882  1.4645
   39bbb     H8 1114   5.123   5.521   9.820 -1.0496  1.3917  1.0288
   39bbb     C5 1115   4.954   5.417   9.350 -0.7714 -0.2503 -0.1209
   39bbb     H9 1116   4.879   5.484   9.392  1.0909  2.7706 -1.4935
   39bbb    H10 1117   4.937   5.319   9.397  0.4133 -0.9252 -1.0497
   39bbb     C6 1118   5.293   5.690   9.422 -0.0270 -0.6392 -0.1194
   39bbb    H11 1119   5.286   5.652   9.320 -0.3594 -3.8947  1.0662
   39bbb    H12 1120   5.401   5.699   9.440 -0.5528  1.5462  2.2536
   39bbb     C7 1121   4.920   5.452   9.843 -0.1543 -0.6052  0.1373
   39bbb    H13 1122   4.820   5.462   9.799  0.8393 -1.2178 -2.3325
   39bbb    H14 1123   4.927   5.494   9.945  0.9928  1.8202 -0.9076
   39bbb     C8 1124   5.230   5.836   9.420  0.0310  0.2457 -0.2577
   39bbb    H15 1125   5.230   5.875   9.523  1.1998 -0.1467 -0.0997
   39bbb    H16 1126   5.126   5.830   9.388  0.2186  0.4361 -0.9061
   39bbb     C9 1127   4.929   5.407   9.201 -0.6332 -0.6170 -0.4157
   39bbb    H17 1128   4.973   5.499   9.162 -0.1184  0.0677  1.6819
   39bbb    H18 1129   4.822   5.420   9.180 -0.4338  0.8536 -0.5491
   39bbb     O1 1130   4.939   5.307   9.850  0.1576  0.7194 -0.7740
   40bbb     N1 1131   4.445   4.311   9.273  0.1375  0.4411  0.3257
   40bbb     C1 1132   4.395   4.181   9.320  0.1541  0.1583  0.6615
   40bbb     H1 1133   4.366   4.187   9.426 -1.5644  0.9139  0.1536
   40bbb     H2 1134   4.471   4.103   9.302  2.3373  2.4618 -0.3097
   40bbb     C2 1135   4.534   4.314   9.151 -1.1597 -0.0384 -0.3413
   40bbb     H3 1136   4.519   4.414   9.109  0.1669  1.4898  2.6191
   40bbb     H4 1137   4.492   4.242   9.079 -1.7558 -1.5262  1.4458
   40bbb     C3 1138   4.469   4.409   9.378 -0.4052 -0.8422  0.2176
   40bbb     H5 1139   4.571   4.403   9.418 -0.2720  1.3460  0.2738
   40bbb     H6 1140   4.401   4.392   9.462  0.5083  0.6049  1.2816
   40bbb     C4 1141   4.440   4.559   9.329  0.6008 -0.3310  0.9641
   40bbb     H7 1142   4.343   4.563   9.277  2.2783  1.2268 -2.1413
   40bbb     H8 1143   4.508   4.583   9.247 -0.6545 -0.5406 -0.1534
   40bbb     C5 1144   4.266   4.146   9.243 -0.7400  0.7182 -0.2165
   40bbb     H9 1145   4.270   4.149   9.134 -1.4525 -1.7469 -0.3409
   40bbb    H10 1146   4.187   4.215   9.273 -1.3749 -1.5314  3.7479
   40bbb     C6 1147   4.677   4.281   9.186 -0.1805 -0.9196 -0.2948
   40bbb    H11 1148   4.678   4.190   9.248  2.2257 -2.0495 -1.9361
   40bbb    H12 1149   4.721   4.359   9.249 -0.1024  0.8059 -2.4613
   40bbb     C7 1150   4.445   4.665   9.435  0.7724 -0.1545  0.7092
   40bbb    H13 1151   4.392   4.629   9.525  0.7284  3.6666  2.2967
   40bbb    H14 1152   4.403   4.763   9.412 -0.8004 -0.7912  0.7697
   40bbb     C8 1153   4.776   4.272   9.064  0.2074  0.5778 -0.5446
   40bbb    H15 1154   4.781   4.372   9.019 -2.7209  0.6148 -0.8648
   40bbb    H16 1155   4.735   4.214   8.980  0.0424  4.3158 -3.1947
   40bbb     C9 1156   4.219   3.998   9.268 -0.6488  0.0355  0.5219
   40bbb    H17 1157   4.124   3.982   9.214 -2.2463 -0.1690  3.2814
   40bbb    H18 1158   4.197   3.990   9.376 -0.2017  0.4303  0.6403
   40bbb     O1 1159   4.580   4.660   9.472 -0.4943  0.2164 -0.1219
   41bbb     N1 1160   4.026   3.557  10.522 -0.8746  0.6783  0.7713
   41bbb     C1 1161   3.983   3.694  10.568 -0.0667  0.1882  0.2121
   41bbb     H1 1162   4.063   3.747  10.622 -0.4489 -0.7211  1.7194
   41bbb     H2 1163   3.902   3.687  10.643  0.2569 -2.8443  0.3434
   41bbb     C2 1164   3.924   3.469  10.459 -0.7919  0.7634 -0.0805
   41bbb     H3 1165   3.955   3.365  10.448  0.5257  1.1445 -0.0593
   41bbb     H4 1166   3.891   3.509  10.362  0.5935  2.4438  0.1152
   41bbb     C3 1167   4.152   3.557  10.445 -0.7403  0.5323  0.5319
   41bbb     H5 1168   4.217   3.625  10.501  1.7116  0.4837 -2.1573
   41bbb     H6 1169   4.126   3.598  10.346  0.0074 -0.4080 -0.0594
   41bbb     C4 1170   4.226   3.419  10.442  0.2121  0.9442  0.0577
   41bbb     H7 1171   4.147   3.346  10.422  0.7201  0.6161 -0.7413
   41bbb     H8 1172   4.272   3.408  10.541  0.2270  0.5390  0.0026
   41bbb     C5 1173   3.938   3.792  10.453  0.1770  0.2616 -0.2487
   41bbb     H9 1174   3.845   3.761  10.405  0.2623  0.8330 -0.7965
   41bbb    H10 1175   4.011   3.798  10.370 -1.7144  0.2141 -1.9428
   41bbb     C6 1176   3.782   3.461  10.521  0.6576  0.0967 -0.0158
   41bbb    H11 1177   3.733   3.558  10.503 -1.3706 -1.2955 -2.2906
   41bbb    H12 1178   3.781   3.442  10.629  0.7780 -0.3471 -0.0949
   41bbb     C7 1179   4.318   3.412  10.320  0.4503 -0.6438 -0.3288
   41bbb    H13 1180   4.373   3.317  10.328  1.0372 -0.3730 -1.0388
   41bbb    H14 1181   4.388   3.496  10.317  1.8776 -1.7758  0.3929
   41bbb     C8 1182   3.695   3.350  10.450 -0.4253  0.0330 -0.1117
   41bbb    H15 1183   3.741   3.250  10.455 -1.4587 -0.6615 -3.3607
   41bbb    H16 1184   3.674   3.385  10.349 -0.2225 -0.9818 -0.5161
   41bbb     C9 1185   3.928   3.946  10.501  0.9530  0.0843  0.1233
   41bbb    H17 1186   3.950   4.006  10.411  0.6787  0.7034  0.4702
   41bbb    H18 1187   4.004   3.967  10.577 -1.1808  0.5807  2.1500
   41bbb     O1 1188   4.238   3.408  10.196  0.2980 -0.5713  0.4221
   42bbb     N1 1189   3.252   3.600  10.089 -0.8126  0.0554 -0.0766
   42bbb     C1 1190   3.198   3.553  10.217 -0.0177 -0.1554 -0.6931
   42bbb     H1 1191   3.283   3.516  10.276 -0.4241  0.3801  0.2460
   42bbb     H2 1192   3.132   3.465  10.212 -1.2792  0.5682  2.2166
   42bbb     C2 1193   3.156   3.633   9.981  0.1094  0.8046  0.3664
   42bbb     H3 1194   3.055   3.598  10.003  0.3035  0.9459  1.5062
   42bbb     H4 1195   3.185   3.585   9.887 -0.1559  1.9922 -0.3259
   42bbb     C3 1196   3.382   3.536  10.056 -0.6183 -0.7301 -0.4428
   42bbb     H5 1197   3.399   3.564   9.951 -0.8045 -1.2197 -0.6027
   42bbb     H6 1198   3.376   3.428  10.069 -0.7904 -0.5602  0.9639
   42bbb     C4 1199   3.507   3.585  10.140  0.2377  0.1117  0.0130
   42bbb     H7 1200   3.587   3.510  10.135  0.0980 -0.0704  0.4224
   42bbb     H8 1201   3.486   3.594  10.248 -4.2272 -1.4403 -0.6034
   42bbb     C5 1202   3.125   3.651  10.297 -0.2062 -0.2725 -0.2433
   42bbb     H9 1203   3.093   3.608  10.393  0.4149  0.7269  0.4341
   42bbb    H10 1204   3.035   3.671  10.238  1.1281 -0.5341 -2.4422
   42bbb     C6 1205   3.163   3.776   9.936 -0.0295  0.5624  1.1504
   42bbb    H11 1206   3.261   3.812   9.904 -1.6569  3.4011 -0.8695
   42bbb    H12 1207   3.138   3.843  10.019  0.2367  1.4781  0.5045
   42bbb     C7 1208   3.561   3.719  10.092 -0.2518  0.5232  0.7046
   42bbb    H13 1209   3.498   3.794  10.142 -0.0190  0.7161  0.7110
   42bbb    H14 1210   3.544   3.732   9.984 -2.8348 -2.8990  0.6334
   42bbb     C8 1211   3.069   3.802   9.813  0.2184  0.3006 -0.2585
   42bbb    H15 1212   3.106   3.760   9.718 -1.4040 -1.6308 -0.0804
   42bbb    H16 1213   3.065   3.908   9.785  0.3242  0.5125  0.5184
   42bbb     C9 1214   3.214   3.772  10.345 -0.0747 -0.0521  0.1889
   42bbb    H17 1215   3.227   3.833  10.255 -1.6878  0.1752  0.0971
   42bbb    H18 1216   3.306   3.734  10.391 -0.7333 -1.7351  0.1732
   42bbb     O1 1217   3.702   3.718  10.119 -0.4504 -0.3774 -0.3116
   43bbb     N1 1218   5.668   4.222   8.258  0.3861 -0.2155 -0.6417
   43bbb     C1 1219   5.808   4.215   8.195 -0.2962  0.3411  0.0970
   43bbb     H1 1220   5.801   4.283   8.109 -1.2230  0.8867  0.5958
   43bbb     H2 1221   5.822   4.119   8.143 -2.5100  0.4552 -0.7759
   43bbb     C2 1222   5.658   4.315   8.373  0.1333 -0.7182 -0.2431
   43bbb     H3 1223   5.733   4.303   8.452  0.9026 -1.0893 -1.0282
   43bbb     H4 1224   5.567   4.278   8.423  0.2071 -1.3706 -0.5941
   43bbb     C3 1225   5.552   4.213   8.172  0.1800 -0.1945  0.2386
   43bbb     H5 1226   5.572   4.123   8.113  1.9827 -0.7668  1.6952
   43bbb     H6 1227   5.551   4.288   8.091 -0.3703  0.8683  1.2082
   43bbb     C4 1228   5.409   4.224   8.238 -0.3089  0.5876 -0.3252
   43bbb     H7 1229   5.394   4.321   8.287  5.1134  0.4875  1.7806
   43bbb     H8 1230   5.399   4.157   8.325 -0.4462  0.4488 -0.4457
   43bbb     C5 1231   5.937   4.263   8.271 -0.4608  0.0711 -1.1140
   43bbb     H9 1232   5.921   4.361   8.318 -0.4947  0.2290 -1.4612
   43bbb    H10 1233   6.011   4.278   8.192  1.6564  1.8331  1.1256
   43bbb     C6 1234   5.656   4.464   8.335 -0.0243 -0.0248  0.5784
   43bbb    H11 1235   5.562   4.486   8.283  0.1108 -0.1539  0.2824
   43bbb    H12 1236   5.743   4.489   8.273 -1.3901 -1.1293 -1.8351
   43bbb     C7 1237   5.304   4.203   8.129  0.3758 -0.0341 -0.3403
   43bbb    H13 1238   5.324   4.105   8.083  1.2517  0.7505 -1.6741
   43bbb    H14 1239   5.300   4.275   8.047 -2.0982 -0.3609 -0.5405
   43bbb     C8 1240   5.668   4.555   8.457 -0.6169  0.7719 -0.2441
   43bbb    H15 1241   5.678   4.657   8.418 -1.1906  1.0122  0.2204
   43bbb    H16 1242   5.762   4.530   8.508 -1.3437 -1.7717 -0.0605
   43bbb     C9 1243   5.983   4.162   8.380  0.5023 -0.8895 -0.5969
   43bbb    H17 1244   6.013   4.069   8.330 -0.8214 -0.5450 -2.0510
   43bbb    H18 1245   5.893   4.146   8.440  1.0354  0.0950  0.4883
   43bbb     O1 1246   5.171   4.201   8.200  0.1219 -0.0604  0.2740
   44bbb     N1 1247   4.427   4.093   7.200 -0.0532 -0.4334  0.2248
   44bbb     C1 1248   4.290   4.062   7.155  0.4299  0.1717 -0.5924
   44bbb     H1 1249   4.263   4.119   7.066  1.9358  0.5841 -0.8074
   44bbb     H2 1250   4.213   4.090   7.227  0.6269 -1.2841  0.2114
   44bbb     C2 1251   4.540   4.062   7.099 -0.1590 -0.2252 -0.2964
   44bbb     H3 1252   4.523   3.967   7.046 -0.4263 -0.6746  0.5755
   44bbb     H4 1253   4.633   4.064   7.157 -1.6503 -0.0081  2.1604
   44bbb     C3 1254   4.436   4.230   7.265  0.0291 -0.0657 -0.4126
   44bbb     H5 1255   4.340   4.250   7.314  0.1436 -1.9625  0.6049
   44bbb     H6 1256   4.444   4.318   7.200  0.1577 -0.0192 -0.3329
   44bbb     C4 1257   4.548   4.253   7.369  0.2150  0.1187  0.4648
   44bbb     H7 1258   4.527   4.347   7.422  2.9126 -0.5369  2.7876
   44bbb     H8 1259   4.637   4.289   7.316 -0.2278  0.3498 -0.1261
   44bbb     C5 1260   4.273   3.919   7.121  0.2996 -0.6611 -0.7575
   44bbb     H9 1261   4.325   3.855   7.193  1.3947 -0.9259 -1.7608
   44bbb    H10 1262   4.318   3.895   7.024  0.9021 -0.6168 -0.4951
   44bbb     C6 1263   4.556   4.173   6.992 -0.2508  0.3329  0.8816
   44bbb    H11 1264   4.602   4.259   7.041  0.9929 -0.8376  1.8106
   44bbb    H12 1265   4.453   4.201   6.964 -0.7031  0.1503  2.3232
   44bbb     C7 1266   4.567   4.136   7.468 -0.1043  0.6807 -0.2370
   44bbb    H13 1267   4.638   4.063   7.428  1.6978  1.7570  0.9324
   44bbb    H14 1268   4.470   4.089   7.492  0.9100 -0.8656  0.9416
   44bbb     C8 1269   4.619   4.106   6.859  0.3444 -0.2479  0.3323
   44bbb    H15 1270   4.558   4.020   6.830  1.8017 -1.4184  0.7011
   44bbb    H16 1271   4.716   4.059   6.880  0.2114 -0.8383 -0.3678
   44bbb     C9 1272   4.121   3.897   7.106 -0.5253  0.2642  0.5056
   44bbb    H17 1273   4.076   3.925   7.202  1.5734  0.0541  1.5816
   44bbb    H18 1274   4.091   3.965   7.025 -0.3309  0.7990  0.8747
   44bbb     O1 1275   4.614   4.193   7.591 -0.6328 -0.6659 -0.4299
   45bbb     N1 1276   3.746   3.756   8.382  0.0881 -0.4837 -0.5943
   45bbb     C1 1277   3.887   3.740   8.352  0.8704  0.2240 -0.1708
   45bbb     H1 1278   3.884   3.682   8.259  0.4852  0.1044 -0.0868
   45bbb     H2 1279   3.943   3.682   8.426  0.2685  0.5890  0.5854
   45bbb     C2 1280   3.739   3.827   8.512  0.1706 -0.6612 -0.4969
   45bbb     H3 1281   3.660   3.904   8.508  0.9356  0.0966 -1.3164
   45bbb     H4 1282   3.826   3.882   8.548 -0.1769 -0.1678 -0.4024
   45bbb     C3 1283   3.666   3.820   8.274  0.4523  0.2372 -0.1095
   45bbb     H5 1284   3.706   3.792   8.176  1.4928 -1.0129  0.6578
   45bbb     H6 1285   3.690   3.927   8.279 -3.2499  1.1077  0.2250
   45bbb     C4 1286   3.511   3.804   8.298  0.3392 -0.0985 -0.2515
   45bbb     H7 1287   3.496   3.831   8.403  0.7104 -1.6044  0.2119
   45bbb     H8 1288   3.481   3.699   8.281  0.2967 -0.1187 -0.0541
   45bbb     C5 1289   3.974   3.868   8.321  1.0101 -0.1562  0.0432
   45bbb     H9 1290   3.971   3.936   8.408  0.2961 -1.2627  0.8951
   45bbb    H10 1291   3.947   3.916   8.226  1.0779 -3.1874 -1.5660
   45bbb     C6 1292   3.712   3.734   8.623  1.0835 -0.0330  0.5697
   45bbb    H11 1293   3.805   3.676   8.625  1.5799  0.6781 -0.9286
   45bbb    H12 1294   3.640   3.657   8.592  0.7427  0.1594  0.8788
   45bbb     C7 1295   3.425   3.903   8.209 -0.2305 -0.8474  0.3095
   45bbb    H13 1296   3.317   3.911   8.228  0.2990  1.6553  2.5283
   45bbb    H14 1297   3.426   3.870   8.104  0.5068 -2.7980  0.9054
   45bbb     C8 1298   3.665   3.798   8.748 -0.9902  0.1599 -0.3047
   45bbb    H15 1299   3.579   3.863   8.730 -2.0747 -1.2938 -0.4425
   45bbb    H16 1300   3.747   3.864   8.781 -1.2578 -0.5440  1.9023
   45bbb     C9 1301   4.124   3.828   8.298 -0.0430  0.8627 -0.1882
   45bbb    H17 1302   4.163   3.773   8.384  0.0073  2.0959  0.5956
   45bbb    H18 1303   4.181   3.921   8.286 -2.0178  2.0426 -0.5805
   45bbb     O1 1304   3.479   4.034   8.214  0.1712  0.5030  0.3440
   46bbb     N1 1305   3.761   3.994   9.473 -0.0864  0.6902  0.2296
   46bbb     C1 1306   3.699   3.940   9.594  0.1595 -0.6533 -0.6302
   46bbb     H1 1307   3.774   3.910   9.669  0.0980  0.6295 -0.0433
   46bbb     H2 1308   3.648   3.844   9.579  0.2652 -0.5386 -1.7558
   46bbb     C2 1309   3.848   4.107   9.490  0.0754  0.0185  0.4063
   46bbb     H3 1310   3.782   4.193   9.507  0.3834  0.7944 -2.0811
   46bbb     H4 1311   3.889   4.136   9.392 -0.6930 -1.1528 -0.2677
   46bbb     C3 1312   3.676   3.999   9.353 -0.0414  0.3875  0.5595
   46bbb     H5 1313   3.611   4.088   9.357 -2.2531 -1.1180 -0.6720
   46bbb     H6 1314   3.615   3.908   9.356 -0.9283  0.9925  1.3655
   46bbb     C4 1315   3.749   4.005   9.211  0.6747  0.1221 -0.2780
   46bbb     H7 1316   3.823   3.925   9.198  1.2876  0.2990  1.9760
   46bbb     H8 1317   3.815   4.092   9.215 -1.3989  1.6816  0.5494
   46bbb     C5 1318   3.591   4.034   9.655  0.8939 -0.2499  0.3625
   46bbb     H9 1319   3.514   4.047   9.577  1.1304 -3.8957 -0.6043
   46bbb    H10 1320   3.620   4.138   9.672 -2.3037  0.5711  1.2721
   46bbb     C6 1321   3.952   4.101   9.601 -0.8076 -0.2202  0.4250
   46bbb    H11 1322   4.037   4.156   9.559 -0.2585 -0.8412  0.7206
   46bbb    H12 1323   3.977   3.994   9.601 -0.4839 -0.1592 -1.5909
   46bbb     C7 1324   3.650   4.006   9.090  0.9898 -0.3186  0.3055
   46bbb    H13 1325   3.552   3.976   9.131  0.5911  1.1657  0.4561
   46bbb    H14 1326   3.689   3.938   9.013  0.8977  3.0331 -2.7964
   46bbb     C8 1327   3.911   4.153   9.743 -0.8029 -0.3252  0.6477
   46bbb    H15 1328   3.836   4.083   9.781 -0.0056 -0.4470  2.0335
   46bbb    H16 1329   3.877   4.257   9.730 -0.4255 -0.2981 -0.1563
   46bbb     C9 1330   3.504   3.975   9.777 -0.1274  0.6846  0.3984
   46bbb    H17 1331   3.573   3.953   9.859 -0.5759 -0.6397  0.4239
   46bbb    H18 1332   3.454   3.884   9.745  1.6256 -0.2565  0.2758
   46bbb     O1 1333   3.650   4.136   9.043  0.6340  0.1993 -0.1032
   47ccc     C1 1334   2.720   3.039   9.010  0.8791  0.4744  0.0881
   47ccc     H1 1335   2.728   3.034   9.120  2.6542  0.1693 -0.0451
   47ccc     H2 1336   2.816   3.077   8.974 -0.6340  1.2047 -3.3296
   47ccc     C2 1337   2.617   3.145   8.975 -0.9926 -0.5191 -0.2303
   47ccc     H3 1338   2.517   3.101   8.992 -0.0375 -1.6783  2.5894
   47ccc     H4 1339   2.627   3.169   8.868 -0.3375 -2.8194 -0.7202
   47ccc     C3 1340   2.623   3.283   9.050 -0.1249  0.0943 -0.4195
   47ccc     H5 1341   2.586   3.363   8.985  0.1193  0.0173 -0.6532
   47ccc     H6 1342   2.727   3.319   9.050 -0.1050  0.0459 -0.0946
   47ccc     N1 1343   2.571   3.276   9.186  0.0276  0.7163 -0.3052
   47ccc     C4 1344   2.445   3.355   9.199 -0.2876 -1.1270 -0.0976
   47ccc     H7 1345   2.380   3.319   9.117  1.5065  0.9141 -2.4826
   47ccc     H8 1346   2.461   3.460   9.173 -0.9013 -0.4967  1.9836
   47ccc     C5 1347   2.362   3.326   9.327  0.0316 -0.5145 -0.2859
   47ccc     H9 1348   2.334   3.220   9.325 -2.0692 -0.0430  1.7108
   47ccc    H10 1349   2.421   3.326   9.419  0.2299  1.0860 -0.4036
   47ccc     C6 1350   2.243   3.427   9.337 -0.0580 -0.0433  0.2206
   47ccc     O1 1351   2.169   3.445   9.241 -0.1632 -0.5324 -0.2625
   47ccc     O2 1352   2.233   3.502   9.441 -1.0260 -0.0008 -0.4272
   47ccc    H11 1353   2.286   3.452   9.505  0.1292 -1.2531 -2.3060
   47ccc     C7 1354   2.674   3.295   9.295  0.6636  0.1453  0.2531
   47ccc    H12 1355   2.637   3.244   9.385  0.2461  0.4284  0.2437
   47ccc    H13 1356   2.771   3.265   9.252  0.6564  2.0045 -1.1244
   47ccc     C8 1357   2.697   3.443   9.343  0.4997 -0.2721 -0.1981
   47ccc    H14 1358   2.730   3.511   9.263  0.6459  0.0782  0.1551
   47ccc    H15 1359   2.609   3.494   9.382 -1.8736 -3.0442 -1.7304
   47ccc     C9 1360   2.793   3.444   9.455  0.6020 -0.4106 -0.0374
   47ccc     O3 1361   2.854   3.349   9.493 -0.2370  0.0212  0.3550
   47ccc     O4 1362   2.812   3.563   9.518  0.0556 -0.0343 -0.2922
   47ccc    H16 1363   2.757   3.623   9.465 -1.4476 -1.3119 -0.2442
   47ccc     O5 1364   2.680   2.921   8.947 -0.2129  0.1588  0.2506
   48ccc     C1 1365   2.552   2.856   9.333 -0.1265  0.7445 -0.1738
   48ccc     H1 1366   2.595   2.918   9.413 -0.3905  0.1192  0.4507
   48ccc     H2 1367   2.630   2.847   9.256 -0.2240  2.4717 -0.4994
   48ccc     C2 1368   2.444   2.945   9.276  0.3944  0.5819  0.6857
   48ccc     H3 1369   2.501   3.034   9.247 -0.8772  0.7999 -1.2293
   48ccc     H4 1370   2.374   2.960   9.359  0.4796  2.8788  0.3754
   48ccc     C3 1371   2.367   2.877   9.153  0.2531 -0.0039 -0.0962
   48ccc     H5 1372   2.311   2.793   9.193  0.2421  0.3436  0.6253
   48ccc     H6 1373   2.447   2.849   9.082 -0.2757  2.0060 -1.5345
   48ccc     N1 1374   2.266   2.959   9.081  0.4056 -0.4498 -0.3430
   48ccc     C4 1375   2.166   3.022   9.168  0.5416 -0.1442 -0.1889
   48ccc     H7 1376   2.211   3.071   9.256 -0.7649  1.2124 -0.2657
   48ccc     H8 1377   2.095   2.951   9.210  0.9327 -1.3908 -1.5976
   48ccc     C5 1378   2.092   3.140   9.106  0.2089  0.0145  0.8372
   48ccc     H9 1379   2.037   3.108   9.016 -1.1647 -0.5517  1.8526
   48ccc    H10 1380   2.167   3.217   9.083  1.3097 -1.2499  0.1659
   48ccc     C6 1381   1.989   3.199   9.203 -0.8005 -0.0822  0.7106
   48ccc     O1 1382   1.971   3.160   9.318  0.4716  0.0260 -0.0715
   48ccc     O2 1383   1.898   3.275   9.137  0.4246  0.1732  0.6525
   48ccc    H11 1384   1.955   3.298   9.062 -0.0319 -1.1056 -0.1051
   48ccc     C7 1385   2.207   2.901   8.961 -0.1656 -0.0869 -0.0251
   48ccc    H12 1386   2.168   2.804   8.994 -0.9053  0.7912  1.7822
   48ccc    H13 1387   2.135   2.964   8.908 -0.5325  2.0704  2.8772
   48ccc     C8 1388   2.312   2.882   8.851  0.5590  0.1342  1.3319
   48ccc    H14 1389   2.378   2.967   8.830  0.9632 -0.0717  1.7605
   48ccc    H15 1390   2.381   2.810   8.896 -0.6427 -2.3840 -0.7266
   48ccc     C9 1391   2.267   2.814   8.721  0.6699  0.5393  0.3280
   48ccc     O3 1392   2.181   2.865   8.645 -0.0282 -0.1302 -0.5193
   48ccc     O4 1393   2.299   2.684   8.707  0.2689  0.2408 -0.1012
   48ccc    H16 1394   2.295   2.657   8.800 -0.4091  1.1895  0.1517
   48ccc     O5 1395   2.508   2.723   9.362  0.2270  0.0226  0.2874
   49ccc     C1 1396   3.256   2.674   9.490 -0.3476 -1.2904 -0.6658
   49ccc     H1 1397   3.239   2.771   9.538  0.5700 -1.1149 -0.6816
   49ccc     H2 1398   3.349   2.680   9.432  0.4385 -0.1283  0.6664
   49ccc     C2 1399   3.128   2.634   9.403  0.0896 -0.7135 -0.5247
   49ccc     H3 1400   3.039   2.667   9.457  0.1151 -3.5162  1.2825
   49ccc     H4 1401   3.131   2.529   9.372 -0.2722 -0.6384 -0.8205
   49ccc     C3 1402   3.110   2.710   9.267  0.5268  0.0623 -0.1560
   49ccc     H5 1403   3.021   2.678   9.211  0.5875 -1.0826  0.4029
   49ccc     H6 1404   3.195   2.680   9.204  0.3878 -0.7591  0.0440
   49ccc     N1 1405   3.106   2.859   9.288 -0.0595  0.1351  0.4357
   49ccc     C4 1406   2.972   2.912   9.334 -0.2908  0.2899  0.1199
   49ccc     H7 1407   2.922   2.837   9.396  0.6564 -1.0942 -0.7575
   49ccc     H8 1408   2.903   2.940   9.253  3.5432  0.8830 -3.1235
   49ccc     C5 1409   2.980   3.047   9.408  0.5957 -1.1017  0.4012
   49ccc     H9 1410   2.887   3.077   9.457  0.8942  0.8748 -0.2286
   49ccc    H10 1411   2.998   3.123   9.331 -0.3727 -0.2612  0.9989
   49ccc     C6 1412   3.085   3.049   9.522  0.4450  1.1415 -0.0593
   49ccc     O1 1413   3.086   2.960   9.606  0.3101 -0.0369 -0.4549
   49ccc     O2 1414   3.148   3.170   9.525 -0.0544 -0.1170 -0.2041
   49ccc    H11 1415   3.112   3.224   9.452 -0.9414 -0.8238 -0.2918
   49ccc     C7 1416   3.162   2.933   9.172 -0.3135 -0.3551  0.1521
   49ccc    H12 1417   3.113   2.918   9.075 -4.0045  0.6203  1.7333
   49ccc    H13 1418   3.137   3.040   9.173  1.9472  0.1968 -0.0784
   49ccc     C8 1419   3.313   2.929   9.158 -0.2443  0.2841 -0.2857
   49ccc    H14 1420   3.355   2.946   9.258  1.1941 -0.0291 -0.8260
   49ccc    H15 1421   3.342   2.826   9.132 -1.3964 -0.2203  0.3414
   49ccc     C9 1422   3.368   3.022   9.051  0.7522 -0.4658 -0.1359
   49ccc     O3 1423   3.295   3.090   8.980 -0.7392 -0.3092  0.0641
   49ccc     O4 1424   3.493   3.061   9.066 -0.0295 -0.0023 -0.1862
   49ccc    H16 1425   3.539   2.988   9.110 -1.6119  0.4373  2.2871
   49ccc     O5 1426   3.266   2.574   9.595 -0.2510  0.0067 -0.3729
   50ccc     C1 1427   3.681   1.880   9.260  0.1756 -0.2848 -0.2343
   50ccc     H1 1428   3.718   1.784   9.298  0.8571 -0.1054 -0.4513
   50ccc     H2 1429   3.575   1.868   9.234 -0.0584  1.0239  0.1113
   50ccc     C2 1430   3.742   1.936   9.137 -0.4677  0.7422 -0.1674
   50ccc     H3 1431   3.675   2.017   9.106  0.3130  1.8069  0.8819
   50ccc     H4 1432   3.727   1.856   9.063  1.3725  0.7325 -0.5459
   50ccc     C3 1433   3.892   1.980   9.150 -0.0102  0.1320 -0.4008
   50ccc     H5 1434   3.953   1.911   9.211 -2.0914 -2.6915 -1.3989
   50ccc     H6 1435   3.895   2.072   9.209 -0.8344  0.1826 -0.4237
   50ccc     N1 1436   3.977   1.986   9.030 -0.3933 -0.0358 -0.2654
   50ccc     C4 1437   4.105   2.059   9.039 -0.1845  0.1721  0.0039
   50ccc     H7 1438   4.172   1.994   9.097 -1.3572 -0.7340  0.3490
   50ccc     H8 1439   4.094   2.157   9.086  2.8012  1.3414 -1.5596
   50ccc     C5 1440   4.160   2.098   8.893  0.5865  0.6999 -0.1539
   50ccc     H9 1441   4.196   2.009   8.839  0.2208  0.7405 -0.4576
   50ccc    H10 1442   4.079   2.145   8.836  0.1596  0.6198  0.3759
   50ccc     C6 1443   4.283   2.187   8.907 -0.0419 -0.5865 -0.0824
   50ccc     O1 1444   4.311   2.255   9.006 -0.2171  1.2115 -0.1876
   50ccc     O2 1445   4.356   2.203   8.795 -0.4497 -0.2874  0.1002
   50ccc    H11 1446   4.315   2.156   8.720  0.1616 -0.1874 -0.3020
   50ccc     C7 1447   3.971   1.866   8.947 -0.3524 -0.7178 -0.4815
   50ccc    H12 1448   3.875   1.862   8.895  0.4621  1.8478 -2.2505
   50ccc    H13 1449   4.039   1.875   8.862 -0.1708  3.7063  0.0413
   50ccc     C8 1450   4.008   1.733   9.014  0.1323  0.0798 -0.0454
   50ccc    H14 1451   4.099   1.757   9.072  1.0457 -2.7740 -0.2078
   50ccc    H15 1452   3.936   1.698   9.089 -1.0508 -1.2649 -1.7799
   50ccc     C9 1453   4.050   1.623   8.918 -0.2542 -0.1590  0.3807
   50ccc     O3 1454   4.138   1.636   8.836 -0.2021 -0.2732 -0.3805
   50ccc     O4 1455   3.973   1.519   8.910  0.0916 -0.0484  0.1310
   50ccc    H16 1456   3.901   1.542   8.971 -0.7324  2.0080 -1.5688
   50ccc     O5 1457   3.696   1.978   9.374  0.3680 -0.4582 -0.2333
   51ccc     C1 1458   2.770   3.378   8.689 -0.2087  0.2942 -0.2678
   51ccc     H1 1459   2.719   3.348   8.781  0.1168 -0.3767 -0.2976
   51ccc     H2 1460   2.840   3.460   8.707 -0.2335  0.8237 -2.3698
   51ccc     C2 1461   2.664   3.422   8.591 -0.0558 -0.5592 -0.1973
   51ccc     H3 1462   2.713   3.445   8.495  0.5641  0.2041  0.2992
   51ccc     H4 1463   2.604   3.508   8.620 -0.5053 -0.8850 -0.1604
   51ccc     C3 1464   2.555   3.313   8.563  0.3433  0.4131 -0.7035
   51ccc     H5 1465   2.495   3.290   8.652 -1.1939  2.1443 -1.2673
   51ccc     H6 1466   2.612   3.221   8.546 -1.2667 -0.7388  0.0333
   51ccc     N1 1467   2.460   3.345   8.449 -0.7625 -0.0173  0.7413
   51ccc     C4 1468   2.370   3.458   8.486  0.3257 -0.2221 -0.0731
   51ccc     H7 1469   2.429   3.548   8.464  1.7295 -0.9997  0.4427
   51ccc     H8 1470   2.357   3.447   8.594 -1.4466  1.2522 -0.1232
   51ccc     C5 1471   2.232   3.451   8.418  0.3864  0.2883 -0.4183
   51ccc     H9 1472   2.242   3.507   8.324  1.0828  2.0045  0.6535
   51ccc    H10 1473   2.199   3.354   8.379 -0.4984 -0.3018  1.7466
   51ccc     C6 1474   2.116   3.512   8.494  0.0847  0.0233  0.5006
   51ccc     O1 1475   2.117   3.520   8.618 -0.0418 -0.0670  0.0304
   51ccc     O2 1476   1.994   3.500   8.439  0.1012  0.1167 -0.3850
   51ccc    H11 1477   2.012   3.487   8.345 -0.5803  0.7320 -0.5985
   51ccc     C7 1478   2.521   3.353   8.312  0.0008  0.0903 -0.1683
   51ccc    H12 1479   2.608   3.419   8.308  0.7315 -0.8242  0.4134
   51ccc    H13 1480   2.449   3.393   8.239 -2.7679 -3.8419  0.2778
   51ccc     C8 1481   2.581   3.219   8.265 -0.3591 -0.2662 -0.0568
   51ccc    H14 1482   2.675   3.202   8.319  0.0339 -0.5182 -0.8178
   51ccc    H15 1483   2.511   3.138   8.293 -0.4071  0.6622  2.7144
   51ccc     C9 1484   2.609   3.227   8.119 -0.9674 -0.2705 -0.2687
   51ccc     O3 1485   2.700   3.279   8.056 -0.1005  0.1854  0.0204
   51ccc     O4 1486   2.507   3.184   8.042  0.0588 -0.1137 -0.3030
   51ccc    H16 1487   2.428   3.202   8.096  0.9500  1.2945  0.5718
   51ccc     O5 1488   2.833   3.259   8.636 -0.0101  0.0124  0.8024
   52ccc     C1 1489   2.960   2.429   8.542  0.1896  0.1098  0.0974
   52ccc     H1 1490   2.942   2.494   8.456 -0.3758  0.9010  0.7987
   52ccc     H2 1491   3.026   2.344   8.517  0.5487  0.9263 -1.7948
   52ccc     C2 1492   2.823   2.371   8.583  0.9576 -0.0785 -0.3774
   52ccc     H3 1493   2.765   2.347   8.493 -0.2978 -0.3157  0.4835
   52ccc     H4 1494   2.775   2.459   8.628  1.8959 -0.8563  2.2324
   52ccc     C3 1495   2.822   2.254   8.691 -0.2595  0.6239  0.1543
   52ccc     H5 1496   2.885   2.297   8.770  0.1234 -0.2534  0.3282
   52ccc     H6 1497   2.874   2.164   8.656  0.9047  1.2095  0.3408
   52ccc     N1 1498   2.684   2.223   8.745 -0.0073 -0.5534 -0.4175
   52ccc     C4 1499   2.569   2.200   8.648  0.6717 -0.2687  0.3875
   52ccc     H7 1500   2.569   2.283   8.576 -1.1877 -0.4771  0.1148
   52ccc     H8 1501   2.583   2.109   8.589 -2.0699 -0.0470 -0.6729
   52ccc     C5 1502   2.430   2.201   8.728 -0.2987 -0.4016 -0.9083
   52ccc     H9 1503   2.422   2.280   8.803  1.3952  0.0269 -1.1456
   52ccc    H10 1504   2.412   2.108   8.784 -3.0647  1.0437  0.6709
   52ccc     C6 1505   2.301   2.209   8.646 -0.1206  0.8398  0.4232
   52ccc     O1 1506   2.201   2.133   8.652  0.0042 -0.1074 -0.4909
   52ccc     O2 1507   2.290   2.321   8.573 -0.3508  0.0199 -0.4912
   52ccc    H11 1508   2.368   2.374   8.597 -0.0185 -0.9071  0.5077
   52ccc     C7 1509   2.687   2.121   8.852 -0.0224 -0.5502 -0.0794
   52ccc    H12 1510   2.588   2.115   8.899  0.1129  1.9367  0.6082
   52ccc    H13 1511   2.749   2.154   8.936  1.0294  0.9688 -1.4181
   52ccc     C8 1512   2.737   1.980   8.811  0.0743  0.2786 -0.7879
   52ccc    H14 1513   2.689   1.950   8.717 -3.1002  0.0039  0.8659
   52ccc    H15 1514   2.843   1.965   8.785  0.7853  0.4179  1.8567
   52ccc     C9 1515   2.701   1.874   8.915 -0.2209 -0.3758  1.2966
   52ccc     O3 1516   2.626   1.902   9.009 -0.0468 -0.8841  0.0288
   52ccc     O4 1517   2.769   1.765   8.911 -0.4151  0.2356 -0.2260
   52ccc    H16 1518   2.819   1.774   8.828 -2.2112 -0.4972 -1.4104
   52ccc     O5 1519   3.027   2.499   8.649 -0.5573  0.0717  0.1087
   53ccc     C1 1520   3.408   3.190   8.065  0.3683  0.1303 -0.2995
   53ccc     H1 1521   3.494   3.133   8.102 -0.1863 -1.0540 -0.8125
   53ccc     H2 1522   3.369   3.152   7.970 -0.7661  0.3133  0.0898
   53ccc     C2 1523   3.449   3.332   8.033 -0.3144  0.8218  0.0178
   53ccc     H3 1524   3.363   3.373   7.980 -1.1855 -0.2112  0.6230
   53ccc     H4 1525   3.531   3.337   7.960 -0.4880  1.5225 -0.1282
   53ccc     C3 1526   3.479   3.422   8.160 -0.6245 -0.1591 -0.0193
   53ccc     H5 1527   3.405   3.396   8.237  0.2498 -2.8764 -0.0352
   53ccc     H6 1528   3.474   3.529   8.137  0.9077 -0.0120  0.2453
   53ccc     N1 1529   3.614   3.398   8.212  0.3191  0.1126  0.3401
   53ccc     C4 1530   3.728   3.469   8.153 -0.5115  0.1356 -0.5433
   53ccc     H7 1531   3.809   3.449   8.224  0.9749 -0.1538 -2.2717
   53ccc     H8 1532   3.716   3.578   8.159  1.3064  0.2608  1.3355
   53ccc     C5 1533   3.783   3.419   8.020  0.9319  0.2129 -0.6675
   53ccc     H9 1534   3.784   3.309   8.018  1.6378  0.1749  0.7760
   53ccc    H10 1535   3.732   3.453   7.929 -1.2870  0.0125  0.4818
   53ccc     C6 1536   3.926   3.454   7.995 -0.4935 -0.1366 -0.2872
   53ccc     O1 1537   4.009   3.509   8.066  0.0653  0.0651 -0.4281
   53ccc     O2 1538   3.973   3.418   7.874 -0.5520 -0.0941 -0.4106
   53ccc    H11 1539   3.902   3.368   7.830 -1.4537  1.3546 -0.6284
   53ccc     C7 1540   3.609   3.377   8.361 -0.7628  0.7854 -0.2709
   53ccc    H12 1541   3.571   3.472   8.401 -0.2260  0.2061  1.7057
   53ccc    H13 1542   3.536   3.299   8.386 -0.6802  0.5881 -0.6462
   53ccc     C8 1543   3.745   3.343   8.427  0.4480  0.6394 -0.6721
   53ccc    H14 1544   3.798   3.262   8.374 -0.7908  0.1326 -1.1511
   53ccc    H15 1545   3.815   3.427   8.422  0.9604  0.4304  2.1852
   53ccc     C9 1546   3.740   3.311   8.569  0.0113 -0.1988  0.2967
   53ccc     O3 1547   3.635   3.315   8.638  0.1187  0.3550  0.2283
   53ccc     O4 1548   3.831   3.226   8.602  0.5499  0.4103 -0.0742
   53ccc    H16 1549   3.904   3.251   8.542  1.3907 -0.7789  0.4214
   53ccc     O5 1550   3.297   3.197   8.161  0.2206 -0.2584 -0.0843
   54ccc     C1 1551   2.656   2.511   8.042  0.2301  0.9582 -0.2654
   54ccc     H1 1552   2.591   2.528   8.129 -1.6707  0.5411 -1.5836
   54ccc     H2 1553   2.695   2.610   8.013 -0.6971  0.9984 -1.4203
   54ccc     C2 1554   2.561   2.451   7.936  0.0161  0.7347  0.1381
   54ccc     H3 1555   2.460   2.490   7.958 -0.6954 -0.6648 -0.5714
   54ccc     H4 1556   2.544   2.345   7.957  1.6863  0.1944 -1.1665
   54ccc     C3 1557   2.607   2.473   7.788  0.1668 -0.0566  0.8869
   54ccc     H5 1558   2.692   2.408   7.762  0.0727 -0.3352  1.2706
   54ccc     H6 1559   2.660   2.568   7.788 -2.0391  1.2145  0.4647
   54ccc     N1 1560   2.497   2.469   7.691  0.6433 -0.4354  0.3880
   54ccc     C4 1561   2.424   2.341   7.685  0.6847  0.0463 -0.1785
   54ccc     H7 1562   2.328   2.343   7.632 -0.0117 -0.6186  1.0353
   54ccc     H8 1563   2.392   2.310   7.785 -2.4665 -0.6587 -1.3399
   54ccc     C5 1564   2.502   2.224   7.616 -0.6569 -0.0081  0.4982
   54ccc     H9 1565   2.610   2.241   7.607 -0.9863  0.9593 -1.9636
   54ccc    H10 1566   2.457   2.204   7.519 -0.2597  2.0178 -0.1405
   54ccc     C6 1567   2.492   2.096   7.692  0.1167 -0.0089 -0.0398
   54ccc     O1 1568   2.392   2.060   7.758 -0.3570 -0.4183 -0.5567
   54ccc     O2 1569   2.593   2.012   7.663 -0.0155 -0.9617  0.5223
   54ccc    H11 1570   2.657   2.064   7.612 -1.7007 -0.2315 -0.9134
   54ccc     C7 1571   2.534   2.513   7.550  0.6101 -0.0438 -0.4716
   54ccc    H12 1572   2.603   2.442   7.504 -0.8636 -0.6690 -1.7626
   54ccc    H13 1573   2.443   2.527   7.491 -0.7705 -2.9116  0.9262
   54ccc     C8 1574   2.588   2.661   7.539 -0.7050 -0.0051 -0.1496
   54ccc    H14 1575   2.507   2.731   7.561  0.0309  0.3287  1.5756
   54ccc    H15 1576   2.667   2.685   7.611 -0.4794  1.3928 -0.8502
   54ccc     C9 1577   2.653   2.695   7.397  0.2996 -0.8546  0.0985
   54ccc     O3 1578   2.645   2.627   7.297 -0.1848  0.0659 -0.4610
   54ccc     O4 1579   2.720   2.812   7.385 -0.3604 -0.9027 -0.1544
   54ccc    H16 1580   2.744   2.837   7.476 -1.5433 -0.3275  0.0018
   54ccc     O5 1581   2.761   2.423   8.078 -0.6866 -0.6564  0.0530
   55ccc     C1 1582   5.770   4.368  10.310 -0.3419  0.3983 -0.0564
   55ccc     H1 1583   5.682   4.304  10.314 -1.6747  2.2075  0.1823
   55ccc     H2 1584   5.841   4.327  10.237  1.8003  2.4125  0.8035
   55ccc     C2 1585   5.836   4.377  10.445 -0.4028 -0.3872 -0.1937
   55ccc     H3 1586   5.832   4.282  10.499 -1.1834 -0.6701 -0.7508
   55ccc     H4 1587   5.789   4.453  10.509 -2.8058 -0.1394 -2.1811
   55ccc     C3 1588   5.982   4.413  10.438  0.2107 -0.0452  0.1172
   55ccc     H5 1589   6.013   4.399  10.542 -1.4689 -0.8144  0.5447
   55ccc     H6 1590   5.989   4.521  10.419  0.3821 -0.1451 -0.4023
   55ccc     N1 1591   6.054   4.310  10.352  0.2697 -0.6450  0.2643
   55ccc     C4 1592   6.069   4.168  10.405 -0.4841 -0.8551 -0.1808
   55ccc     H7 1593   6.110   4.089  10.340 -0.9130 -0.8985 -0.3993
   55ccc     H8 1594   5.971   4.130  10.435 -0.4609 -0.6930  0.1036
   55ccc     C5 1595   6.164   4.151  10.529  0.4689  0.1380 -0.0918
   55ccc     H9 1596   6.140   4.232  10.599 -2.2668  0.7313 -1.6323
   55ccc    H10 1597   6.137   4.065  10.591 -2.2713  1.0699  0.0812
   55ccc     C6 1598   6.313   4.167  10.495 -0.0195  0.4070 -0.1001
   55ccc     O1 1599   6.370   4.157  10.378  0.1474  0.0038  0.0658
   55ccc     O2 1600   6.383   4.204  10.603  0.4196  0.0719 -0.3104
   55ccc    H11 1601   6.321   4.213  10.677  0.6654 -0.9143  0.0328
   55ccc     C7 1602   6.163   4.375  10.276 -0.8073  0.6847  1.0436
   55ccc    H12 1603   6.146   4.480  10.246  2.6423  0.3078 -2.5668
   55ccc    H13 1604   6.240   4.391  10.352  1.2327 -1.8823 -0.4234
   55ccc     C8 1605   6.224   4.307  10.149 -0.0874  0.5658  0.0336
   55ccc    H14 1606   6.220   4.200  10.175 -1.2534  0.2034 -1.5423
   55ccc    H15 1607   6.151   4.333  10.071  0.1667 -1.2821 -0.8660
   55ccc     C9 1608   6.364   4.353  10.113 -0.7973 -0.4336  0.0465
   55ccc     O3 1609   6.396   4.443  10.031 -0.5821  0.3720  0.1839
   55ccc     O4 1610   6.470   4.317  10.181 -0.6573 -0.1629  0.1509
   55ccc    H16 1611   6.422   4.263  10.246  0.0077 -0.5891  0.2871
   55ccc     O5 1612   5.733   4.507  10.274 -0.0861  0.1581 -0.5790
   56ccc     C1 1613   5.502   4.397   9.647  0.6796 -0.1404 -0.4529
   56ccc     H1 1614   5.553   4.383   9.743  2.8977  0.6817 -1.4744
   56ccc     H2 1615   5.397   4.366   9.648  0.9096 -0.9274  1.2726
   56ccc     C2 1616   5.590   4.339   9.535 -0.6058 -0.0107 -0.1740
   56ccc     H3 1617   5.565   4.395   9.444  3.4406  1.3451 -0.5804
   56ccc     H4 1618   5.560   4.235   9.516 -2.2553  0.3576  0.3799
   56ccc     C3 1619   5.743   4.363   9.555  0.0407 -0.8063  0.1169
   56ccc     H5 1620   5.771   4.319   9.652 -2.6995  1.3096  1.9505
   56ccc     H6 1621   5.767   4.470   9.565 -0.5799 -0.7065  0.5287
   56ccc     N1 1622   5.825   4.306   9.444  0.3503 -0.0699 -0.1601
   56ccc     C4 1623   5.950   4.367   9.415 -0.0787  0.9752  0.0423
   56ccc     H7 1624   6.012   4.300   9.354 -2.4044 -0.2152 -1.0724
   56ccc     H8 1625   5.991   4.382   9.516 -3.2158  2.6476  1.1147
   56ccc     C5 1626   5.931   4.504   9.342  0.7699  0.5968  0.2522
   56ccc     H9 1627   5.863   4.571   9.397  1.1133  2.2342 -1.3136
   56ccc    H10 1628   5.887   4.489   9.243 -0.5184  0.4138  0.8378
   56ccc     C6 1629   6.057   4.574   9.311 -0.5696 -0.1780  0.3709
   56ccc     O1 1630   6.144   4.519   9.246 -0.6294  0.2936 -0.2407
   56ccc     O2 1631   6.090   4.684   9.382  0.2500  0.3824 -0.0213
   56ccc    H11 1632   6.007   4.704   9.428  0.5535  0.3357  0.5464
   56ccc     C7 1633   5.832   4.154   9.455  0.4176  0.8608 -0.8074
   56ccc    H12 1634   5.735   4.104   9.445  0.0035  1.1557  1.4153
   56ccc    H13 1635   5.874   4.112   9.363  0.0576 -1.0166 -0.1524
   56ccc     C8 1636   5.891   4.097   9.588  0.4987 -0.7347  0.4514
   56ccc    H14 1637   5.995   4.129   9.601  0.3875  0.1670 -0.7645
   56ccc    H15 1638   5.837   4.124   9.680 -1.8403  0.3123 -1.1732
   56ccc     C9 1639   5.892   3.943   9.587 -0.4787 -0.7334 -0.3293
   56ccc     O3 1640   5.842   3.876   9.667  0.1217 -0.4314  0.4478
   56ccc     O4 1641   5.980   3.889   9.501 -0.1175  0.4114  0.0595
   56ccc    H16 1642   6.034   3.956   9.456 -0.1067  0.2951 -0.0986
   56ccc     O5 1643   5.484   4.541   9.616  0.3884  0.6433 -0.3706
   57ccc     C1 1644   5.672   5.305   9.250 -0.5206  0.7233 -0.6609
   57ccc     H1 1645   5.631   5.407   9.242  1.5372  1.9794  3.3860
   57ccc     H2 1646   5.773   5.315   9.291 -0.1194 -0.2066 -1.4129
   57ccc     C2 1647   5.690   5.244   9.114  0.1856  0.4348 -0.3421
   57ccc     H3 1648   5.720   5.324   9.046  0.8753  0.9792  0.5857
   57ccc     H4 1649   5.598   5.201   9.072 -0.3472  0.3955  0.8279
   57ccc     C3 1650   5.786   5.124   9.120  0.9650  0.1861 -0.5458
   57ccc     H5 1651   5.778   5.078   9.021 -1.8181  2.6435 -1.5428
   57ccc     H6 1652   5.741   5.056   9.193 -2.1214  2.0944 -0.5377
   57ccc     N1 1653   5.930   5.155   9.161  0.8238 -0.3780 -0.4598
   57ccc     C4 1654   5.986   5.259   9.074  0.1405  0.0364  0.0874
   57ccc     H7 1655   5.925   5.347   9.100  1.4978  1.0670 -0.1134
   57ccc     H8 1656   5.987   5.236   8.967  1.2375 -0.6631  0.2408
   57ccc     C5 1657   6.127   5.296   9.124 -0.3340  0.3540 -0.3896
   57ccc     H9 1658   6.119   5.333   9.227  0.2971  1.1415 -0.6240
   57ccc    H10 1659   6.200   5.214   9.121 -0.7766 -0.0965  0.7227
   57ccc     C6 1660   6.174   5.422   9.053  0.3978  0.2150 -1.2364
   57ccc     O1 1661   6.108   5.504   8.999 -0.0360  0.1028 -0.2744
   57ccc     O2 1662   6.300   5.449   9.083  0.0530 -0.0351  0.2356
   57ccc    H11 1663   6.332   5.363   9.117 -2.1253 -1.0107 -0.1053
   57ccc     C7 1664   6.004   5.026   9.171 -0.2952  0.0434  0.2380
   57ccc    H12 1665   6.093   5.053   9.228 -0.1335 -1.2865  0.6250
   57ccc    H13 1666   5.957   4.946   9.229 -0.6763  0.0564 -0.0448
   57ccc     C8 1667   6.034   4.962   9.032 -0.8465 -0.1020  0.9451
   57ccc    H14 1668   6.105   5.019   8.972 -0.3185 -0.8921  0.8017
   57ccc    H15 1669   5.944   4.940   8.973  0.6311 -0.5008 -1.1949
   57ccc     C9 1670   6.085   4.815   9.044 -0.0844 -0.2221 -0.7835
   57ccc     O3 1671   6.206   4.788   9.053  0.4577  0.2503  0.1212
   57ccc     O4 1672   5.995   4.721   9.076 -0.5478  0.7298  0.1134
   57ccc    H16 1673   5.911   4.769   9.069 -0.3890  0.9257 -0.4960
   57ccc     O5 1674   5.585   5.221   9.329 -0.3807 -0.0735 -0.2949
   58ccc     C1 1675   5.486   5.224   9.948 -0.1080  0.0568  0.0080
   58ccc     H1 1676   5.473   5.241   9.840  0.1293 -0.0044 -0.0297
   58ccc     H2 1677   5.460   5.311  10.008  3.6652 -0.6022  2.7818
   58ccc     C2 1678   5.636   5.193   9.977  0.3137  0.1517  0.0676
   58ccc     H3 1679   5.658   5.224  10.080 -0.6742  3.4772 -0.6692
   58ccc     H4 1680   5.697   5.253   9.909  1.4475 -1.6152 -0.4911
   58ccc     C3 1681   5.667   5.042   9.956  0.5438 -0.2569 -0.1304
   58ccc     H5 1682   5.620   5.010   9.863  2.5766  0.2231 -1.3542
   58ccc     H6 1683   5.613   4.993  10.039  1.0121  3.4848  2.5374
   58ccc     N1 1684   5.804   5.001   9.951 -0.4430 -0.1614 -0.8742
   58ccc     C4 1685   5.874   5.008  10.082 -0.3393  0.3538 -0.2630
   58ccc     H7 1686   5.816   5.070  10.151  0.3317 -0.2096  0.8295
   58ccc     H8 1687   5.905   4.910  10.119 -0.4735 -0.1492 -1.4494
   58ccc     C5 1688   6.005   5.087  10.056  0.0715  0.6025  0.5039
   58ccc     H9 1689   6.054   5.016   9.988  1.7178  1.0387  1.2226
   58ccc    H10 1690   6.071   5.096  10.143 -0.0185 -2.4359  0.9599
   58ccc     C6 1691   5.994   5.221   9.982  0.3300  0.0469  1.1233
   58ccc     O1 1692   6.016   5.230   9.861  0.1826  0.0303 -0.4382
   58ccc     O2 1693   5.933   5.318  10.048 -0.0152  0.5439 -0.1305
   58ccc    H11 1694   5.942   5.289  10.140 -0.8266  2.0449  0.4496
   58ccc     C7 1695   5.826   4.878   9.879  0.4346 -0.4661 -0.5733
   58ccc    H12 1696   5.924   4.840   9.911  1.4489  2.3636 -0.1804
   58ccc    H13 1697   5.754   4.802   9.912  0.0308 -0.3107 -1.0873
   58ccc     C8 1698   5.822   4.886   9.726 -0.9909 -0.8489  0.3152
   58ccc    H14 1699   5.720   4.902   9.689 -0.8045  1.0336  0.5932
   58ccc    H15 1700   5.875   4.975   9.690 -0.7156  0.1854  3.1882
   58ccc     C9 1701   5.873   4.770   9.652 -0.4645  0.0448  0.8022
   58ccc     O3 1702   5.918   4.666   9.705  0.5047  0.8178 -0.2734
   58ccc     O4 1703   5.893   4.792   9.519 -0.3134  0.0043  0.1107
   58ccc    H16 1704   5.862   4.883   9.504  1.9461  0.7152 -0.5180
   58ccc     O5 1705   5.415   5.106   9.992 -0.0738 -0.0635  0.5186
   59ccc     C1 1706   3.188   2.296  10.348 -0.1206 -0.3361  0.1055
   59ccc     H1 1707   3.279   2.334  10.397  0.4662 -0.4395 -0.8883
   59ccc     H2 1708   3.110   2.316  10.422  1.9384 -0.9599  2.5368
   59ccc     C2 1709   3.207   2.149  10.306  0.1511 -0.0198 -0.1635
   59ccc     H3 1710   3.235   2.091  10.395  0.0854 -0.0004 -0.1302
   59ccc     H4 1711   3.287   2.139  10.231 -1.1610  0.2470 -1.6162
   59ccc     C3 1712   3.084   2.089  10.241  0.4194 -0.4253 -0.2080
   59ccc     H5 1713   3.077   2.134  10.141  1.8995  0.5591  0.1152
   59ccc     H6 1714   2.999   2.107  10.307 -0.6860 -2.4711 -1.0136
   59ccc     N1 1715   3.089   1.938  10.225 -0.3144  0.4478 -0.0536
   59ccc     C4 1716   3.194   1.854  10.171 -0.4018 -0.2229 -0.5947
   59ccc     H7 1717   3.156   1.751  10.163  2.6023 -1.6552  1.9813
   59ccc     H8 1718   3.276   1.854  10.244 -1.4136 -0.6859  0.5454
   59ccc     C5 1719   3.266   1.913  10.046  0.0829  0.1410 -0.8142
   59ccc     H9 1720   3.300   2.017  10.048 -1.0977  0.6057 -2.8297
   59ccc    H10 1721   3.198   1.910   9.959 -0.8524  0.2690 -0.0915
   59ccc     C6 1722   3.393   1.843  10.001 -0.3026  0.4801  0.4188
   59ccc     O1 1723   3.427   1.743  10.056 -0.2346 -0.0995 -0.2286
   59ccc     O2 1724   3.419   1.862   9.873 -0.4765 -0.1855  0.3785
   59ccc    H11 1725   3.346   1.920   9.845  0.9606  1.2410 -0.4970
   59ccc     C7 1726   3.004   1.868  10.322  0.1057 -0.0992  0.0394
   59ccc    H12 1727   3.032   1.762  10.325 -0.1762 -0.1683  0.2794
   59ccc    H13 1728   3.013   1.898  10.427 -1.7112  0.5524  0.0291
   59ccc     C8 1729   2.858   1.884  10.291  0.3846 -0.3610 -0.0296
   59ccc    H14 1730   2.838   1.991  10.278  3.4126  0.1791 -0.5120
   59ccc    H15 1731   2.803   1.861  10.383 -0.5528  1.5838 -0.0678
   59ccc     C9 1732   2.810   1.793  10.175 -0.5171 -0.4651 -0.3665
   59ccc     O3 1733   2.825   1.673  10.164  0.2295 -1.1141 -0.2488
   59ccc     O4 1734   2.782   1.864  10.068 -0.0882  0.6685  0.1352
   59ccc    H16 1735   2.775   1.958  10.094 -2.0950 -0.0313  2.3976
   59ccc     O5 1736   3.146   2.370  10.227 -0.3886  0.1096  0.5199
   60ccc     C1 1737   3.215   3.201   9.930 -0.4852  0.0931  0.2231
   60ccc     H1 1738   3.286   3.254   9.865 -0.1431 -0.1213  0.4202
   60ccc     H2 1739   3.182   3.112   9.876 -1.0739  1.2254 -1.3216
   60ccc     C2 1740   3.081   3.273   9.954 -0.0700  0.2858  0.4992
   60ccc     H3 1741   3.042   3.290   9.853 -1.6988 -1.1782  0.8697
   60ccc     H4 1742   3.095   3.374   9.996 -0.2593  0.7907 -0.6269
   60ccc     C3 1743   2.973   3.187  10.018  0.2362 -0.3844 -0.4637
   60ccc     H5 1744   3.006   3.160  10.119 -0.7332  1.4727  0.3694
   60ccc     H6 1745   2.963   3.088   9.971  1.1420 -0.5269 -0.3645
   60ccc     N1 1746   2.842   3.255  10.031  0.2057  0.2774  0.3052
   60ccc     C4 1747   2.785   3.294   9.899 -0.4139  0.0672  0.6665
   60ccc     H7 1748   2.834   3.378   9.848 -0.0977 -0.2358  0.4695
   60ccc     H8 1749   2.685   3.322   9.934 -1.2180 -2.5250  0.5454
   60ccc     C5 1750   2.775   3.181   9.795  0.0257  0.2410  0.9110
   60ccc     H9 1751   2.868   3.142   9.751 -0.6310 -3.3598  2.5788
   60ccc    H10 1752   2.732   3.094   9.847  0.4282 -0.8599 -0.5624
   60ccc     C6 1753   2.679   3.213   9.676 -0.3423  0.5999  0.8270
   60ccc     O1 1754   2.612   3.311   9.671 -0.4455 -0.6112 -0.2709
   60ccc     O2 1755   2.641   3.102   9.604 -0.2490  0.6613  0.1057
   60ccc    H11 1756   2.693   3.034   9.651  0.8422 -0.1217 -2.1880
   60ccc     C7 1757   2.842   3.363  10.132  0.0111 -0.3865 -0.0546
   60ccc    H12 1758   2.907   3.451  10.122  0.4323 -0.8149 -1.1232
   60ccc    H13 1759   2.741   3.398  10.156  0.1809 -1.6749  2.8238
   60ccc     C8 1760   2.885   3.311  10.273 -0.4398  0.4872 -0.1409
   60ccc    H14 1761   2.865   3.203  10.282  0.0264  0.3600 -0.6362
   60ccc    H15 1762   2.993   3.322  10.285 -0.3864 -2.1823  2.5698
   60ccc     C9 1763   2.806   3.372  10.393 -0.4558  0.9666  0.1179
   60ccc     O3 1764   2.741   3.474  10.387 -0.8971  0.2587 -0.1625
   60ccc     O4 1765   2.845   3.333  10.515 -0.2443  0.4167  0.1752
   60ccc    H16 1766   2.899   3.255  10.494 -0.9038 -0.1934  0.6928
   60ccc     O5 1767   3.276   3.158  10.056  0.6947  0.3894  0.0566
   61ccc     C1 1768   3.983   2.674  10.032  0.0412 -0.4397  0.0946
   61ccc     H1 1769   3.912   2.649  10.112 -1.4497  2.2654 -0.3162
   61ccc     H2 1770   4.019   2.587   9.976  0.9994 -0.2210  0.3565
   61ccc     C2 1771   4.112   2.744  10.085 -0.3756 -0.3991  0.3305
   61ccc     H3 1772   4.189   2.736  10.007 -0.9938 -0.2105 -0.3040
   61ccc     H4 1773   4.147   2.697  10.177 -1.8670 -1.3394  0.4225
   61ccc     C3 1774   4.103   2.892  10.095 -0.2969 -0.8069  0.8846
   61ccc     H5 1775   4.010   2.897  10.153 -0.5333 -0.8841  0.5121
   61ccc     H6 1776   4.080   2.937   9.997 -0.4359 -1.2582  0.7099
   61ccc     N1 1777   4.212   2.956  10.175 -0.0935 -0.4479 -0.2931
   61ccc     C4 1778   4.162   3.009  10.305  0.6772  0.2473 -0.5904
   61ccc     H7 1779   4.067   2.962  10.333  1.2674  0.5573  2.0537
   61ccc     H8 1780   4.122   3.109  10.286  2.1602  0.8773 -0.5031
   61ccc     C5 1781   4.264   3.004  10.420  0.6335  0.3555  0.6035
   61ccc     H9 1782   4.356   3.046  10.380  0.6384 -0.4187 -0.2130
   61ccc    H10 1783   4.236   3.061  10.509 -1.0245 -2.9297  2.2701
   61ccc     C6 1784   4.293   2.863  10.462  0.7614  0.3461  0.4607
   61ccc     O1 1785   4.208   2.790  10.518 -0.2754 -0.0400  0.6469
   61ccc     O2 1786   4.426   2.836  10.483 -0.2484  0.4950 -0.0250
   61ccc    H11 1787   4.481   2.910  10.452 -0.4352  2.3322  3.7877
   61ccc     C7 1788   4.316   3.027  10.102 -0.4388 -0.6737  0.0514
   61ccc    H12 1789   4.380   3.068  10.181  0.9162  1.8213 -2.2841
   61ccc    H13 1790   4.280   3.118  10.052 -0.8842 -0.5783  0.5411
   61ccc     C8 1791   4.389   2.943   9.998  0.5115 -0.1265  0.2470
   61ccc    H14 1792   4.409   2.843  10.039 -0.6735  0.0977  1.4006
   61ccc    H15 1793   4.329   2.926   9.908  2.8947 -0.4321 -1.3337
   61ccc     C9 1794   4.521   3.003   9.961 -0.4335 -0.3919 -0.0683
   61ccc     O3 1795   4.585   3.071  10.036  0.2136  0.2686 -0.0318
   61ccc     O4 1796   4.581   2.951   9.848 -0.2596  0.4481  0.2494
   61ccc    H16 1797   4.528   2.872   9.828 -1.5696  1.2623  0.4411
   61ccc     O5 1798   3.912   2.760   9.941  0.7230 -0.1926 -0.0310
   62ccc     C1 1799   3.647   2.752   9.000 -0.0759  0.3847 -0.0483
   62ccc     H1 1800   3.617   2.647   9.013 -1.5023  0.7646 -0.1908
   62ccc     H2 1801   3.605   2.787   8.905 -0.0698 -1.3703 -0.7245
   62ccc     C2 1802   3.802   2.763   8.998 -0.5992  0.4169 -0.2486
   62ccc     H3 1803   3.839   2.702   8.914 -1.5741  0.3538 -0.6422
   62ccc     H4 1804   3.846   2.721   9.089 -0.9201  0.0773 -0.2479
   62ccc     C3 1805   3.837   2.910   8.963 -0.7476  1.2902  0.2935
   62ccc     H5 1806   3.787   2.982   9.029 -1.4948  1.3985 -0.3833
   62ccc     H6 1807   3.808   2.943   8.862  0.0629 -1.4523 -0.8788
   62ccc     N1 1808   3.982   2.943   8.963  0.3134  0.6237  0.1707
   62ccc     C4 1809   4.066   2.883   9.065  0.0730 -0.1494 -0.0048
   62ccc     H7 1810   4.046   2.775   9.071 -2.9497  0.4057  0.7588
   62ccc     H8 1811   4.036   2.917   9.165 -1.0951 -2.1108  0.3615
   62ccc     C5 1812   4.219   2.910   9.037 -0.1021 -0.6129 -0.1236
   62ccc     H9 1813   4.254   2.882   8.937  0.1199  0.7223 -0.4412
   62ccc    H10 1814   4.243   3.017   9.050 -2.5648  0.2376 -2.0712
   62ccc     C6 1815   4.305   2.831   9.133 -0.4070  0.1532  0.3193
   62ccc     O1 1816   4.320   2.710   9.138 -0.0702 -0.0088 -0.6719
   62ccc     O2 1817   4.332   2.897   9.254 -0.2301  0.3173 -0.0318
   62ccc    H11 1818   4.335   2.993   9.235  1.0646  0.2814 -0.1024
   62ccc     C7 1819   4.008   3.088   8.923 -0.6105 -0.2584  0.7957
   62ccc    H12 1820   4.107   3.101   8.876 -0.8908 -0.4729  0.1337
   62ccc    H13 1821   3.936   3.126   8.850  1.9404  2.6115 -0.3297
   62ccc     C8 1822   3.992   3.183   9.057  0.2872  0.0487 -1.0444
   62ccc    H14 1823   3.905   3.154   9.116  0.3159  1.0381 -0.5119
   62ccc    H15 1824   4.069   3.159   9.132 -0.5226 -0.3138 -0.3273
   62ccc     C9 1825   3.980   3.330   9.036 -0.3549 -0.6964  0.2307
   62ccc     O3 1826   4.065   3.412   9.067  0.4703 -0.8233 -0.2624
   62ccc     O4 1827   3.873   3.376   8.969  0.2859 -0.0941 -0.0462
   62ccc    H16 1828   3.818   3.296   8.962 -0.5005  0.5090 -0.8349
   62ccc     O5 1829   3.595   2.835   9.106 -0.2270  0.6995 -0.1127
   63ccc     C1 1830   5.306   4.781   7.268 -0.4370  0.3872  0.1795
   63ccc     H1 1831   5.310   4.887   7.242 -0.3951  0.2681 -0.3011
   63ccc     H2 1832   5.403   4.747   7.307 -1.1544 -3.2022 -0.9576
   63ccc     C2 1833   5.265   4.687   7.149  0.3758 -0.5196 -0.1220
   63ccc     H3 1834   5.336   4.706   7.068 -0.3827  0.7301 -0.5152
   63ccc     H4 1835   5.166   4.721   7.117 -0.6697 -0.7615  2.7089
   63ccc     C3 1836   5.260   4.538   7.182  0.4724 -0.1124 -0.6159
   63ccc     H5 1837   5.207   4.536   7.278  2.3492 -1.0894  0.4215
   63ccc     H6 1838   5.359   4.497   7.202  0.4972  0.9001  1.4930
   63ccc     N1 1839   5.189   4.453   7.088 -0.2160  0.8645 -0.2758
   63ccc     C4 1840   5.291   4.411   6.985 -0.0972  0.3588  0.0730
   63ccc     H7 1841   5.375   4.353   7.024 -0.9808 -0.9406  0.0745
   63ccc     H8 1842   5.344   4.501   6.950 -2.1025  1.0018 -1.3852
   63ccc     C5 1843   5.233   4.338   6.859 -0.2519  0.1182  0.2109
   63ccc     H9 1844   5.197   4.241   6.894  1.6305 -1.1655 -1.2713
   63ccc    H10 1845   5.143   4.390   6.825 -2.0183 -2.5770  0.6509
   63ccc     C6 1846   5.335   4.332   6.748  0.6109 -0.7242  0.7428
   63ccc     O1 1847   5.442   4.397   6.745  0.0764  0.6072 -0.1235
   63ccc     O2 1848   5.307   4.251   6.646 -0.1536  0.1419 -0.0577
   63ccc    H11 1849   5.221   4.211   6.670  0.0249  0.3118  0.8609
   63ccc     C7 1850   5.106   4.349   7.152  0.2181  0.6911  0.2870
   63ccc    H12 1851   5.079   4.279   7.072  1.1261 -0.3961  0.9082
   63ccc    H13 1852   5.162   4.284   7.220  1.0414  0.4564 -0.6055
   63ccc     C8 1853   4.979   4.394   7.220  0.1728  0.1763 -0.6597
   63ccc    H14 1854   4.920   4.456   7.151 -0.2169 -0.8280 -1.2477
   63ccc    H15 1855   5.006   4.452   7.309 -0.6942 -4.1435  2.6310
   63ccc     C9 1856   4.893   4.282   7.276 -0.2247 -0.4706 -0.2943
   63ccc     O3 1857   4.909   4.236   7.386 -0.0662 -0.3951  0.0765
   63ccc     O4 1858   4.863   4.197   7.179  0.4415 -0.4373  0.6250
   63ccc    H16 1859   4.867   4.253   7.099 -0.2982 -1.2238  0.0217
   63ccc     O5 1860   5.209   4.756   7.372  0.0116 -0.2077 -0.3380
   64ccc     C1 1861   5.357   3.982   7.320 -1.0137  0.4160  0.0653
   64ccc     H1 1862   5.464   3.958   7.317 -1.2686 -0.6452 -0.9462
   64ccc     H2 1863   5.302   3.941   7.406 -1.4443 -1.0064 -0.8664
   64ccc     C2 1864   5.290   3.935   7.190 -0.1580  0.5549 -0.9574
   64ccc     H3 1865   5.310   3.829   7.173 -0.6775 -0.0616  2.1219
   64ccc     H4 1866   5.323   4.000   7.108 -2.8696  1.7897 -1.1601
   64ccc     C3 1867   5.133   3.947   7.213  0.6650  0.2132 -0.6155
   64ccc     H5 1868   5.101   4.051   7.228  2.6467  0.4897  2.1041
   64ccc     H6 1869   5.112   3.886   7.302  0.7714 -1.1942 -1.5360
   64ccc     N1 1870   5.059   3.889   7.093  0.3219  0.5848 -0.2302
   64ccc     C4 1871   4.917   3.849   7.129 -0.4332  0.2892  0.0376
   64ccc     H7 1872   4.858   3.805   7.048  0.4034  1.2409 -1.1084
   64ccc     H8 1873   4.849   3.922   7.176 -0.1217  0.7469 -0.2161
   64ccc     C5 1874   4.925   3.722   7.225 -0.0550 -0.0241  0.1965
   64ccc     H9 1875   4.994   3.732   7.310 -0.3864  1.4591  0.3027
   64ccc    H10 1876   4.981   3.639   7.181 -1.2614 -0.6088 -0.2578
   64ccc     C6 1877   4.784   3.680   7.259  0.3536 -0.6004  0.2048
   64ccc     O1 1878   4.722   3.615   7.179  0.3449 -0.2727 -0.6518
   64ccc     O2 1879   4.714   3.773   7.321  0.4953 -1.0463  0.0928
   64ccc    H11 1880   4.780   3.844   7.324  0.0724 -0.6576  0.3796
   64ccc     C7 1881   5.079   3.969   6.967 -0.2838 -0.1199 -0.0204
   64ccc    H12 1882   5.009   4.053   6.975  0.2278  0.3804 -0.7689
   64ccc    H13 1883   5.179   4.013   6.955  0.1902 -1.6805 -1.9822
   64ccc     C8 1884   5.065   3.892   6.833 -0.4683  0.5985 -0.8800
   64ccc    H14 1885   4.979   3.825   6.836  1.2352 -1.7529 -2.2418
   64ccc    H15 1886   5.157   3.836   6.811 -1.7185 -1.8774 -0.0544
   64ccc     C9 1887   5.043   3.987   6.720  0.0311 -0.4684  0.4379
   64ccc     O3 1888   5.094   4.093   6.704 -0.7054  0.0428  0.7287
   64ccc     O4 1889   5.010   3.923   6.613 -0.6958 -0.4851  0.1703
   64ccc    H16 1890   4.997   3.831   6.642  0.1007 -0.4246  0.7315
   64ccc     O5 1891   5.344   4.126   7.337 -0.1483 -0.1435  0.5144
   65ccc     C1 1892   4.159   5.122   8.736 -0.5471  0.0123  0.1218
   65ccc     H1 1893   4.197   5.151   8.638 -1.2591 -1.3622 -0.5720
   65ccc     H2 1894   4.122   5.019   8.729 -0.1365 -0.1536  0.4497
   65ccc     C2 1895   4.042   5.219   8.770  0.0733  0.2747 -0.3846
   65ccc     H3 1896   3.996   5.187   8.864 -0.6211  1.6523 -0.2312
   65ccc     H4 1897   3.962   5.212   8.695 -0.5177  4.1991 -0.2713
   65ccc     C3 1898   4.084   5.366   8.787 -0.2469  0.6709 -0.0944
   65ccc     H5 1899   4.105   5.426   8.697 -0.2127  0.1781 -0.4146
   65ccc     H6 1900   4.181   5.358   8.839  0.3281  1.1521 -1.0708
   65ccc     N1 1901   3.992   5.438   8.874 -0.0377  0.5484 -0.1376
   65ccc     C4 1902   3.865   5.480   8.811 -0.4170  0.1653 -0.3384
   65ccc     H7 1903   3.824   5.404   8.744  0.8087 -0.4318 -0.4278
   65ccc     H8 1904   3.890   5.562   8.742 -0.9344  0.9410  0.3772
   65ccc     C5 1905   3.748   5.518   8.901  0.6178 -0.0458  0.6416
   65ccc     H9 1906   3.765   5.543   9.006 -2.8600 -0.0466  1.2795
   65ccc    H10 1907   3.693   5.601   8.853  1.4119 -2.4238 -4.7704
   65ccc     C6 1908   3.659   5.390   8.909  1.0500  0.0424  0.2299
   65ccc     O1 1909   3.557   5.374   8.844 -0.3986  0.2656 -0.3329
   65ccc     O2 1910   3.723   5.276   8.937 -0.5018 -0.1039 -0.2005
   65ccc    H11 1911   3.796   5.317   8.986 -0.6625  0.7846 -0.6926
   65ccc     C7 1912   4.043   5.563   8.939 -0.7022 -0.2992  0.9647
   65ccc    H12 1913   4.066   5.642   8.866  0.1469 -0.5862  0.9270
   65ccc    H13 1914   3.970   5.603   9.011 -1.8737 -1.8639  0.6765
   65ccc     C8 1915   4.168   5.546   9.022 -0.0898 -1.0511  0.1659
   65ccc    H14 1916   4.176   5.449   9.072  1.1179 -0.7821  0.5127
   65ccc    H15 1917   4.256   5.564   8.959 -1.4956  3.0790 -0.7841
   65ccc     C9 1918   4.188   5.645   9.135  0.5953 -0.2554 -1.2484
   65ccc     O3 1919   4.107   5.663   9.229  0.1331 -0.1375  0.5678
   65ccc     O4 1920   4.286   5.728   9.120  0.0265 -0.4872  0.3242
   65ccc    H16 1921   4.322   5.715   9.031 -1.3276 -0.8690 -0.1856
   65ccc     O5 1922   4.260   5.125   8.846 -0.3026  0.1135  0.3554
   66ccc     C1 1923   4.568   5.381   9.521 -0.3259 -0.7162 -0.6838
   66ccc     H1 1924   4.665   5.361   9.568 -1.6106  0.5390  2.6445
   66ccc     H2 1925   4.585   5.463   9.450  0.1810  0.1581  0.4230
   66ccc     C2 1926   4.464   5.404   9.636 -0.4404  0.4291 -0.2559
   66ccc     H3 1927   4.487   5.503   9.676 -0.1466  0.1936  0.1579
   66ccc     H4 1928   4.496   5.333   9.713 -0.8601  0.2346 -0.2604
   66ccc     C3 1929   4.317   5.396   9.588 -0.1301  0.0537  0.0403
   66ccc     H5 1930   4.286   5.294   9.561  0.9214  0.6573 -3.7033
   66ccc     H6 1931   4.313   5.448   9.491  0.2932  0.8799  0.4545
   66ccc     N1 1932   4.218   5.455   9.684 -0.5475  0.3142 -0.1256
   66ccc     C4 1933   4.081   5.459   9.638 -0.4535  0.3649 -0.8195
   66ccc     H7 1934   4.021   5.516   9.709 -0.0397 -0.4893  0.2266
   66ccc     H8 1935   4.038   5.358   9.640  0.4528 -0.0263 -0.7496
   66ccc     C5 1936   4.055   5.532   9.506  0.9323 -0.1132 -0.3521
   66ccc     H9 1937   4.106   5.629   9.507  0.9508 -0.0953 -1.8533
   66ccc    H10 1938   4.090   5.486   9.413  0.8069  0.4132 -0.6533
   66ccc     C6 1939   3.909   5.549   9.463  0.4363  0.4943 -0.1846
   66ccc     O1 1940   3.810   5.497   9.509 -0.3460 -0.3309  0.0834
   66ccc     O2 1941   3.889   5.617   9.349  0.2464  0.1061  0.1421
   66ccc    H11 1942   3.976   5.641   9.313 -1.2292  2.4441 -2.0479
   66ccc     C7 1943   4.231   5.384   9.814  0.1351 -0.7225 -0.0605
   66ccc    H12 1944   4.326   5.419   9.855 -0.8191 -0.6365  2.1218
   66ccc    H13 1945   4.156   5.429   9.880 -1.0914 -1.2567 -1.0621
   66ccc     C8 1946   4.221   5.231   9.814 -0.3013  0.4910 -0.1926
   66ccc    H14 1947   4.125   5.197   9.776 -0.4688  0.6747  0.0647
   66ccc    H15 1948   4.293   5.189   9.742  0.5527 -1.1773  1.5928
   66ccc     C9 1949   4.255   5.159   9.940 -0.4033  0.1710  0.3205
   66ccc     O3 1950   4.361   5.120   9.980 -0.0700 -0.7636 -0.2531
   66ccc     O4 1951   4.166   5.169  10.039 -0.0104  0.4874 -0.1539
   66ccc    H16 1952   4.100   5.219   9.987 -1.0029 -0.6452  0.0025
   66ccc     O5 1953   4.527   5.262   9.443  0.0929 -0.6809 -0.2500
   67ccc     C1 1954   6.188   3.014   7.296  0.9692  0.2538  0.0100
   67ccc     H1 1955   6.281   3.027   7.353  0.2317 -0.3324  1.3630
   67ccc     H2 1956   6.140   2.917   7.315  0.6846  0.5601  0.8842
   67ccc     C2 1957   6.222   3.015   7.145 -0.3948 -0.2092 -1.2667
   67ccc     H3 1958   6.292   3.099   7.136  1.4644 -1.2953  2.1334
   67ccc     H4 1959   6.133   3.012   7.081 -2.0021 -0.5265  0.8983
   67ccc     C3 1960   6.302   2.895   7.096 -0.0153  0.1615  1.0090
   67ccc     H5 1961   6.316   2.895   6.987  1.7168  1.9332  1.1983
   67ccc     H6 1962   6.246   2.802   7.116 -3.4705  2.8080  4.4426
   67ccc     N1 1963   6.433   2.874   7.168 -0.0123 -0.1542 -0.2277
   67ccc     C4 1964   6.537   2.978   7.150 -0.4232  0.7091 -0.8899
   67ccc     H7 1965   6.491   3.077   7.141 -0.2112  1.3122  3.4134
   67ccc     H8 1966   6.603   2.958   7.065  0.7290 -1.4455  0.4709
   67ccc     C5 1967   6.631   2.997   7.274 -0.4173  0.1201 -0.0716
   67ccc     H9 1968   6.589   2.978   7.374  1.0091  0.3416  0.5783
   67ccc    H10 1969   6.710   2.923   7.259  0.3196  0.5777  1.4338
   67ccc     C6 1970   6.707   3.126   7.274 -0.1706 -0.3125  0.4036
   67ccc     O1 1971   6.664   3.230   7.224 -0.5429 -0.0249 -0.2068
   67ccc     O2 1972   6.763   3.151   7.397  0.3345  0.1884 -0.4105
   67ccc    H11 1973   6.782   3.058   7.421 -0.5037 -0.1079 -0.8532
   67ccc     C7 1974   6.466   2.733   7.200 -0.6442  0.1838 -0.1420
   67ccc    H12 1975   6.384   2.676   7.245 -0.1089 -2.4692 -2.4227
   67ccc    H13 1976   6.549   2.721   7.270  0.2213 -0.1154 -1.2140
   67ccc     C8 1977   6.518   2.660   7.071 -0.5285  0.3755  0.3866
   67ccc    H14 1978   6.618   2.698   7.044 -1.0247  1.6163  0.2718
   67ccc    H15 1979   6.453   2.661   6.983 -0.9127 -0.7081  0.6471
   67ccc     C9 1980   6.538   2.513   7.102 -0.1817 -0.2680  0.2806
   67ccc     O3 1981   6.519   2.450   7.201  0.4671 -0.0771 -0.3845
   67ccc     O4 1982   6.589   2.446   7.001  0.6646  0.3136 -0.1550
   67ccc    H16 1983   6.582   2.500   6.921  0.4921  0.3885 -0.0875
   67ccc     O5 1984   6.094   3.125   7.314 -0.1514  0.3312  0.0037
   68ccc     C1 1985   5.757   3.998   7.402  0.6617  0.1098  0.2752
   68ccc     H1 1986   5.675   4.065   7.427 -0.7205 -1.1888 -0.6918
   68ccc     H2 1987   5.809   3.971   7.495 -2.3910 -0.1292  1.9716
   68ccc     C2 1988   5.856   4.058   7.294  0.4103  0.1120  0.0768
   68ccc     H3 1989   5.802   4.077   7.201 -1.4309  0.5708  1.2008
   68ccc     H4 1990   5.929   3.979   7.275 -1.6637 -1.6453 -0.8991
   68ccc     C3 1991   5.926   4.188   7.330 -0.3201  0.5713 -0.1446
   68ccc     H5 1992   6.005   4.164   7.402 -0.0197  0.7513 -0.4096
   68ccc     H6 1993   5.855   4.262   7.369 -1.1573 -0.3952  0.1679
   68ccc     N1 1994   6.001   4.237   7.216 -0.0454  0.5170 -0.0953
   68ccc     C4 1995   5.920   4.307   7.119  0.4963 -0.6704  0.0034
   68ccc     H7 1996   5.921   4.414   7.139  1.5226 -0.6516 -0.1189
   68ccc     H8 1997   5.818   4.267   7.130  0.6797 -1.2628 -0.4182
   68ccc     C5 1998   5.964   4.274   6.972  0.4932 -0.3670 -0.6430
   68ccc     H9 1999   6.062   4.320   6.951 -0.0049  0.3674 -1.3818
   68ccc    H10 2000   5.971   4.166   6.957 -1.0039 -0.7839  1.4777
   68ccc     C6 2001   5.861   4.330   6.872 -0.0846 -0.0268  0.0266
   68ccc     O1 2002   5.868   4.450   6.842  0.2486 -0.2512  0.3564
   68ccc     O2 2003   5.741   4.267   6.875 -0.2648  0.2165  0.1637
   68ccc    H11 2004   5.761   4.180   6.913 -1.4550 -0.1265  0.0329
   68ccc     C7 2005   6.136   4.277   7.235  0.0303 -0.3612 -0.3847
   68ccc    H12 2006   6.188   4.203   7.298  1.4191 -0.2415 -1.3619
   68ccc    H13 2007   6.179   4.281   7.134 -1.4567  2.3578 -0.9565
   68ccc     C8 2008   6.164   4.413   7.298  0.2222  1.5029 -0.3739
   68ccc    H14 2009   6.104   4.488   7.245  0.5988  0.7653 -1.8410
   68ccc    H15 2010   6.119   4.405   7.398 -1.7590 -3.0975 -1.4866
   68ccc     C9 2011   6.312   4.442   7.313 -1.0230 -0.0382  0.2110
   68ccc     O3 2012   6.397   4.355   7.288  0.6555 -0.0083 -0.0535
   68ccc     O4 2013   6.339   4.539   7.401 -0.0617  0.1123  0.0835
   68ccc    H16 2014   6.265   4.601   7.384 -0.0298 -0.2923 -1.6577
   68ccc     O5 2015   5.691   3.873   7.355 -0.4684  0.4728 -0.1428
   69ccc     C1 2016   5.528   3.934   7.749 -0.3850 -0.6400 -0.5774
   69ccc     H1 2017   5.481   3.961   7.653  0.6142  1.4494 -0.5155
   69ccc     H2 2018   5.612   3.865   7.738 -0.6996 -1.0134 -0.6385
   69ccc     C2 2019   5.420   3.882   7.845  0.2891 -0.0886  0.4313
   69ccc     H3 2020   5.460   3.876   7.947 -0.2864 -0.8133  0.6190
   69ccc     H4 2021   5.411   3.775   7.819  3.2206 -0.3579  0.2956
   69ccc     C3 2022   5.285   3.950   7.852  0.0863 -0.3129 -0.7658
   69ccc     H5 2023   5.299   4.057   7.872 -2.7507  0.1903 -1.1725
   69ccc     H6 2024   5.221   3.916   7.934  0.9148  1.7978  0.8057
   69ccc     N1 2025   5.202   3.946   7.725  0.5840  0.4923 -0.5536
   69ccc     C4 2026   5.074   4.021   7.733 -0.6865  0.4980 -0.0582
   69ccc     H7 2027   5.083   4.119   7.781  2.8695  0.2877 -0.1639
   69ccc     H8 2028   4.992   3.972   7.788  1.1918 -0.0275  2.3556
   69ccc     C5 2029   5.028   4.061   7.587 -0.9772  0.3265  0.0248
   69ccc     H9 2030   4.990   4.164   7.581 -0.0298  0.7570  1.3366
   69ccc    H10 2031   5.105   4.063   7.509 -1.5008 -1.2109 -0.5531
   69ccc     C6 2032   4.926   3.965   7.537 -0.5113  0.0363 -0.3308
   69ccc     O1 2033   4.887   3.860   7.586  0.2517  0.2228  0.4286
   69ccc     O2 2034   4.886   3.989   7.412 -0.4625  0.0794 -0.4882
   69ccc    H11 2035   4.885   4.086   7.411  2.3072  0.1620  1.0028
   69ccc     C7 2036   5.183   3.816   7.660 -0.4317 -0.8258 -0.0099
   69ccc    H12 2037   5.132   3.830   7.564  1.1381 -1.1057 -0.9008
   69ccc    H13 2038   5.283   3.786   7.627 -0.3658 -0.5388 -0.0730
   69ccc     C8 2039   5.112   3.708   7.751 -0.1022  1.1187 -0.0703
   69ccc    H14 2040   5.181   3.670   7.827 -0.3272  0.9110  0.0322
   69ccc    H15 2041   5.024   3.744   7.805 -0.1915  1.2454 -0.2997
   69ccc     C9 2042   5.066   3.573   7.687 -0.4289  0.1772  0.0748
   69ccc     O3 2043   5.100   3.550   7.572 -0.7901 -0.6147  0.0658
   69ccc     O4 2044   4.994   3.485   7.754  0.3422  0.2083  0.3690
   69ccc    H16 2045   4.957   3.537   7.828  2.4581  2.5274 -0.1350
   69ccc     O5 2046   5.581   4.057   7.805  0.8011 -0.2857 -0.3284
   70ccc     C1 2047   5.893   4.893   7.713  0.7387 -0.2788 -0.1361
   70ccc     H1 2048   5.863   4.843   7.620 -0.9926  0.1351  0.1781
   70ccc     H2 2049   5.976   4.837   7.758  1.9361 -0.4505 -2.4797
   70ccc     C2 2050   5.919   5.039   7.667 -0.0303  0.0543 -0.4846
   70ccc     H3 2051   5.820   5.068   7.631 -1.0709 -2.4784  0.1639
   70ccc     H4 2052   5.992   5.050   7.586 -0.5687 -1.6493 -1.2337
   70ccc     C3 2053   5.951   5.123   7.795  0.3341 -0.3328 -0.5015
   70ccc     H5 2054   6.049   5.097   7.836  0.0787  0.2275  0.4917
   70ccc     H6 2055   5.878   5.100   7.873 -1.4800  3.1760 -1.0353
   70ccc     N1 2056   5.956   5.267   7.769 -0.1798 -0.2584  0.0056
   70ccc     C4 2057   6.074   5.296   7.679 -0.0807 -0.4061  0.7623
   70ccc     H7 2058   6.167   5.289   7.738  1.0621  0.5753 -0.8924
   70ccc     H8 2059   6.072   5.222   7.598  0.0623 -0.4201  0.7716
   70ccc     C5 2060   6.071   5.440   7.623 -0.2057 -0.0514 -0.6262
   70ccc     H9 2061   5.966   5.465   7.602  0.3119  1.1600 -1.7966
   70ccc    H10 2062   6.119   5.505   7.697 -0.0698  0.6970 -1.3710
   70ccc     C6 2063   6.132   5.453   7.485 -0.1181  0.2964 -0.2892
   70ccc     O1 2064   6.117   5.360   7.404  0.0886 -0.1228 -0.2686
   70ccc     O2 2065   6.158   5.579   7.452  0.0206  0.0765  0.1045
   70ccc    H11 2066   6.141   5.634   7.531 -0.1779  1.2869 -0.7589
   70ccc     C7 2067   5.958   5.343   7.899 -0.1498 -0.5231 -0.2475
   70ccc    H12 2068   5.862   5.331   7.951  0.5688 -2.0338  0.7555
   70ccc    H13 2069   5.957   5.449   7.872 -2.2112 -0.0586  1.5533
   70ccc     C8 2070   6.077   5.312   7.984  0.2011 -0.1485 -0.4503
   70ccc    H14 2071   6.078   5.206   8.012  2.1579 -0.2692 -0.9136
   70ccc    H15 2072   6.168   5.336   7.928  0.7179  0.1379  0.4987
   70ccc     C9 2073   6.099   5.395   8.107 -0.6196  0.4016 -0.2486
   70ccc     O3 2074   6.031   5.489   8.158 -0.2802 -0.0319  0.0529
   70ccc     O4 2075   6.211   5.354   8.177  1.1193  0.1810 -0.1296
   70ccc    H16 2076   6.235   5.271   8.133  1.7241  0.1347  0.2862
   70ccc     O5 2077   5.775   4.884   7.792 -0.3205 -0.8135 -0.2714
   71ccc     C1 2078   4.102   3.262   7.192 -0.1749 -0.6989 -0.2126
   71ccc     H1 2079   4.006   3.272   7.141 -0.0536 -2.2343 -0.7700
   71ccc     H2 2080   4.104   3.324   7.283  1.8882 -1.4278  0.2823
   71ccc     C2 2081   4.225   3.301   7.099  1.1406  0.6811  0.3310
   71ccc     H3 2082   4.190   3.400   7.067  1.6615  2.1218  3.9902
   71ccc     H4 2083   4.226   3.230   7.015  1.0813  1.0866 -0.0198
   71ccc     C3 2084   4.367   3.308   7.156 -0.7866 -0.4578 -0.1225
   71ccc     H5 2085   4.438   3.294   7.074 -0.7641  0.6242 -0.2921
   71ccc     H6 2086   4.379   3.219   7.220 -1.3390 -0.9868 -0.7368
   71ccc     N1 2087   4.410   3.429   7.229 -0.1721  0.7263 -0.0152
   71ccc     C4 2088   4.399   3.553   7.145  0.5213 -0.0247  0.0490
   71ccc     H7 2089   4.296   3.589   7.132  1.1565  2.2593  1.1602
   71ccc     H8 2090   4.460   3.630   7.194 -1.0918  0.9087  0.6276
   71ccc     C5 2091   4.472   3.536   7.016 -0.2156  0.1682 -0.0659
   71ccc     H9 2092   4.419   3.471   6.945  0.7176  0.3845 -0.9593
   71ccc    H10 2093   4.571   3.491   7.030 -0.3626 -0.5118 -1.1549
   71ccc     C6 2094   4.488   3.672   6.947 -0.2045 -0.3377 -0.0042
   71ccc     O1 2095   4.422   3.711   6.854  0.1617 -0.5572 -0.1530
   71ccc     O2 2096   4.607   3.726   6.961 -0.4851  0.1398 -0.4038
   71ccc    H11 2097   4.627   3.677   7.043  1.3119 -1.4107 -1.7228
   71ccc     C7 2098   4.371   3.449   7.366 -0.3692  0.1518 -0.4283
   71ccc    H12 2099   4.281   3.512   7.375  0.2859  1.1883 -0.9607
   71ccc    H13 2100   4.341   3.356   7.415  1.2451 -1.4943 -2.4838
   71ccc     C8 2101   4.487   3.513   7.451  0.3496  0.0853 -0.1106
   71ccc    H14 2102   4.579   3.453   7.444  0.8530  1.0336 -1.8950
   71ccc    H15 2103   4.506   3.606   7.398  0.5858 -0.0756 -0.3116
   71ccc     C9 2104   4.443   3.544   7.597 -1.0907  0.8360  0.3342
   71ccc     O3 2105   4.329   3.532   7.625  0.3788 -0.1963  0.1376
   71ccc     O4 2106   4.536   3.548   7.691 -0.6498  0.1989 -0.1309
   71ccc    H16 2107   4.619   3.574   7.647 -0.3068 -0.4948  0.0956
   71ccc     O5 2108   4.140   3.127   7.234 -0.0260 -0.1556 -0.2265
   72ccc     C1 2109   4.357   2.384   7.674 -0.0189 -0.4931 -0.5077
   72ccc     H1 2110   4.398   2.282   7.684  0.8118 -0.0781  0.4692
   72ccc     H2 2111   4.340   2.427   7.774 -0.3290 -0.0769 -0.7392
   72ccc     C2 2112   4.211   2.369   7.616 -1.0511  0.9508 -0.0908
   72ccc     H3 2113   4.162   2.467   7.615 -0.6474  1.2079  2.2926
   72ccc     H4 2114   4.161   2.314   7.696  2.0376 -1.4780  0.2670
   72ccc     C3 2115   4.200   2.285   7.488  0.5287  0.1464  0.4965
   72ccc     H5 2116   4.233   2.181   7.499  1.4221  0.4718  0.9866
   72ccc     H6 2117   4.265   2.319   7.406  0.9920  0.8525  1.1508
   72ccc     N1 2118   4.067   2.279   7.427  0.3350 -0.2913 -0.3723
   72ccc     C4 2119   3.966   2.198   7.511 -0.0971  0.5435  0.0036
   72ccc     H7 2120   3.862   2.207   7.477 -0.1312 -1.2781 -0.4121
   72ccc     H8 2121   3.973   2.232   7.615 -2.5914  1.6649 -0.1606
   72ccc     C5 2122   4.009   2.047   7.526 -0.0758  0.1669  0.4559
   72ccc     H9 2123   4.048   2.015   7.428 -1.1016  4.3938 -1.4250
   72ccc    H10 2124   4.098   2.043   7.590 -0.0492 -1.5820  0.3385
   72ccc     C6 2125   3.896   1.955   7.575 -0.5459 -0.3881 -0.3164
   72ccc     O1 2126   3.855   1.972   7.687 -0.1789  0.2690  0.3905
   72ccc     O2 2127   3.902   1.830   7.518  0.3166  0.0634 -0.1949
   72ccc    H11 2128   3.951   1.844   7.435  2.5812 -1.0127  0.9056
   72ccc     C7 2129   4.010   2.402   7.361 -0.7040  0.7916 -0.1601
   72ccc    H12 2130   3.988   2.477   7.438  0.3924  0.3607  0.5918
   72ccc    H13 2131   3.917   2.375   7.310  0.5616 -0.4784 -1.8463
   72ccc     C8 2132   4.113   2.465   7.261 -0.2593  0.4441  0.3769
   72ccc    H14 2133   4.135   2.403   7.174  0.0613  0.0557  0.7326
   72ccc    H15 2134   4.208   2.488   7.311  1.3096 -2.8333 -0.9816
   72ccc     C9 2135   4.069   2.601   7.201 -0.0555  0.9010 -0.2010
   72ccc     O3 2136   3.968   2.653   7.246  0.0842 -0.1093  0.4525
   72ccc     O4 2137   4.161   2.672   7.131 -0.0359  0.1802  0.4748
   72ccc    H16 2138   4.231   2.610   7.106 -0.1784 -0.1821  0.9660
   72ccc     O5 2139   4.434   2.488   7.601 -0.1798  0.3848 -0.9207
   73ccc     C1 2140   5.890   3.196   8.899 -0.1580 -0.0723 -0.0533
   73ccc     H1 2141   5.910   3.256   8.810  2.3811 -1.0289 -0.1722
   73ccc     H2 2142   5.866   3.261   8.984 -0.8156  1.3613 -1.3284
   73ccc     C2 2143   6.017   3.108   8.933 -0.6500  0.3513 -0.4995
   73ccc     H3 2144   6.014   3.027   8.860 -0.8877 -1.2963  1.3028
   73ccc     H4 2145   6.013   3.071   9.036  0.6937  0.7220 -0.3010
   73ccc     C3 2146   6.143   3.199   8.899 -0.0243  0.3074 -0.2326
   73ccc     H5 2147   6.229   3.147   8.944 -1.2954 -1.1942  0.5400
   73ccc     H6 2148   6.128   3.294   8.951 -0.8682 -1.0547  2.0918
   73ccc     N1 2149   6.178   3.224   8.754  0.5810 -0.3463 -0.2043
   73ccc     C4 2150   6.178   3.099   8.666  0.5455 -0.2735  0.1067
   73ccc     H7 2151   6.075   3.061   8.657  0.8056 -0.8965 -0.2549
   73ccc     H8 2152   6.249   3.029   8.711  2.1499  0.0474 -1.8349
   73ccc     C5 2153   6.231   3.120   8.520  0.0921 -0.1087 -0.0130
   73ccc     H9 2154   6.168   3.193   8.468  1.9707  1.1443 -0.5496
   73ccc    H10 2155   6.335   3.153   8.525 -0.4278  1.7022 -0.7146
   73ccc     C6 2156   6.228   2.994   8.434 -0.6262  0.1028 -1.0253
   73ccc     O1 2157   6.179   2.888   8.470 -0.1783  0.1356 -0.6230
   73ccc     O2 2158   6.327   2.983   8.344  0.0710 -0.0698 -0.0962
   73ccc    H11 2159   6.347   3.077   8.328  2.7275 -0.5296  0.3312
   73ccc     C7 2160   6.293   3.320   8.732 -0.8346 -0.9583  0.0447
   73ccc    H12 2161   6.287   3.364   8.632  1.0714  2.8090  1.4808
   73ccc    H13 2162   6.385   3.262   8.718 -0.5350 -0.1940 -1.2191
   73ccc     C8 2163   6.315   3.430   8.843  0.3269  0.6421 -0.1296
   73ccc    H14 2164   6.222   3.487   8.853 -1.3239 -1.8063 -0.9857
   73ccc    H15 2165   6.349   3.390   8.939  0.2522  2.2331  0.5708
   73ccc     C9 2166   6.422   3.532   8.799 -0.0013 -0.0722  0.0960
   73ccc     O3 2167   6.489   3.530   8.695 -0.5042 -0.3512 -0.0140
   73ccc     O4 2168   6.418   3.642   8.879 -0.3111 -0.5012 -0.4675
   73ccc    H16 2169   6.368   3.619   8.960  2.4735  1.4852  1.9235
   73ccc     O5 2170   5.782   3.104   8.881  0.1557 -0.3135 -0.0748
   74ccc     C1 2171   4.990   2.597   9.068 -0.0809  0.3029 -0.0880
   74ccc     H1 2172   5.047   2.595   9.162  2.8371  2.6930 -1.7398
   74ccc     H2 2173   4.931   2.689   9.060 -2.6612 -1.2065  0.7775
   74ccc     C2 2174   4.906   2.470   9.038 -0.3073 -0.2212  0.6995
   74ccc     H3 2175   4.966   2.382   9.063 -1.4307 -1.2324 -0.0900
   74ccc     H4 2176   4.879   2.475   8.931  1.8405  1.8177  0.2157
   74ccc     C3 2177   4.775   2.467   9.123  0.5524  0.4942  0.2491
   74ccc     H5 2178   4.716   2.559   9.109 -0.7969 -0.4530 -0.4367
   74ccc     H6 2179   4.802   2.461   9.229 -0.3741 -0.8146  0.4228
   74ccc     N1 2180   4.690   2.343   9.111  0.6554 -0.4842  0.0999
   74ccc     C4 2181   4.591   2.324   9.214  0.1349 -0.0529  0.5210
   74ccc     H7 2182   4.636   2.318   9.314  2.3873 -4.2982 -0.6537
   74ccc     H8 2183   4.532   2.233   9.200  0.3811 -0.2081  0.4966
   74ccc     C5 2184   4.489   2.446   9.212  0.5765 -0.0376 -0.1134
   74ccc     H9 2185   4.550   2.535   9.232  1.7762 -0.0879 -3.2358
   74ccc    H10 2186   4.433   2.463   9.119  1.3623  3.3720 -0.0215
   74ccc     C6 2187   4.389   2.446   9.320  0.5882 -0.1556 -0.0561
   74ccc     O1 2188   4.375   2.360   9.407  0.2126  0.3831  0.2907
   74ccc     O2 2189   4.336   2.565   9.353  0.1086 -0.1832 -1.0652
   74ccc    H11 2190   4.328   2.617   9.271 -0.9171 -0.0729 -0.9022
   74ccc     C7 2191   4.637   2.301   8.980  0.0003  0.2750 -0.4135
   74ccc    H12 2192   4.551   2.235   8.996 -0.7403  1.0680 -1.0744
   74ccc    H13 2193   4.590   2.388   8.932 -1.0347  0.0675  0.1996
   74ccc     C8 2194   4.735   2.231   8.890  0.5096 -0.4445 -0.2794
   74ccc    H14 2195   4.816   2.290   8.845  0.2828  0.0472 -0.0496
   74ccc    H15 2196   4.782   2.149   8.945 -0.3156 -0.5748  0.2322
   74ccc     C9 2197   4.674   2.175   8.767  0.1024 -0.0219  0.3747
   74ccc     O3 2198   4.678   2.232   8.656  0.4852  0.8721 -0.2323
   74ccc     O4 2199   4.650   2.042   8.765 -0.7239 -0.1241  0.4189
   74ccc    H16 2200   4.655   2.025   8.861 -3.1329  1.4453  0.8820
   74ccc     O5 2201   5.081   2.592   8.953  0.1802  0.3244  0.1835
   75ccc     C1 2202   5.515   2.880   8.377 -0.0248  0.3619 -0.3367
   75ccc     H1 2203   5.531   2.849   8.481 -0.1380  1.0669 -0.1003
   75ccc     H2 2204   5.533   2.988   8.390  0.3714  0.2116  0.4012
   75ccc     C2 2205   5.380   2.846   8.321  0.3155  0.4171 -0.0917
   75ccc     H3 2206   5.379   2.856   8.212  2.6458  0.8747 -0.0991
   75ccc     H4 2207   5.304   2.914   8.363  0.5707 -0.3712  1.7015
   75ccc     C3 2208   5.336   2.706   8.370  0.0969  0.3588 -0.6919
   75ccc     H5 2209   5.360   2.696   8.476 -3.3268  1.7332  0.2868
   75ccc     H6 2210   5.391   2.624   8.323 -0.3227  0.5939 -1.6078
   75ccc     N1 2211   5.191   2.697   8.349  0.2513  0.7484  0.1100
   75ccc     C4 2212   5.135   2.581   8.424  0.1853 -0.1980  0.2159
   75ccc     H7 2213   5.182   2.485   8.398  0.9621  0.6581 -1.6751
   75ccc     H8 2214   5.030   2.573   8.393  0.7180 -0.8150 -1.4958
   75ccc     C5 2215   5.141   2.611   8.573  0.3160 -0.8032  0.0024
   75ccc     H9 2216   5.228   2.555   8.610  0.6451  0.1077  0.6246
   75ccc    H10 2217   5.158   2.716   8.596 -0.4889 -0.0219 -2.7605
   75ccc     C6 2218   5.017   2.565   8.642  0.0525 -0.5280 -0.2028
   75ccc     O1 2219   5.014   2.451   8.692  0.3494 -0.0859  0.5544
   75ccc     O2 2220   4.905   2.622   8.608  0.2589 -0.1165  0.4896
   75ccc    H11 2221   4.931   2.712   8.582 -1.1980 -0.1702 -1.2370
   75ccc     C7 2222   5.145   2.696   8.202 -0.0709 -0.1071  0.5485
   75ccc    H12 2223   5.037   2.705   8.185  0.1336  0.9082 -0.2782
   75ccc    H13 2224   5.185   2.781   8.146 -0.8837 -0.8046 -1.1349
   75ccc     C8 2225   5.193   2.569   8.132  0.4501 -0.0584  0.2701
   75ccc    H14 2226   5.301   2.563   8.117  0.4022  3.6082 -2.4558
   75ccc    H15 2227   5.160   2.479   8.185 -0.6881  0.5351  0.6052
   75ccc     C9 2228   5.131   2.565   7.994 -0.3898 -0.5401 -0.7376
   75ccc     O3 2229   5.065   2.653   7.940 -0.0365  0.0246 -0.1993
   75ccc     O4 2230   5.150   2.452   7.918 -0.0008  0.1391 -0.6040
   75ccc    H16 2231   5.186   2.391   7.985  1.2359  2.0955  0.5875
   75ccc     O5 2232   5.629   2.817   8.303 -0.3979 -0.1490  0.3328
   76ccc     C1 2233   6.003   2.628   7.453  0.3268  0.8292  0.0321
   76ccc     H1 2234   5.948   2.534   7.442 -0.6182  1.2294  1.1936
   76ccc     H2 2235   5.970   2.700   7.378  0.6743  3.5445  2.3762
   76ccc     C2 2236   6.158   2.593   7.438  0.5595 -0.0932  0.3488
   76ccc     H3 2237   6.216   2.686   7.442  0.9472 -0.2963 -0.3644
   76ccc     H4 2238   6.168   2.541   7.342  2.6335  2.2314 -0.7523
   76ccc     C3 2239   6.205   2.503   7.559 -0.5811 -0.4461 -0.3896
   76ccc     H5 2240   6.130   2.426   7.580  1.8126 -2.3740  1.4646
   76ccc     H6 2241   6.214   2.573   7.642 -0.1875 -0.5387 -0.3503
   76ccc     N1 2242   6.343   2.447   7.540 -0.5114 -0.0396  0.3593
   76ccc     C4 2243   6.458   2.541   7.569  0.2432 -0.4747  0.0569
   76ccc     H7 2244   6.459   2.611   7.485  0.7474 -0.6154 -0.0556
   76ccc     H8 2245   6.555   2.491   7.557  1.1077  1.0916  0.3436
   76ccc     C5 2246   6.451   2.627   7.698  0.2301  0.1541 -0.1811
   76ccc     H9 2247   6.365   2.695   7.691 -0.1454 -0.0001  2.3068
   76ccc    H10 2248   6.440   2.567   7.789 -0.9016 -3.7118 -2.7489
   76ccc     C6 2249   6.579   2.711   7.709  0.0014  0.2144 -0.1599
   76ccc     O1 2250   6.594   2.830   7.676  0.5840 -0.6266  0.4393
   76ccc     O2 2251   6.678   2.648   7.771  0.9529 -0.0743  0.2439
   76ccc    H11 2252   6.646   2.561   7.800 -2.6717  0.5096 -1.6433
   76ccc     C7 2253   6.351   2.351   7.431  0.1943  0.1318  0.2369
   76ccc    H12 2254   6.259   2.292   7.433 -0.1401  0.6582  0.6976
   76ccc    H13 2255   6.343   2.401   7.333  0.8923  1.1952  0.7050
   76ccc     C8 2256   6.480   2.259   7.440 -0.4261  0.2329  0.4478
   76ccc    H14 2257   6.481   2.208   7.536  0.8451  0.9774  0.8332
   76ccc    H15 2258   6.570   2.321   7.430 -0.5642  0.7736  2.4854
   76ccc     C9 2259   6.482   2.144   7.341 -0.2354  0.2820 -0.5298
   76ccc     O3 2260   6.477   2.022   7.361  0.0511  0.0163 -0.0142
   76ccc     O4 2261   6.485   2.184   7.214  0.2994 -0.2425  0.5687
   76ccc    H16 2262   6.516   2.276   7.219  0.5841 -0.2523 -0.7183
   76ccc     O5 2263   5.974   2.688   7.585  0.2902  0.2748  0.3728
   77ccc     C1 2264   6.371   3.654   7.076 -0.6251 -0.0557 -0.2874
   77ccc     H1 2265   6.443   3.589   7.128 -0.3347  0.8320  0.4309
   77ccc     H2 2266   6.274   3.602   7.075 -0.4209 -0.5618  1.9974
   77ccc     C2 2267   6.425   3.689   6.936 -0.3230  0.4318 -0.1073
   77ccc     H3 2268   6.534   3.696   6.936 -0.3541  2.2828 -3.7105
   77ccc     H4 2269   6.405   3.795   6.914  2.8319  0.9374 -0.7534
   77ccc     C3 2270   6.368   3.603   6.830 -0.5962 -0.9039 -0.1154
   77ccc     H5 2271   6.407   3.502   6.848  1.6641 -0.5068 -2.5327
   77ccc     H6 2272   6.425   3.638   6.743 -2.3733  1.5260 -0.3586
   77ccc     N1 2273   6.229   3.616   6.793 -0.1573 -0.1555  0.0401
   77ccc     C4 2274   6.181   3.502   6.706 -0.0239 -0.2609  0.2602
   77ccc     H7 2275   6.234   3.510   6.610 -0.5291  0.1298  0.0066
   77ccc     H8 2276   6.074   3.509   6.681  0.2167  0.5203 -0.5795
   77ccc     C5 2277   6.212   3.364   6.768  0.5253  0.5055 -0.1171
   77ccc     H9 2278   6.309   3.327   6.733  2.8084  0.8988  5.3800
   77ccc    H10 2279   6.218   3.376   6.877 -2.8219 -0.3936  0.2237
   77ccc     C6 2280   6.114   3.261   6.725  0.6004 -0.5087 -0.4879
   77ccc     O1 2281   6.029   3.270   6.638  0.2095  0.1992 -0.2347
   77ccc     O2 2282   6.128   3.141   6.782 -0.2592 -0.4466 -0.1818
   77ccc    H11 2283   6.222   3.141   6.807 -0.3358  1.6817  0.1904
   77ccc     C7 2284   6.196   3.756   6.745 -0.1602 -0.0072 -0.1259
   77ccc    H12 2285   6.268   3.812   6.684 -2.2328  0.6733 -1.9971
   77ccc    H13 2286   6.198   3.830   6.826 -1.1898  0.0043 -0.1028
   77ccc     C8 2287   6.050   3.759   6.684  0.5540 -0.5408  0.4724
   77ccc    H14 2288   6.049   3.708   6.587  0.4106  2.2467 -1.0365
   77ccc    H15 2289   5.987   3.711   6.761  1.4206 -0.0096  1.5372
   77ccc     C9 2290   5.999   3.898   6.650  0.3692  0.3671 -0.4248
   77ccc     O3 2291   6.056   3.995   6.690 -0.2328  0.1257  0.2160
   77ccc     O4 2292   5.913   3.910   6.546  0.1572  0.9379 -0.2211
   77ccc    H16 2293   5.856   3.831   6.552 -1.3517  1.9192 -1.2872
   77ccc     O5 2294   6.365   3.784   7.160  0.5703  0.5243 -0.2604
   78ccc     C1 2295   6.836   3.857   7.986  0.3606 -0.3302 -0.0144
   78ccc     H1 2296   6.910   3.930   8.018 -1.7410  0.6121  2.8437
   78ccc     H2 2297   6.743   3.875   8.041  0.6055 -1.4484  0.7874
   78ccc     C2 2298   6.881   3.718   8.027 -0.9105 -0.3140 -0.2433
   78ccc     H3 2299   6.813   3.655   7.968 -3.4637  4.2098 -2.3870
   78ccc     H4 2300   6.855   3.714   8.133  0.5649  0.6374  0.1652
   78ccc     C3 2301   7.029   3.698   7.984  0.1064  1.0043 -0.0272
   78ccc     H5 2302   7.108   3.750   8.040  1.1346  2.7396 -2.9823
   78ccc     H6 2303   7.032   3.738   7.882  2.7676  1.2635  0.1189
   78ccc     N1 2304   7.049   3.550   7.979  0.5071  0.0606  0.3585
   78ccc     C4 2305   7.052   3.476   8.112  0.2537  0.1891 -0.2020
   78ccc     H7 2306   7.063   3.368   8.098  1.5761  0.6527 -3.0147
   78ccc     H8 2307   6.959   3.492   8.169  0.3747 -0.5931  0.2183
   78ccc     C5 2308   7.165   3.520   8.203 -0.1314 -0.1035  0.3410
   78ccc     H9 2309   7.258   3.477   8.164 -0.5496 -1.2698  0.6054
   78ccc    H10 2310   7.175   3.629   8.198 -1.3703  0.1400  2.3404
   78ccc     C6 2311   7.146   3.489   8.349 -0.3200 -0.2706  0.1785
   78ccc     O1 2312   7.097   3.384   8.382 -0.7239  0.4175  0.2589
   78ccc     O2 2313   7.245   3.542   8.421 -0.2058 -0.2060 -0.3050
   78ccc    H11 2314   7.286   3.616   8.373  0.0548  0.5994  1.1076
   78ccc     C7 2315   7.140   3.499   7.872 -0.2435  0.4272  0.0602
   78ccc    H12 2316   7.246   3.511   7.897  0.0518  1.8075 -1.7065
   78ccc    H13 2317   7.124   3.558   7.781  1.3360 -1.3612 -1.4041
   78ccc     C8 2318   7.109   3.349   7.838  0.4232  0.2406  0.7024
   78ccc    H14 2319   7.129   3.281   7.922 -1.5091 -0.6820  0.4433
   78ccc    H15 2320   7.002   3.331   7.823  0.4212 -1.4035  2.4000
   78ccc     C9 2321   7.194   3.296   7.730  0.0489 -0.0508  0.3090
   78ccc     O3 2322   7.304   3.345   7.702  0.0903 -0.6103  0.1501
   78ccc     O4 2323   7.200   3.163   7.731 -0.5965 -0.4185  0.2468
   78ccc    H16 2324   7.104   3.150   7.741 -0.5718 -0.6011  0.2513
   78ccc     O5 2325   6.804   3.857   7.842 -0.6129 -0.1484  0.1934
   79ccc     C1 2326   5.259   6.060   9.358  0.5598  0.3041 -0.9053
   79ccc     H1 2327   5.150   6.060   9.361  0.5737  0.4420 -0.1373
   79ccc     H2 2328   5.314   6.104   9.443  1.5024  0.1527 -1.4219
   79ccc     C2 2329   5.310   6.144   9.236  1.2307  0.4069 -0.7414
   79ccc     H3 2330   5.267   6.100   9.145 -1.8938  0.5040  0.6117
   79ccc     H4 2331   5.417   6.121   9.231  1.0204 -1.0544  0.6976
   79ccc     C3 2332   5.269   6.292   9.237 -0.4272 -0.0146  0.3810
   79ccc     H5 2333   5.162   6.304   9.216 -0.1366  0.4025 -0.9359
   79ccc     H6 2334   5.302   6.340   9.144  0.6730 -0.2025  0.6683
   79ccc     N1 2335   5.321   6.372   9.356 -0.0860 -0.4178  0.4317
   79ccc     C4 2336   5.445   6.447   9.337 -0.7876 -0.6023  0.2624
   79ccc     H7 2337   5.456   6.510   9.426 -1.9947 -1.6610  1.1715
   79ccc     H8 2338   5.437   6.506   9.245  1.5458  0.4393  0.7020
   79ccc     C5 2339   5.570   6.356   9.324 -0.1256 -0.1882 -0.7141
   79ccc     H9 2340   5.554   6.294   9.235 -0.9770 -1.4749  0.3048
   79ccc    H10 2341   5.656   6.421   9.304  1.2717 -0.4796  3.7368
   79ccc     C6 2342   5.591   6.283   9.457  0.1430 -0.4548  0.3104
   79ccc     O1 2343   5.564   6.325   9.569  0.0518 -0.0870  0.4393
   79ccc     O2 2344   5.612   6.154   9.455  0.4798  0.1296  0.1501
   79ccc    H11 2345   5.638   6.138   9.362 -0.6305  0.9588 -0.3078
   79ccc     C7 2346   5.212   6.451   9.420  0.9789 -0.2173  0.1267
   79ccc    H12 2347   5.255   6.514   9.499  2.6046 -2.0277  0.6993
   79ccc    H13 2348   5.170   6.520   9.346  2.1494  1.1566  0.7183
   79ccc     C8 2349   5.094   6.364   9.470  0.6052  0.1125  0.1322
   79ccc    H14 2350   5.038   6.308   9.393  0.8933 -0.2904  0.2134
   79ccc    H15 2351   5.134   6.294   9.544 -0.5885 -1.1994 -0.4384
   79ccc     C9 2352   4.988   6.453   9.527  0.3641  0.2397 -0.3791
   79ccc     O3 2353   4.906   6.514   9.469 -0.0519 -0.0108  0.1177
   79ccc     O4 2354   4.952   6.424   9.648 -0.9866 -0.1146 -0.4352
   79ccc    H16 2355   5.003   6.347   9.680 -2.4416 -0.8881  0.0591
   79ccc     O5 2356   5.302   5.925   9.330 -0.3905  0.0023 -0.1083
   80ccc     C1 2357   4.941   5.246   9.013 -0.3098 -0.5129 -0.0161
   80ccc     H1 2358   4.833   5.236   9.003 -0.4188  1.2804 -0.9074
   80ccc     H2 2359   4.979   5.309   8.932 -0.7802 -0.4977 -0.2235
   80ccc     C2 2360   5.008   5.110   8.998 -0.4377 -0.3193 -1.1664
   80ccc     H3 2361   4.948   5.036   9.053  0.9158  0.4383  1.4369
   80ccc     H4 2362   5.102   5.108   9.055 -0.7106  1.5321 -0.6126
   80ccc     C3 2363   5.032   5.078   8.844 -0.9405 -0.9827  0.0408
   80ccc     H5 2364   5.106   5.143   8.796 -4.1770  2.6972 -0.2003
   80ccc     H6 2365   4.938   5.108   8.797 -0.6492 -0.0322  0.0537
   80ccc     N1 2366   5.062   4.936   8.807 -0.1113  0.4005  0.0416
   80ccc     C4 2367   5.169   4.869   8.886  0.1129 -0.1466  1.2702
   80ccc     H7 2368   5.144   4.762   8.888 -0.6736 -0.0086 -0.0513
   80ccc     H8 2369   5.179   4.910   8.987  2.5497 -0.0410  1.0084
   80ccc     C5 2370   5.304   4.911   8.819  0.4366 -0.2092  0.1622
   80ccc     H9 2371   5.318   4.869   8.719 -0.7021 -3.1886  1.2005
   80ccc    H10 2372   5.314   5.020   8.823 -1.8888 -0.0294  1.4077
   80ccc     C6 2373   5.412   4.849   8.908 -0.7043 -0.3655 -0.7688
   80ccc     O1 2374   5.404   4.741   8.961  0.0465 -0.3632 -0.8231
   80ccc     O2 2375   5.530   4.907   8.901  0.2865 -0.4886 -0.2626
   80ccc    H11 2376   5.511   4.967   8.827 -1.7710 -1.6887 -0.7427
   80ccc     C7 2377   5.064   4.916   8.661  0.5765  0.1352  0.1419
   80ccc    H12 2378   5.142   4.980   8.616  0.0920  1.7863  1.5883
   80ccc    H13 2379   5.094   4.811   8.649  1.3239  0.3913 -0.2978
   80ccc     C8 2380   4.934   4.939   8.598 -0.3515  0.5948 -0.0366
   80ccc    H14 2381   4.857   4.894   8.663  0.2622 -0.3204  0.0632
   80ccc    H15 2382   4.907   5.044   8.582  1.5631  0.8575 -1.5992
   80ccc     C9 2383   4.916   4.874   8.458 -0.3332  0.7513 -0.0297
   80ccc     O3 2384   5.014   4.844   8.388 -0.0624  0.2208 -0.5759
   80ccc     O4 2385   4.803   4.801   8.444 -0.2213 -0.0737 -0.6580
   80ccc    H16 2386   4.747   4.836   8.515  0.9373  1.4450 -0.4851
   80ccc     O5 2387   4.975   5.286   9.146  0.2697 -0.2758 -0.0361
   81ccc     C1 2388   5.014   4.237   9.025  0.3521 -0.5294  0.1484
   81ccc     H1 2389   4.992   4.185   8.931  1.3904 -0.9631  0.1375
   81ccc     H2 2390   5.045   4.341   9.006  0.3940 -0.3572  1.1728
   81ccc     C2 2391   5.130   4.170   9.106 -0.0922  0.5251  0.3926
   81ccc     H3 2392   5.120   4.181   9.215  2.2568  0.8873  0.5831
   81ccc     H4 2393   5.218   4.227   9.076 -0.0953  1.0873  1.4391
   81ccc     C3 2394   5.142   4.014   9.083  0.2354 -0.8726  0.3486
   81ccc     H5 2395   5.138   3.989   8.976  0.1619 -1.4718  0.4937
   81ccc     H6 2396   5.043   3.984   9.119 -0.1684  1.0399  0.8700
   81ccc     N1 2397   5.254   3.940   9.147 -0.2938  0.0596 -0.4542
   81ccc     C4 2398   5.393   3.981   9.102 -0.0696  0.0666  1.1982
   81ccc     H7 2399   5.394   4.091   9.102 -0.0458  0.0735 -0.0490
   81ccc     H8 2400   5.410   3.949   8.998 -1.4137  0.5372  0.8126
   81ccc     C5 2401   5.499   3.929   9.202  0.8031 -0.3675  0.9307
   81ccc     H9 2402   5.481   3.957   9.307 -0.1781  0.6850  0.4868
   81ccc    H10 2403   5.489   3.820   9.205  0.7562 -0.3884  0.1341
   81ccc     C6 2404   5.639   3.965   9.167 -0.0174 -0.3600  0.7478
   81ccc     O1 2405   5.672   4.058   9.094 -0.2225  0.1638 -0.8728
   81ccc     O2 2406   5.736   3.920   9.247  0.7908  0.5570  0.5287
   81ccc    H11 2407   5.697   3.846   9.297  1.7096  0.5009  1.1862
   81ccc     C7 2408   5.223   3.802   9.167  0.1376  0.5655 -0.4719
   81ccc    H12 2409   5.217   3.746   9.073  1.1609 -2.3073  1.1080
   81ccc    H13 2410   5.314   3.759   9.210 -1.6644 -3.1823 -0.2335
   81ccc     C8 2411   5.122   3.777   9.286  0.2115 -0.5364 -0.6906
   81ccc    H14 2412   5.175   3.717   9.361 -1.1052 -0.6663  0.1608
   81ccc    H15 2413   5.097   3.867   9.343  1.3345  0.0668 -1.1504
   81ccc     C9 2414   4.991   3.710   9.238  0.0566  0.0793  0.1359
   81ccc     O3 2415   4.934   3.766   9.147  0.5382 -0.1297 -0.2341
   81ccc     O4 2416   4.972   3.577   9.243 -0.7353 -0.5561 -0.3939
   81ccc    H16 2417   5.039   3.542   9.304 -1.1700  1.2815  1.2201
   81ccc     O5 2418   4.901   4.228   9.119 -0.4770 -0.0595  0.7785
   82ccc     C1 2419   4.374   3.900   9.108 -0.9944  0.9068  0.0414
   82ccc     H1 2420   4.301   3.900   9.026  1.5897  1.3387 -2.3540
   82ccc     H2 2421   4.437   3.989   9.094 -0.7607  0.8413  0.6674
   82ccc     C2 2422   4.475   3.780   9.100  1.0278 -0.0860  0.1650
   82ccc     H3 2423   4.540   3.798   9.187  2.3376  1.2901 -1.0748
   82ccc     H4 2424   4.541   3.801   9.015 -1.4602 -0.1863 -1.8691
   82ccc     C3 2425   4.405   3.646   9.101  0.1886  0.8923 -0.6989
   82ccc     H5 2426   4.351   3.631   9.007 -1.7695 -1.6340  0.7656
   82ccc     H6 2427   4.330   3.639   9.181  0.9693  0.2353 -0.0176
   82ccc     N1 2428   4.519   3.547   9.113 -0.4337 -0.4192  1.0074
   82ccc     C4 2429   4.467   3.405   9.139 -0.2959 -0.5500  0.5474
   82ccc     H7 2430   4.557   3.347   9.164  2.1231  3.6163  2.2040
   82ccc     H8 2431   4.417   3.368   9.049  0.7299  1.3749 -0.8549
   82ccc     C5 2432   4.370   3.387   9.255  0.5602 -0.1680 -0.1689
   82ccc     H9 2433   4.413   3.430   9.346  1.7103 -2.4295  0.4060
   82ccc    H10 2434   4.274   3.437   9.238 -0.2146 -1.7876 -0.6268
   82ccc     C6 2435   4.336   3.244   9.285 -0.4275  0.6567 -0.2904
   82ccc     O1 2436   4.362   3.146   9.221  0.0875 -0.5308 -0.4069
   82ccc     O2 2437   4.229   3.228   9.362  0.1273 -0.2216  0.1835
   82ccc    H11 2438   4.216   3.318   9.397 -1.2285 -0.6748  0.8974
   82ccc     C7 2439   4.630   3.553   9.019 -0.1295  0.5804  0.4294
   82ccc    H12 2440   4.590   3.547   8.917 -0.3103 -0.5981  0.5584
   82ccc    H13 2441   4.683   3.649   9.029  1.1331 -0.0387 -0.0833
   82ccc     C8 2442   4.743   3.448   9.032  0.5426  0.0952 -0.9894
   82ccc    H14 2443   4.783   3.428   9.132 -1.7679 -1.5771 -0.3406
   82ccc    H15 2444   4.701   3.351   9.001  0.6539 -0.0771 -0.6013
   82ccc     C9 2445   4.856   3.476   8.935  0.3892 -0.2848  0.1579
   82ccc     O3 2446   4.863   3.445   8.814  0.3858  0.7502 -0.4362
   82ccc     O4 2447   4.975   3.475   8.993 -0.4428  0.5506  0.2766
   82ccc    H16 2448   4.964   3.514   9.082 -0.1731  0.4082  0.3749
   82ccc     O5 2449   4.320   3.894   9.239  0.2964 -0.3105 -0.3440
   83ccc     C1 2450   3.455   3.273  10.468  0.3136  0.3667  0.3554
   83ccc     H1 2451   3.440   3.308  10.366 -1.0979  2.2422  1.1671
   83ccc     H2 2452   3.473   3.165  10.474  0.2571  0.4582  2.9755
   83ccc     C2 2453   3.325   3.297  10.551 -0.1057 -0.9171 -0.1741
   83ccc     H3 2454   3.241   3.234  10.520  0.7762 -1.8326 -0.7400
   83ccc     H4 2455   3.288   3.399  10.534 -1.4987 -1.1451  1.3376
   83ccc     C3 2456   3.347   3.260  10.703 -0.1372  0.1327 -0.7314
   83ccc     H5 2457   3.421   3.322  10.755 -0.4270 -0.5025  0.4526
   83ccc     H6 2458   3.415   3.174  10.698 -0.3405 -0.1228  0.6716
   83ccc     N1 2459   3.222   3.235  10.779 -0.5053  0.4281  0.0152
   83ccc     C4 2460   3.250   3.188  10.914 -0.2889  0.0440 -0.4362
   83ccc     H7 2461   3.151   3.161  10.954 -0.6402  4.0639  1.7050
   83ccc     H8 2462   3.281   3.270  10.980 -2.5772 -0.0879  0.8783
   83ccc     C5 2463   3.356   3.080  10.937 -0.0726  0.0013  0.3182
   83ccc     H9 2464   3.338   2.992  10.873  2.6833  0.5898 -1.3870
   83ccc    H10 2465   3.456   3.114  10.908 -0.3372  1.2351  0.8297
   83ccc     C6 2466   3.365   3.038  11.083  0.1752 -0.3462 -0.4473
   83ccc     O1 2467   3.451   3.086  11.162  0.8644 -0.0014 -0.1065
   83ccc     O2 2468   3.300   2.932  11.119  0.4525  0.1039  0.1069
   83ccc    H11 2469   3.239   2.911  11.047  0.4530 -1.5544  0.5770
   83ccc     C7 2470   3.126   3.351  10.773 -0.2101 -0.1480  0.3879
   83ccc    H12 2471   3.155   3.424  10.849 -1.1347 -0.7992  1.3714
   83ccc    H13 2472   3.125   3.397  10.673 -1.0735  2.3695  1.5170
   83ccc     C8 2473   2.978   3.305  10.817 -0.1079  0.2956 -0.3124
   83ccc    H14 2474   2.943   3.227  10.748 -1.5439  0.7213 -0.0784
   83ccc    H15 2475   2.977   3.260  10.917  2.5718  0.5264 -0.1366
   83ccc     C9 2476   2.870   3.418  10.838 -0.4385 -0.0285 -0.4048
   83ccc     O3 2477   2.867   3.487  10.936  0.1006  0.5639  0.2248
   83ccc     O4 2478   2.798   3.463  10.732  0.0537  0.3027  0.5269
   83ccc    H16 2479   2.826   3.410  10.656 -0.4195  1.1690 -0.2716
   83ccc     O5 2480   3.567   3.346  10.518  0.4163  0.1530 -0.2085
   84ccc     C1 2481   3.781   3.943  10.700 -0.1647 -0.0157  0.4624
   84ccc     H1 2482   3.747   3.840  10.713 -0.0717 -0.2299 -0.9250
   84ccc     H2 2483   3.878   3.953  10.750  0.0213  0.3402  0.0352
   84ccc     C2 2484   3.678   4.043  10.757  0.2678  0.6262  0.3511
   84ccc     H3 2485   3.725   4.142  10.754 -1.3227  1.3908 -0.2385
   84ccc     H4 2486   3.668   4.018  10.863  2.5025 -0.2954  0.3774
   84ccc     C3 2487   3.546   4.043  10.676 -0.6755  1.0241  0.6395
   84ccc     H5 2488   3.515   3.939  10.659 -0.2564  1.0168 -0.0799
   84ccc     H6 2489   3.567   4.090  10.579  0.5027 -0.1006  0.3332
   84ccc     N1 2490   3.423   4.104  10.741  0.0333 -0.3872 -0.0503
   84ccc     C4 2491   3.443   4.258  10.741  0.0161  0.1519 -0.4741
   84ccc     H7 2492   3.468   4.286  10.638 -0.6806 -1.9345 -1.2403
   84ccc     H8 2493   3.525   4.282  10.810 -0.6418 -1.1654  0.7899
   84ccc     C5 2494   3.321   4.340  10.799 -0.1499  0.2168 -0.2182
   84ccc     H9 2495   3.332   4.353  10.908 -0.5508 -0.6548 -0.0624
   84ccc    H10 2496   3.222   4.301  10.771 -0.5204  0.2316  1.0310
   84ccc     C6 2497   3.317   4.483  10.746  0.1623  0.4464 -1.1697
   84ccc     O1 2498   3.412   4.546  10.698  1.0025 -0.0748 -0.1842
   84ccc     O2 2499   3.229   4.556  10.817 -0.3814  0.1952  0.0028
   84ccc    H11 2500   3.200   4.486  10.879 -2.0559 -0.4173 -1.4194
   84ccc     C7 2501   3.386   4.063  10.871 -0.0583  0.0151 -0.6503
   84ccc    H12 2502   3.448   4.105  10.952  0.2615 -0.9833 -0.3569
   84ccc    H13 2503   3.288   4.108  10.890 -0.1239 -0.8336  1.1476
   84ccc     C8 2504   3.371   3.908  10.887 -0.2877 -0.7169 -0.0640
   84ccc    H14 2505   3.468   3.858  10.876  0.7156  0.9456  0.9894
   84ccc    H15 2506   3.309   3.869  10.805 -0.0320 -0.5125 -0.3544
   84ccc     C9 2507   3.311   3.871  11.021  0.8628  0.0602 -0.0927
   84ccc     O3 2508   3.297   3.956  11.106 -0.0427 -0.8138 -0.1425
   84ccc     O4 2509   3.231   3.768  11.023  0.1868  0.8475 -0.3746
   84ccc    H16 2510   3.252   3.727  10.937 -0.7940  2.4214 -1.3876
   84ccc     O5 2511   3.801   3.980  10.557  0.8742  0.1346 -0.6009
   85ccc     C1 2512   2.826   3.852   9.801  0.7465  0.5702 -0.2207
   85ccc     H1 2513   2.838   3.957   9.828  0.4922  0.0564  1.9303
   85ccc     H2 2514   2.826   3.854   9.691  0.4260 -0.0647 -0.2381
   85ccc     C2 2515   2.682   3.807   9.849 -0.6213  0.8274 -0.2001
   85ccc     H3 2516   2.662   3.717   9.790  1.4422  1.0568 -1.3127
   85ccc     H4 2517   2.614   3.890   9.823  1.8756  2.8459 -0.4854
   85ccc     C3 2518   2.673   3.774   9.999  0.3211 -0.2676  0.4018
   85ccc     H5 2519   2.707   3.868  10.042 -2.4202  1.6905 -1.5323
   85ccc     H6 2520   2.744   3.691  10.015 -0.8042 -1.8560 -2.4325
   85ccc     N1 2521   2.535   3.732  10.041  0.2368 -0.2638 -0.3659
   85ccc     C4 2522   2.486   3.601   9.982 -0.2181 -0.7337 -0.4196
   85ccc     H7 2523   2.526   3.516  10.038 -1.7547 -0.6454  0.8409
   85ccc     H8 2524   2.517   3.588   9.878  0.1008  0.1896 -0.4457
   85ccc     C5 2525   2.326   3.610   9.982  0.6564 -0.8343 -0.2625
   85ccc     H9 2526   2.280   3.643  10.076  1.3812 -2.1121  0.5517
   85ccc    H10 2527   2.298   3.676   9.900 -0.1315  1.4469  1.7887
   85ccc     C6 2528   2.247   3.482   9.948 -0.1964 -0.9027 -0.0647
   85ccc     O1 2529   2.295   3.370   9.921  0.1593 -0.0552  0.3190
   85ccc     O2 2530   2.114   3.496   9.946 -0.0542 -0.3422  0.4485
   85ccc    H11 2531   2.101   3.592   9.942 -2.0987 -0.6534 -1.2708
   85ccc     C7 2532   2.496   3.770  10.182 -0.1456  0.1847 -0.5283
   85ccc    H12 2533   2.388   3.761  10.201 -0.0223 -3.5559 -1.2999
   85ccc    H13 2534   2.523   3.874  10.205  1.2453 -0.6703  1.9197
   85ccc     C8 2535   2.569   3.681  10.284  0.7451 -0.4582 -0.3603
   85ccc    H14 2536   2.676   3.674  10.262  1.6942  3.8226  2.2895
   85ccc    H15 2537   2.520   3.583  10.271 -2.6951  1.2856 -1.3120
   85ccc     C9 2538   2.566   3.730  10.430  0.0422 -0.5665 -0.3809
   85ccc     O3 2539   2.498   3.819  10.476 -0.0986 -0.1110  0.2608
   85ccc     O4 2540   2.621   3.658  10.523 -0.2898 -0.1300  0.5038
   85ccc    H16 2541   2.673   3.591  10.476 -0.8784  0.6636 -1.3103
   85ccc     O5 2542   2.937   3.770   9.847 -0.4103  0.0874  0.0502
   86ccc     C1 2543   3.200   3.954  10.520 -0.4149  0.5265  0.7521
   86ccc     H1 2544   3.274   3.911  10.588 -0.7655 -0.8796  0.2594
   86ccc     H2 2545   3.236   4.036  10.456 -1.2116  1.8040  1.8999
   86ccc     C2 2546   3.091   4.023  10.603  0.1386  0.6505 -0.4044
   86ccc     H3 2547   3.018   4.060  10.531  0.4811 -1.3570 -1.8336
   86ccc     H4 2548   3.146   4.108  10.645 -0.4910  1.5654 -1.4185
   86ccc     C3 2549   3.021   3.932  10.702 -0.1141  0.8821  0.2895
   86ccc     H5 2550   3.091   3.892  10.777  1.5420  0.8898 -1.2073
   86ccc     H6 2551   2.979   3.847  10.647  0.6764  0.1101  0.8523
   86ccc     N1 2552   2.910   4.008  10.773 -0.5013 -0.1189  0.3403
   86ccc     C4 2553   2.969   4.113  10.867  0.1858  0.5300 -0.4821
   86ccc     H7 2554   3.064   4.152  10.830  0.6811 -1.5193 -1.3992
   86ccc     H8 2555   2.993   4.063  10.962 -0.1847 -0.6250 -0.9812
   86ccc     C5 2556   2.863   4.225  10.894  0.5568  0.9717 -0.4575
   86ccc     H9 2557   2.783   4.227  10.819  0.2175  1.9303 -0.0758
   86ccc    H10 2558   2.827   4.207  10.997 -0.0049 -0.1431 -0.8345
   86ccc     C6 2559   2.928   4.365  10.904 -0.3043 -0.2084  0.5187
   86ccc     O1 2560   3.042   4.388  10.942  0.2005 -0.3962 -0.6905
   86ccc     O2 2561   2.835   4.462  10.922  0.1571  0.1121  0.2172
   86ccc    H11 2562   2.752   4.411  10.929  0.6016 -0.5875  0.5102
   86ccc     C7 2563   2.817   3.911  10.848 -0.6020  0.0502  0.3631
   86ccc    H12 2564   2.882   3.863  10.922  0.6147  1.8238  0.4907
   86ccc    H13 2565   2.737   3.965  10.900 -0.8803 -0.4092  0.4108
   86ccc     C8 2566   2.740   3.808  10.760  0.2012  0.2611  0.0431
   86ccc    H14 2567   2.807   3.743  10.702 -0.7879  0.8229 -1.7775
   86ccc    H15 2568   2.666   3.859  10.697 -0.1895 -0.5605 -0.1758
   86ccc     C9 2569   2.651   3.713  10.851 -0.1697 -0.6021 -0.2139
   86ccc     O3 2570   2.627   3.737  10.970  0.2533 -0.0872 -0.7238
   86ccc     O4 2571   2.550   3.658  10.777 -0.2535 -0.2010 -0.1803
   86ccc    H16 2572   2.585   3.660  10.686  4.2471  0.3062  1.4229
   86ccc     O5 2573   3.140   3.845  10.444 -1.0040 -0.2671  0.2864
   87ccc     C1 2574   5.535   4.597   8.675 -0.7237 -0.1126 -0.0820
   87ccc     H1 2575   5.578   4.697   8.692 -0.9328  0.3536 -2.1706
   87ccc     H2 2576   5.435   4.605   8.720 -0.4536 -1.2575  0.7347
   87ccc     C2 2577   5.610   4.493   8.752  1.2942  0.1045  0.6400
   87ccc     H3 2578   5.655   4.418   8.686  1.0243 -0.5483  1.1844
   87ccc     H4 2579   5.543   4.421   8.800  0.6523  0.7467  0.7108
   87ccc     C3 2580   5.709   4.558   8.854 -0.1125  0.7055 -0.0481
   87ccc     H5 2581   5.665   4.650   8.894  0.8028  0.5470  1.3639
   87ccc     H6 2582   5.797   4.586   8.795  0.7795 -1.3936  0.2359
   87ccc     N1 2583   5.745   4.462   8.963 -0.5907 -0.3714  0.7954
   87ccc     C4 2584   5.639   4.407   9.057 -0.0648 -0.1275  0.2909
   87ccc     H7 2585   5.678   4.339   9.134  0.1967  0.1429  0.4009
   87ccc     H8 2586   5.570   4.346   8.999 -1.7393 -0.2979  2.4338
   87ccc     C5 2587   5.556   4.517   9.137 -0.5390  0.5699 -0.1059
   87ccc     H9 2588   5.612   4.534   9.230  0.2453 -1.7041 -0.1213
   87ccc    H10 2589   5.565   4.613   9.085 -1.5049  0.4947 -0.4160
   87ccc     C6 2590   5.416   4.466   9.169 -0.1400  0.2512  0.6971
   87ccc     O1 2591   5.390   4.365   9.229 -0.2123  0.6489 -0.1681
   87ccc     O2 2592   5.318   4.510   9.087  0.0516 -0.5478 -0.4714
   87ccc    H11 2593   5.359   4.591   9.050  1.1602 -0.3819  1.0278
   87ccc     C7 2594   5.826   4.349   8.905 -0.2479  0.0003 -0.2139
   87ccc    H12 2595   5.756   4.280   8.857  0.8874 -1.7877  0.6471
   87ccc    H13 2596   5.896   4.393   8.833  0.4221  2.4649  1.8322
   87ccc     C8 2597   5.919   4.283   9.015  0.3044 -0.1310  0.3982
   87ccc    H14 2598   6.003   4.350   9.039  1.2717 -0.4244 -2.0851
   87ccc    H15 2599   5.860   4.259   9.104  0.5865 -1.4285  0.2404
   87ccc     C9 2600   5.976   4.156   8.970 -0.0024 -0.4158  0.0489
   87ccc     O3 2601   6.096   4.145   8.941  0.3772  0.3258  0.3115
   87ccc     O4 2602   5.905   4.039   8.997  0.4715 -0.2883  0.4167
   87ccc    H16 2603   5.830   4.074   9.049  0.5688  1.1972 -0.4187
   87ccc     O5 2604   5.547   4.546   8.537  0.2432  0.4654 -0.0237
   88ccc     C1 2605   6.142   4.147   8.574  0.1541 -0.1534 -0.1880
   88ccc     H1 2606   6.059   4.138   8.646  1.2585 -1.1126  0.9949
   88ccc     H2 2607   6.181   4.054   8.532  1.3807 -0.6618  1.9931
   88ccc     C2 2608   6.240   4.240   8.646 -0.2743  0.4553  0.0418
   88ccc     H3 2609   6.320   4.261   8.574  0.7006  2.6656  1.7012
   88ccc     H4 2610   6.285   4.187   8.731  0.7318 -0.4385 -1.0305
   88ccc     C3 2611   6.179   4.374   8.697  0.7074 -0.0643  0.3041
   88ccc     H5 2612   6.107   4.351   8.776  0.8441  0.3588  0.5521
   88ccc     H6 2613   6.122   4.425   8.619  1.3055  0.8220  0.4398
   88ccc     N1 2614   6.284   4.473   8.736  0.3239 -0.5455 -0.4363
   88ccc     C4 2615   6.380   4.442   8.844 -0.1976  0.2771 -0.6196
   88ccc     H7 2616   6.461   4.516   8.838  0.4910 -0.4985 -0.9906
   88ccc     H8 2617   6.434   4.348   8.828  1.9324  1.2778  0.5239
   88ccc     C5 2618   6.327   4.454   8.984 -0.2584 -0.1623  0.1842
   88ccc     H9 2619   6.266   4.538   9.020  1.6241  0.7699  1.3084
   88ccc    H10 2620   6.253   4.374   8.994 -0.4439 -0.1869 -1.3042
   88ccc     C6 2621   6.427   4.423   9.092 -0.7956  0.1401 -0.3862
   88ccc     O1 2622   6.548   4.414   9.070 -0.2423  0.3733 -0.1676
   88ccc     O2 2623   6.385   4.431   9.221 -0.4073  0.0239  0.6216
   88ccc    H11 2624   6.299   4.472   9.202  0.2618  0.5905 -1.2533
   88ccc     C7 2625   6.223   4.607   8.758  0.7424  0.3595  0.4503
   88ccc    H12 2626   6.120   4.604   8.793  1.2306 -0.1160  1.8844
   88ccc    H13 2627   6.287   4.660   8.829  0.9141 -1.1297  1.4249
   88ccc     C8 2628   6.224   4.688   8.621  0.3413  0.6565 -0.5623
   88ccc    H14 2629   6.322   4.735   8.605  0.1992  1.0456 -0.3269
   88ccc    H15 2630   6.195   4.622   8.540  0.4366 -1.2897  0.9532
   88ccc     C9 2631   6.133   4.801   8.617 -0.6607  0.4742 -0.9473
   88ccc     O3 2632   6.077   4.847   8.720  0.3905  0.2463  0.0230
   88ccc     O4 2633   6.068   4.816   8.503  0.4627 -0.6419 -0.3339
   88ccc    H16 2634   6.134   4.781   8.442  4.4932  2.2657  2.1148
   88ccc     O5 2635   6.087   4.223   8.464  0.3636 -0.3200  0.3217
   89ccc     C1 2636   4.699   4.174   6.637  0.1270 -0.0058  0.0341
   89ccc     H1 2637   4.792   4.121   6.662 -0.3850 -0.3658  1.1918
   89ccc     H2 2638   4.643   4.125   6.557 -0.1809 -0.2749  0.4140
   89ccc     C2 2639   4.742   4.311   6.575 -0.3465  0.4907  0.6073
   89ccc     H3 2640   4.787   4.366   6.659 -2.2364  2.0773  0.6235
   89ccc     H4 2641   4.654   4.366   6.540 -0.6163  1.4655  2.7140
   89ccc     C3 2642   4.848   4.301   6.463 -0.2523 -0.6016 -0.1614
   89ccc     H5 2643   4.804   4.258   6.372 -0.9897  1.7317 -0.9552
   89ccc     H6 2644   4.934   4.236   6.485 -0.6911 -0.9264  0.5580
   89ccc     N1 2645   4.901   4.434   6.426  0.7609 -0.2535  0.4935
   89ccc     C4 2646   4.800   4.511   6.344 -0.4253 -0.8062 -0.8803
   89ccc     H7 2647   4.703   4.485   6.387  0.1079 -2.0213 -0.3918
   89ccc     H8 2648   4.824   4.617   6.361  0.0123 -0.8511 -1.2152
   89ccc     C5 2649   4.803   4.477   6.191 -0.1112 -0.5850 -1.0752
   89ccc     H9 2650   4.713   4.518   6.144 -1.9598 -0.6541  2.2349
   89ccc    H10 2651   4.797   4.369   6.172  0.6336 -0.8028 -0.1460
   89ccc     C6 2652   4.928   4.520   6.126  0.2655 -0.5212  0.2139
   89ccc     O1 2653   5.040   4.469   6.127  0.4251 -0.3781 -0.1601
   89ccc     O2 2654   4.915   4.640   6.075  0.8070  0.1794 -0.4091
   89ccc    H11 2655   4.827   4.659   6.112  1.2101  2.0255 -0.3825
   89ccc     C7 2656   4.974   4.511   6.530  0.1513 -0.7505  0.3348
   89ccc    H12 2657   4.904   4.547   6.606  1.2744 -0.6567  1.3304
   89ccc    H13 2658   5.033   4.445   6.595  0.1222  0.7921  1.9502
   89ccc     C8 2659   5.065   4.619   6.478  1.1033 -0.6091  0.2454
   89ccc    H14 2660   5.133   4.584   6.399  0.3878  2.0688 -1.6007
   89ccc    H15 2661   5.015   4.701   6.425  1.6945 -0.5455 -0.2108
   89ccc     C9 2662   5.159   4.666   6.593 -0.0657 -0.4450  0.4020
   89ccc     O3 2663   5.270   4.627   6.612 -0.1084 -0.1219  0.2814
   89ccc     O4 2664   5.104   4.744   6.686  0.1958 -0.4973 -0.1746
   89ccc    H16 2665   5.019   4.775   6.651  0.5201 -0.5761 -1.0359
   89ccc     O5 2666   4.627   4.208   6.759  0.1754  0.2629  0.2862
   90ccc     C1 2667   3.954   3.710   7.074 -0.7530  0.5431 -0.1313
   90ccc     H1 2668   3.889   3.788   7.032 -2.8979 -1.3587 -0.4418
   90ccc     H2 2669   3.954   3.624   7.006 -2.6928  0.2931  0.1632
   90ccc     C2 2670   3.900   3.671   7.215 -0.4199  0.3076  0.2486
   90ccc     H3 2671   3.791   3.683   7.211 -0.5611 -0.9336  0.2141
   90ccc     H4 2672   3.945   3.738   7.289  0.4703  0.9275 -0.8342
   90ccc     C3 2673   3.933   3.525   7.256  0.9644 -0.5246  0.1659
   90ccc     H5 2674   4.042   3.524   7.266  1.0379 -1.5891 -0.6596
   90ccc     H6 2675   3.901   3.453   7.180 -1.8704  2.4288 -1.5712
   90ccc     N1 2676   3.864   3.475   7.386  0.6544  0.2834 -0.1518
   90ccc     C4 2677   3.874   3.556   7.505  0.5476 -0.3114  0.0030
   90ccc     H7 2678   3.817   3.520   7.591 -1.2782 -0.7216 -1.3579
   90ccc     H8 2679   3.819   3.650   7.495 -1.4745 -1.4318  0.3405
   90ccc     C5 2680   4.020   3.576   7.543  0.0054  0.1215  0.9007
   90ccc     H9 2681   4.062   3.475   7.554  1.0648  0.3647 -0.7043
   90ccc    H10 2682   4.076   3.627   7.463  0.7491 -1.7560  0.1996
   90ccc     C6 2683   4.035   3.664   7.671  0.6574  0.3112  0.1463
   90ccc     O1 2684   3.957   3.755   7.696  0.0863  0.0831  0.3442
   90ccc     O2 2685   4.159   3.709   7.682  0.3739 -0.0423  0.0161
   90ccc    H11 2686   4.220   3.636   7.660  1.8616  0.9357  0.7729
   90ccc     C7 2687   3.721   3.433   7.379 -0.9243 -0.0524 -0.7250
   90ccc    H12 2688   3.684   3.398   7.476 -0.1772  0.9306 -0.0876
   90ccc    H13 2689   3.662   3.522   7.352  0.1387  0.6584 -0.7243
   90ccc     C8 2690   3.699   3.317   7.276  0.6038 -0.8849  0.1364
   90ccc    H14 2691   3.784   3.249   7.290  1.5974  0.4528  0.5992
   90ccc    H15 2692   3.604   3.265   7.292 -0.7939  0.7559 -2.4616
   90ccc     C9 2693   3.668   3.368   7.134 -0.5952 -0.3434  1.0976
   90ccc     O3 2694   3.616   3.472   7.115 -0.1945  0.2468  0.2146
   90ccc     O4 2695   3.729   3.300   7.037 -0.0263 -0.0431  0.1587
   90ccc    H16 2696   3.743   3.212   7.077  2.2563 -0.4287 -1.3908
   90ccc     O5 2697   4.091   3.759   7.087 -0.3398  0.5134 -0.2863
   91ccc     C1 2698   3.496   3.661   8.861  0.1200 -0.2051 -0.1446
   91ccc     H1 2699   3.429   3.747   8.875 -1.8559 -2.1555  3.0536
   91ccc     H2 2700   3.487   3.597   8.772 -1.3598 -0.2391  0.0239
   91ccc     C2 2701   3.490   3.557   8.977  0.8122 -0.1872 -0.1019
   91ccc     H3 2702   3.547   3.467   8.951  0.6845 -0.0325 -0.9421
   91ccc     H4 2703   3.383   3.535   8.975  0.5175  1.1457  0.0884
   91ccc     C3 2704   3.527   3.615   9.122  0.3717  0.4965  0.7253
   91ccc     H5 2705   3.472   3.707   9.144 -0.7077  0.1330 -0.4514
   91ccc     H6 2706   3.634   3.641   9.116  0.5097  0.5253  2.7401
   91ccc     N1 2707   3.510   3.513   9.233 -0.5121 -0.3045 -0.1868
   91ccc     C4 2708   3.632   3.431   9.242  0.1572 -0.3545 -0.1064
   91ccc     H7 2709   3.660   3.388   9.145 -2.3361 -0.4659 -0.8328
   91ccc     H8 2710   3.607   3.349   9.311 -2.4052  2.4019  2.3932
   91ccc     C5 2711   3.744   3.508   9.321  0.1054  0.3104 -0.4456
   91ccc     H9 2712   3.789   3.592   9.266  0.5928  0.9558  0.9160
   91ccc    H10 2713   3.692   3.545   9.410  2.1025 -0.0140  0.9020
   91ccc     C6 2714   3.858   3.423   9.369 -0.0055 -0.3239  0.0048
   91ccc     O1 2715   3.880   3.309   9.337  0.0082  0.2660  0.2201
   91ccc     O2 2716   3.924   3.470   9.476  0.2174  0.0411  0.1429
   91ccc    H11 2717   3.890   3.561   9.480 -0.8932 -0.3618  0.0757
   91ccc     C7 2718   3.388   3.434   9.225  0.3320  0.7108 -0.1989
   91ccc    H12 2719   3.393   3.373   9.134 -0.2149  1.1091 -0.4890
   91ccc    H13 2720   3.380   3.362   9.308 -1.7663 -0.6215 -1.5204
   91ccc     C8 2721   3.259   3.526   9.246  0.5254  0.0523  0.6470
   91ccc    H14 2722   3.283   3.595   9.327  1.6999  0.2838  0.1160
   91ccc    H15 2723   3.246   3.592   9.160 -2.0136  0.3069  1.1936
   91ccc     C9 2724   3.133   3.448   9.252 -0.3422  0.1453  0.3535
   91ccc     O3 2725   3.128   3.338   9.304 -0.4429 -0.0837  0.3119
   91ccc     O4 2726   3.019   3.511   9.234  0.0515 -0.1612  0.1316
   91ccc    H16 2727   3.046   3.596   9.195  0.3157  0.4003  1.5095
   91ccc     O5 2728   3.633   3.706   8.850  0.1059 -0.4770  0.3803
   92ccc     C1 2729   4.137   3.822   8.044  0.6739 -0.1675  0.6496
   92ccc     H1 2730   4.118   3.745   7.967 -1.8287  0.7217  0.3316
   92ccc     H2 2731   4.067   3.906   8.039 -0.2382 -0.8464  1.6341
   92ccc     C2 2732   4.276   3.883   8.014 -0.7547 -0.4791  0.6915
   92ccc     H3 2733   4.304   3.956   8.091 -1.2009  2.5846 -1.9172
   92ccc     H4 2734   4.266   3.948   7.926 -0.1577 -0.7229  0.4423
   92ccc     C3 2735   4.394   3.785   7.968  0.3186 -0.0159 -0.2811
   92ccc     H5 2736   4.460   3.853   7.913 -0.4605  1.3581  0.4650
   92ccc     H6 2737   4.350   3.712   7.899  2.4947 -2.6707  1.0471
   92ccc     N1 2738   4.478   3.730   8.078 -0.4277 -0.1315 -0.2888
   92ccc     C4 2739   4.606   3.675   8.022 -0.0833  0.2368  0.3258
   92ccc     H7 2740   4.587   3.585   7.964 -2.1700  0.5951  0.3999
   92ccc     H8 2741   4.644   3.749   7.951  1.8664  1.3043  2.3873
   92ccc     C5 2742   4.719   3.648   8.128  0.3313 -0.3825  0.6552
   92ccc     H9 2743   4.716   3.737   8.192  2.0892  0.3284 -0.2159
   92ccc    H10 2744   4.690   3.560   8.186 -0.5078 -0.2003  0.5225
   92ccc     C6 2745   4.858   3.636   8.070 -0.2145 -0.3562 -0.2537
   92ccc     O1 2746   4.866   3.623   7.950 -0.2661  0.3430  0.0363
   92ccc     O2 2747   4.959   3.663   8.144 -0.0533  0.3654  0.2725
   92ccc    H11 2748   4.927   3.656   8.236  0.5590  0.3596  0.4889
   92ccc     C7 2749   4.405   3.645   8.178  0.1800  0.2322  0.3986
   92ccc    H12 2750   4.474   3.619   8.260  0.2073  2.4279  1.0969
   92ccc    H13 2751   4.347   3.711   8.243  0.6262  1.9705 -0.9292
   92ccc     C8 2752   4.331   3.517   8.138 -0.6803 -0.1412  0.0291
   92ccc    H14 2753   4.403   3.447   8.094  1.8375  1.0498  2.0761
   92ccc    H15 2754   4.268   3.552   8.055 -1.1729 -1.2036 -0.0537
   92ccc     C9 2755   4.257   3.457   8.250  0.2700  0.2257 -0.1083
   92ccc     O3 2756   4.282   3.347   8.300 -0.2480 -0.1251  0.0847
   92ccc     O4 2757   4.167   3.530   8.316 -0.0074  0.1922 -0.4040
   92ccc    H16 2758   4.158   3.609   8.261  0.0095 -0.6275 -1.6100
   92ccc     O5 2759   4.129   3.758   8.170 -0.0403  0.5226  0.0959
   93ccc     C1 2760   4.025   4.198   9.958  0.4215 -0.0381 -0.2827
   93ccc     H1 2761   4.109   4.266   9.968 -0.6991  1.4849 -1.0563
   93ccc     H2 2762   3.932   4.243   9.995  1.5840  0.1741  2.5007
   93ccc     C2 2763   4.059   4.076  10.046  0.2183 -0.0215 -0.0252
   93ccc     H3 2764   4.138   4.019   9.997 -0.3654 -0.3564 -0.5936
   93ccc     H4 2765   3.970   4.012  10.039 -1.0145  1.6065  0.4739
   93ccc     C3 2766   4.092   4.116  10.188 -0.0085 -0.6808 -0.2957
   93ccc     H5 2767   4.071   4.031  10.253  0.0715  0.7295  1.6080
   93ccc     H6 2768   4.026   4.198  10.218 -0.2247 -1.0859  0.3179
   93ccc     N1 2769   4.229   4.165  10.188 -0.1180 -0.8401 -0.3056
   93ccc     C4 2770   4.332   4.051  10.180 -0.4212  0.1527  0.1310
   93ccc     H7 2771   4.310   3.968  10.112  2.2857 -0.9229  0.4978
   93ccc     H8 2772   4.332   4.000  10.277 -1.2137 -0.7594 -0.3421
   93ccc     C5 2773   4.482   4.106  10.146 -0.3833 -0.0145  0.0209
   93ccc     H9 2774   4.519   4.168  10.228 -1.6403 -0.6722  1.1130
   93ccc    H10 2775   4.474   4.163  10.053 -0.8027 -2.1254 -1.2743
   93ccc     C6 2776   4.579   3.985  10.121  0.0744  0.6414  0.5871
   93ccc     O1 2777   4.549   3.867  10.131 -0.0948 -0.3296  0.4762
   93ccc     O2 2778   4.659   4.004  10.018 -0.0859  0.0188  0.1897
   93ccc    H11 2779   4.674   4.100  10.019 -1.0522  0.1664  0.8131
   93ccc     C7 2780   4.249   4.280  10.279  0.2739  0.3084  0.1115
   93ccc    H12 2781   4.351   4.312  10.251  0.2629  0.1697 -0.0906
   93ccc    H13 2782   4.248   4.244  10.382  1.6494  1.3421  0.5005
   93ccc     C8 2783   4.154   4.394  10.247  0.8595  0.0302 -0.2405
   93ccc    H14 2784   4.154   4.405  10.138  0.5235 -1.8162 -0.4376
   93ccc    H15 2785   4.051   4.382  10.281  1.1863 -0.9556  0.4484
   93ccc     C9 2786   4.198   4.527  10.301 -0.7069 -0.0363 -0.5057
   93ccc     O3 2787   4.308   4.541  10.349 -0.8391  0.4404 -0.3364
   93ccc     O4 2788   4.119   4.633  10.278  0.2272  0.3131  0.4797
   93ccc    H16 2789   4.049   4.604  10.217  2.5897 -0.7590 -1.8632
   93ccc     O5 2790   4.032   4.153   9.819 -0.0083  0.1897  0.6099
   94ccc     C1 2791   3.424   4.152   9.929 -0.2547 -0.1286  0.0599
   94ccc     H1 2792   3.439   4.073  10.004 -2.5961  0.9909  1.7638
   94ccc     H2 2793   3.509   4.221   9.923  0.7204 -1.3641 -0.5857
   94ccc     C2 2794   3.296   4.232   9.955 -0.0323 -0.0131 -0.4286
   94ccc     H3 2795   3.280   4.295   9.866 -1.9113 -3.1183 -2.3616
   94ccc     H4 2796   3.309   4.289  10.049  1.1708 -1.8485  0.5389
   94ccc     C3 2797   3.171   4.134   9.975  0.1567 -0.6351  0.2346
   94ccc     H5 2798   3.192   4.054  10.047  1.4763 -0.7457 -0.2637
   94ccc     H6 2799   3.136   4.098   9.878 -2.2156  1.4531  0.2447
   94ccc     N1 2800   3.054   4.202  10.031 -0.0382  0.5561  0.2756
   94ccc     C4 2801   2.942   4.116  10.084 -0.1864 -0.4768  0.4905
   94ccc     H7 2802   2.906   4.060   9.996  2.1566  1.5846 -1.8536
   94ccc     H8 2803   2.860   4.179  10.120 -0.8174 -0.5403 -0.8184
   94ccc     C5 2804   2.980   4.027  10.206  0.6199 -0.3252  0.3386
   94ccc     H9 2805   3.062   3.954  10.195 -0.2420 -0.9582 -2.3188
   94ccc    H10 2806   3.017   4.093  10.286  0.8883 -1.5930  1.2787
   94ccc     C6 2807   2.853   3.965  10.266 -0.2620 -0.8801  0.6282
   94ccc     O1 2808   2.740   3.991  10.242  0.3628 -0.1052 -0.4269
   94ccc     O2 2809   2.875   3.870  10.360  0.6415  0.5433 -0.1973
   94ccc    H11 2810   2.971   3.855  10.361  0.6508  0.6388  0.2759
   94ccc     C7 2811   3.013   4.321   9.955 -0.0493  0.1479  0.0308
   94ccc    H12 2812   3.094   4.374   9.903 -0.1650  0.2624 -0.0324
   94ccc    H13 2813   2.945   4.288   9.875  2.3614 -1.0156 -1.5978
   94ccc     C8 2814   2.943   4.431  10.037 -0.2744 -0.0681 -0.9476
   94ccc    H14 2815   2.960   4.527   9.988  0.4383  0.6392  0.6327
   94ccc    H15 2816   2.835   4.413  10.045 -1.0164  3.3637 -2.4038
   94ccc     C9 2817   3.001   4.461  10.173  0.1282 -0.3621 -0.0904
   94ccc     O3 2818   3.116   4.462  10.206 -0.2547  0.5734 -0.4868
   94ccc     O4 2819   2.915   4.514  10.266  0.6141  0.1458  0.1315
   94ccc    H16 2820   2.839   4.536  10.209  1.2406 -0.7350 -1.0624
   94ccc     O5 2821   3.406   4.077   9.804 -0.1017  0.0652  0.0406
   95SOL     OW 2822   5.940   5.082   6.210 -0.0552  0.3238 -0.4827
   95SOL    HW1 2823   6.006   5.059   6.276 -1.1322  0.4357  0.6471
   95SOL    HW2 2824   5.908   5.168   6.238 -0.2229  0.5535 -1.3874
   96SOL     OW 2825   3.288   9.311   9.569  0.1085 -0.7791  0.1823
   96SOL    HW1 2826   3.352   9.309   9.498 -1.2114  0.0515 -1.0620
   96SOL    HW2 2827   3.300   9.397   9.609 -0.1581 -0.6597  0.0076
   97SOL     OW 2828   7.430   0.843   9.610  0.1944  0.1790  0.0058
   97SOL    HW1 2829   7.362   0.908   9.626 -0.5181 -0.9395  1.5791
   97SOL    HW2 2830   7.383   0.760   9.598  1.0874 -0.0914 -2.0226
   98SOL     OW 2831   4.984   1.556   2.729  0.5259 -0.2988 -0.2684
   98SOL    HW1 2832   4.905   1.598   2.762  1.1601 -0.0172  0.9318
   98SOL    HW2 2833   4.958   1.518   2.645 -0.6941  0.3759 -0.2080
   99SOL     OW 2834   8.768   0.647   0.940  0.4186 -0.0911  0.1168
   99SOL    HW1 2835   8.699   0.711   0.958  0.3956  0.0894 -0.6029
   99SOL    HW2 2836   8.846   0.699   0.923  0.8939 -0.3107  1.5545
  100SOL     OW 2837   6.005   7.153   2.682  0.2411  0.3615 -0.6034
  100SOL    HW1 2838   5.944   7.079   2.680  2.3832 -1.5220  0.8202
  100SOL    HW2 2839   6.078   7.124   2.627  0.1149  2.3638 -1.8531
  101SOL     OW 2840   8.472   4.029   2.898  0.5857  0.2218  0.0838
  101SOL    HW1 2841   8.425   4.107   2.927  0.5970 -0.0531  0.8626
  101SOL    HW2 2842   8.517   4.056   2.818 -0.0477  0.7844 -0.0902
  102SOL     OW 2843   3.467   6.537   6.157  0.1920 -0.3126 -0.2757
  102SOL    HW1 2844   3.543   6.502   6.111 -0.3978 -2.3233  0.2607
  102SOL    HW2 2845   3.400   6.545   6.089  0.0999 -0.8903 -0.2487
  103SOL     OW 2846   3.686   5.100   5.316 -0.6438 -0.0199  0.4357
  103SOL    HW1 2847   3.607   5.134   5.358  0.3042  1.5298  1.0188
  103SOL    HW2 2848   3.727   5.044   5.382 -0.4761  0.3888  0.6820
  104SOL     OW 2849   3.903   4.990   2.509  0.4263 -0.3569  0.0732
  104SOL    HW1 2850   3.890   4.980   2.604 -0.8507 -1.0766 -0.1679
  104SOL    HW2 2851   3.989   5.031   2.501  0.3134  0.2054  1.5667
  105SOL     OW 2852   8.095   8.787   2.456  0.2341 -0.6202  0.3950
  105SOL    HW1 2853   8.180   8.745   2.469 -0.5491 -2.5244 -0.5044
  105SOL    HW2 2854   8.070   8.764   2.367 -0.9116  0.5126  0.4098
  106SOL     OW 2855   1.077   6.055   2.991 -0.0002  0.1863 -0.1362
  106SOL    HW1 2856   1.119   6.044   2.905  1.9771  0.0564  0.8275
  106SOL    HW2 2857   1.099   5.976   3.040  0.6757  1.2074  1.2300
  107SOL     OW 2858   3.867   7.184   9.491 -0.3014 -0.5832 -0.4663
  107SOL    HW1 2859   3.772   7.174   9.486 -0.2857 -0.8067 -0.2790
  107SOL    HW2 2860   3.898   7.109   9.541 -0.0493 -0.3863 -0.3201
  108SOL     OW 2861   7.250   8.455   9.084 -0.0192  0.0551  0.2075
  108SOL    HW1 2862   7.228   8.408   9.164  2.5783 -0.0296  0.9027
  108SOL    HW2 2863   7.268   8.387   9.020  0.7664  0.1068  0.3706
  109SOL     OW 2864   2.327   9.917   2.414  0.5018  0.0209 -0.6404
  109SOL    HW1 2865   2.301  10.006   2.439  0.5187 -0.6147  1.8144
  109SOL    HW2 2866   2.423   9.918   2.421  0.5597  0.0414 -1.4374
  110SOL     OW 2867   2.017   2.189   2.532 -0.1608  0.4791  0.3749
  110SOL    HW1 2868   2.029   2.280   2.560 -2.3731  0.7138  0.6322
  110SOL    HW2 2869   1.931   2.188   2.490  0.4227 -1.2203 -0.8322
  111SOL     OW 2870   2.074   3.377   2.976 -0.0975 -0.2870  0.1465
  111SOL    HW1 2871   1.991   3.345   2.940  0.7950 -1.8067 -0.6292
  111SOL    HW2 2872   2.123   3.298   2.997  1.3052  0.5911  0.2377
  112SOL     OW 2873   6.039   9.790   8.218  0.2516  0.2197  0.1092
  112SOL    HW1 2874   6.132   9.776   8.234  0.0845  0.7520  1.5711
  112SOL    HW2 2875   6.034   9.875   8.175  0.5178 -0.2473 -0.8547
  113SOL     OW 2876   1.601   2.396   5.627 -0.4095 -0.6397 -0.1037
  113SOL    HW1 2877   1.557   2.413   5.544  0.0364 -1.1628 -0.4517
  113SOL    HW2 2878   1.687   2.437   5.617 -0.2393 -0.9726 -0.0222
  114SOL     OW 2879   3.408   2.196   8.337 -0.1366  0.3016  0.4074
  114SOL    HW1 2880   3.503   2.204   8.340 -0.0034 -1.9580  3.2634
  114SOL    HW2 2881   3.392   2.105   8.314 -1.6451  1.0671 -1.7161
  115SOL     OW 2882   5.287   9.374   4.965  0.1776  0.2773  0.4630
  115SOL    HW1 2883   5.226   9.446   4.981 -0.7734 -0.3829 -0.1344
  115SOL    HW2 2884   5.369   9.417   4.941  0.4277  1.2203  2.8092
  116SOL     OW 2885   1.084   3.288   9.280 -0.1593  0.1683 -0.6171
  116SOL    HW1 2886   1.067   3.379   9.257 -0.5060  0.1933 -0.2641
  116SOL    HW2 2887   1.118   3.249   9.199  1.1440  0.9102 -0.4436
  117SOL     OW 2888   3.163   8.688   6.474 -0.1138 -0.0711  0.1660
  117SOL    HW1 2889   3.241   8.662   6.524  1.5134 -3.1743 -3.7022
  117SOL    HW2 2890   3.187   8.771   6.433  0.3880  0.0069  0.6150
  118SOL     OW 2891   1.191   7.090   1.218  0.4445  0.7411 -0.0714
  118SOL    HW1 2892   1.264   7.152   1.223  1.1615  0.0863 -1.9096
  118SOL    HW2 2893   1.125   7.134   1.165 -0.0523  0.8708  0.6375
  119SOL     OW 2894   2.924   2.746   8.570  0.1241  0.2064 -0.0298
  119SOL    HW1 2895   3.000   2.803   8.588 -0.1375  0.9675 -1.2722
  119SOL    HW2 2896   2.945   2.664   8.615  0.8498  1.0246  1.1741
  120SOL     OW 2897   5.099   8.187   7.441  0.1012  0.0089  0.1962
  120SOL    HW1 2898   5.176   8.236   7.470  0.1858  0.7815 -1.2764
  120SOL    HW2 2899   5.119   8.162   7.351 -0.2961 -2.0397  0.6476
  121SOL     OW 2900   8.465   6.447   4.888  0.6543  0.2883  0.2516
  121SOL    HW1 2901   8.373   6.451   4.915  0.6025  2.9780 -0.2338
  121SOL    HW2 2902   8.477   6.356   4.860 -1.6502 -0.2900  1.0040
  122SOL     OW 2903   8.229   9.520   3.139 -0.1618 -0.1696 -0.2137
  122SOL    HW1 2904   8.187   9.490   3.220 -0.5792  0.1325 -0.3123
  122SOL    HW2 2905   8.187   9.468   3.070  1.6598 -1.9092 -0.0547
  123SOL     OW 2906   7.004   1.415   4.796  0.9521 -0.1564  0.1096
  123SOL    HW1 2907   7.063   1.484   4.765  1.1639 -0.3561  0.0683
  123SOL    HW2 2908   6.972   1.374   4.716  0.5357  0.1374  0.1260
  124SOL     OW 2909   7.677   3.592   6.503  0.2052 -0.2561  0.2113
  124SOL    HW1 2910   7.641   3.633   6.424  1.8803 -0.2950 -0.5985
  124SOL    HW2 2911   7.629   3.510   6.511  1.1336 -1.0302 -1.7251
  125SOL     OW 2912   1.694   7.544   4.587 -0.7497  0.5207  0.0540
  125SOL    HW1 2913   1.608   7.576   4.560 -1.8222  0.4066  3.1607
  125SOL    HW2 2914   1.749   7.622   4.592 -1.4896  1.0007  0.8751
  126SOL     OW 2915   6.024   2.401   1.880  0.4282  0.4814  1.0754
  126SOL    HW1 2916   6.004   2.403   1.787  0.3468  2.0665  1.1117
  126SOL    HW2 2917   5.989   2.484   1.914 -1.0272 -0.8141  2.8222
  127SOL     OW 2918   7.647   6.892   1.859 -0.5430 -0.2093 -0.0435
  127SOL    HW1 2919   7.627   6.802   1.831  1.5974 -0.4659 -0.8647
  127SOL    HW2 2920   7.632   6.945   1.780  1.0384 -0.2877 -0.4217
  128SOL     OW 2921   9.010   3.864   3.120  0.1426  0.5353  0.0611
  128SOL    HW1 2922   8.984   3.844   3.030 -0.8976  1.5504  0.1349
  128SOL    HW2 2923   8.950   3.933   3.148  0.4858  0.2521  1.5260
  129SOL     OW 2924   8.236   9.691   5.327 -0.1531 -0.0671 -0.5243
  129SOL    HW1 2925   8.247   9.675   5.420 -1.2955 -2.0143 -0.6855
  129SOL    HW2 2926   8.272   9.613   5.285 -1.2155  0.0060 -1.6135
  130SOL     OW 2927   9.948   8.550   1.962  0.1181 -0.2069 -0.1022
  130SOL    HW1 2928   9.881   8.514   1.904  0.0648 -0.0373 -0.1472
  130SOL    HW2 2929  10.003   8.475   1.986 -1.2185 -0.7071  1.4804
  131SOL     OW 2930   9.800   4.333   3.159  0.2167 -0.5598 -0.4499
  131SOL    HW1 2931   9.779   4.425   3.174  0.2886 -0.7397  0.7553
  131SOL    HW2 2932   9.893   4.325   3.180 -0.0687 -1.1542  0.6309
  132SOL     OW 2933   6.721   4.325   1.227 -0.0692  0.4277 -0.3273
  132SOL    HW1 2934   6.643   4.271   1.237  1.1021 -1.1246  0.7189
  132SOL    HW2 2935   6.710   4.367   1.142 -1.7547 -0.2342 -0.4641
  133SOL     OW 2936   3.532   6.494   2.523 -0.7102 -0.1810 -0.6253
  133SOL    HW1 2937   3.544   6.444   2.442 -1.1484 -2.3073  0.6088
  133SOL    HW2 2938   3.437   6.497   2.535 -0.6159 -0.4324  0.1621
  134SOL     OW 2939   1.653   3.202   4.235  0.2170  0.0676  0.0369
  134SOL    HW1 2940   1.686   3.164   4.316 -1.7446 -0.1149  0.7643
  134SOL    HW2 2941   1.732   3.218   4.183  1.4606 -0.2875  1.7565
  135SOL     OW 2942   8.186   4.284  10.053  0.9315 -0.3361 -0.0663
  135SOL    HW1 2943   8.095   4.313  10.060  0.5692 -0.9442 -1.9484
  135SOL    HW2 2944   8.219   4.328   9.975  1.6876 -1.5688 -0.4514
  136SOL     OW 2945   0.131   7.154   9.377 -0.0575 -0.1000  0.1414
  136SOL    HW1 2946   0.036   7.150   9.390 -0.1994 -0.3718 -0.9712
  136SOL    HW2 2947   0.147   7.236   9.331  0.2958  0.1446  0.6927
  137SOL     OW 2948   3.594   8.732   9.300 -0.1525 -0.3188 -0.3844
  137SOL    HW1 2949   3.681   8.766   9.322  1.3213 -3.3735 -1.1464
  137SOL    HW2 2950   3.588   8.741   9.205 -0.8995  0.3731 -0.2749
  138SOL     OW 2951   8.533   5.954   2.092 -0.3256  0.0952  0.0046
  138SOL    HW1 2952   8.501   5.865   2.109 -1.4634 -0.3521 -3.9460
  138SOL    HW2 2953   8.465   6.011   2.129  0.8038 -0.5988  3.2729
  139SOL     OW 2954   5.913   3.000   1.688 -0.1388 -0.5142 -0.5676
  139SOL    HW1 2955   5.938   3.092   1.685 -0.7942 -0.3317 -0.3973
  139SOL    HW2 2956   5.990   2.954   1.654  0.1311  0.1030 -0.8101
  140SOL     OW 2957   7.114   2.095   2.776  0.1386 -0.6463  0.7226
  140SOL    HW1 2958   7.196   2.143   2.786  0.4533 -0.9152 -0.4886
  140SOL    HW2 2959   7.049   2.163   2.756 -0.0247 -0.3901  2.0536
  141SOL     OW 2960   3.034   5.752   6.954  0.2615 -0.0053  0.0786
  141SOL    HW1 2961   3.123   5.722   6.938  0.4732  0.4446  0.4040
  141SOL    HW2 2962   3.020   5.821   6.889  1.2104  1.9996  1.9559
  142SOL     OW 2963   5.905   6.729   6.616  0.6005  0.3464 -0.1204
  142SOL    HW1 2964   5.996   6.753   6.634  1.0130 -0.8540 -0.5204
  142SOL    HW2 2965   5.909   6.686   6.531  0.2134 -2.8397  1.4050
  143SOL     OW 2966   3.062   6.294   3.396  0.4952  0.3778 -0.3493
  143SOL    HW1 2967   3.000   6.263   3.462  0.6604  0.5193 -0.1260
  143SOL    HW2 2968   3.139   6.237   3.406  0.6684  0.6427 -0.1620
  144SOL     OW 2969   4.538   3.936   5.553 -0.0948 -0.1628  0.0720
  144SOL    HW1 2970   4.591   3.889   5.487  0.9473  0.8596  0.1611
  144SOL    HW2 2971   4.468   3.875   5.574  1.5703 -1.9665  0.6247
  145SOL     OW 2972   9.457   9.807   8.984  0.3277 -0.7080  0.1960
  145SOL    HW1 2973   9.411   9.762   9.055  1.6447 -2.9937 -0.3793
  145SOL    HW2 2974   9.550   9.794   9.004  0.7162  0.2261 -0.9604
  146SOL     OW 2975   3.049   2.312   7.241  0.2017 -0.1190  0.4392
  146SOL    HW1 2976   3.001   2.388   7.274  2.0537  0.7759  1.1496
  146SOL    HW2 2977   3.117   2.296   7.307  1.6285 -0.6124 -1.1239
  147SOL     OW 2978   4.195   4.589   6.264 -0.0276 -0.3693  0.3999
  147SOL    HW1 2979   4.148   4.621   6.342 -1.1193  0.3313 -0.5222
  147SOL    HW2 2980   4.203   4.495   6.278 -1.0852 -0.3942  0.9186
  148SOL     OW 2981   7.856   3.911   7.903  0.1673 -0.2313 -0.5524
  148SOL    HW1 2982   7.947   3.937   7.908  0.2605 -0.6798  0.1839
  148SOL    HW2 2983   7.808   3.993   7.892  0.8473 -0.2008 -3.8044
  149SOL     OW 2984   2.928   7.129   1.492  0.3518 -0.2644  0.1242
  149SOL    HW1 2985   2.930   7.189   1.417 -0.6229 -0.0955  0.2299
  149SOL    HW2 2986   2.851   7.155   1.541  0.5557 -0.8841  0.7796
  150SOL     OW 2987   0.445   1.217   0.474 -0.0929 -0.1841  0.4718
  150SOL    HW1 2988   0.481   1.306   0.477 -1.0273  0.1618  1.6054
  150SOL    HW2 2989   0.522   1.160   0.473  0.4992  0.5529  2.4052
  151SOL     OW 2990   9.787   9.300   2.083 -0.4016 -0.3627  0.4475
  151SOL    HW1 2991   9.775   9.394   2.067  0.1944 -0.0790  1.5674
  151SOL    HW2 2992   9.701   9.262   2.068 -0.5409  0.2904 -0.4883
  152SOL     OW 2993   0.267   5.527   6.027  0.0047 -0.1242  0.5456
  152SOL    HW1 2994   0.239   5.454   6.082  0.3723 -0.2868  0.5191
  152SOL    HW2 2995   0.328   5.576   6.081 -0.6885  0.4982  0.7700
  153SOL     OW 2996   3.850   3.577   5.914  0.0788  0.1282 -0.2076
  153SOL    HW1 2997   3.870   3.568   6.008 -0.9132  0.9250  0.0859
  153SOL    HW2 2998   3.781   3.513   5.898 -0.9556  1.1790 -0.0075
  154SOL     OW 2999   6.865   3.347   1.292  0.5731 -0.4820 -0.3857
  154SOL    HW1 3000   6.862   3.333   1.386  0.7132 -0.6433 -0.4042
  154SOL    HW2 3001   6.937   3.408   1.278 -1.0713  1.5759 -0.1529
  155SOL     OW 3002   5.898   2.741   9.613  0.1511  0.1747 -0.1406
  155SOL    HW1 3003   5.980   2.777   9.580  0.3342  0.4087  0.5573
  155SOL    HW2 3004   5.869   2.681   9.545  0.4392  0.7712 -0.7922
  156SOL     OW 3005   8.758   4.260   4.722 -0.6450 -0.5440 -0.2419
  156SOL    HW1 3006   8.747   4.351   4.693 -2.2275 -0.5387  0.3228
  156SOL    HW2 3007   8.836   4.261   4.777 -0.5815  0.4581 -0.3487
  157SOL     OW 3008   5.854   0.305   6.065 -0.2290  0.0850 -0.3233
  157SOL    HW1 3009   5.807   0.369   6.119  1.3096 -0.5534  1.8767
  157SOL    HW2 3010   5.806   0.223   6.077 -0.0142 -0.0075 -0.0838
  158SOL     OW 3011   3.910   5.765   6.778  0.1318  0.8293  0.0779
  158SOL    HW1 3012   3.961   5.788   6.856  1.5451 -0.7022 -0.3548
  158SOL    HW2 3013   3.974   5.763   6.707 -0.8740  0.7171 -0.8393
  159SOL     OW 3014   5.134   8.749   2.550  0.1413 -0.0519 -0.1204
  159SOL    HW1 3015   5.156   8.697   2.472  1.9812 -0.9642  0.9593
  159SOL    HW2 3016   5.077   8.692   2.602  0.5164 -0.2118  0.1178
  160SOL     OW 3017   5.814  10.174   3.249  0.2041  0.2959 -0.0134
  160SOL    HW1 3018   5.843  10.157   3.160 -0.9663  0.6130 -0.4586
  160SOL    HW2 3019   5.887  10.144   3.304  0.1625 -1.6673 -0.9793
  161SOL     OW 3020   5.886   3.865   4.012 -0.2026  0.3262 -0.3496
  161SOL    HW1 3021   5.874   3.809   3.936 -3.3710  1.9853 -1.1540
  161SOL    HW2 3022   5.909   3.951   3.976 -2.0309  1.2019  0.5048
  162SOL     OW 3023   5.433   9.559   2.756 -0.1979 -0.2924 -0.2373
  162SOL    HW1 3024   5.511   9.583   2.806 -0.9046  1.7094 -0.0590
  162SOL    HW2 3025   5.421   9.631   2.694 -2.8005  0.2028  0.8066
  163SOL     OW 3026   3.187   9.617   2.657  0.0361  0.2737  0.0118
  163SOL    HW1 3027   3.200   9.525   2.681 -0.8604  0.1354 -0.0311
  163SOL    HW2 3028   3.184   9.616   2.561  2.0204  0.6184 -0.0705
  164SOL     OW 3029   4.552   8.470   4.260 -0.0577 -0.6018  0.5910
  164SOL    HW1 3030   4.616   8.457   4.189 -1.1289  0.4260 -0.5838
  164SOL    HW2 3031   4.568   8.397   4.320  1.2270 -1.1920 -0.4343
  165SOL     OW 3032   5.610   4.447   2.818  0.3713  0.2103 -0.1103
  165SOL    HW1 3033   5.620   4.362   2.775 -2.2579  0.5538 -1.5173
  165SOL    HW2 3034   5.580   4.425   2.906  1.2655 -0.3512  0.0652
  166SOL     OW 3035   2.699   9.531   4.469 -0.0309  0.1764 -0.2992
  166SOL    HW1 3036   2.707   9.585   4.548  0.2921  1.1590 -0.9863
  166SOL    HW2 3037   2.710   9.593   4.397 -4.6498  0.0523 -1.2332
  167SOL     OW 3038   4.219   5.847   4.849 -0.2981  0.8276  0.4770
  167SOL    HW1 3039   4.302   5.832   4.894 -0.3817 -1.1937 -0.0043
  167SOL    HW2 3040   4.209   5.772   4.791 -2.5933  0.9089  0.7218
  168SOL     OW 3041   5.164   5.642   4.472 -0.2322  0.3284  0.1756
  168SOL    HW1 3042   5.150   5.736   4.488  0.2720  0.9494 -2.7877
  168SOL    HW2 3043   5.237   5.619   4.529  0.9432  2.2124 -0.5172
  169SOL     OW 3044   6.770   2.574   2.317 -0.9188 -0.1885  0.1926
  169SOL    HW1 3045   6.681   2.564   2.349 -1.5448  1.0366 -1.1263
  169SOL    HW2 3046   6.793   2.665   2.338  0.0843 -0.5432  0.6734
  170SOL     OW 3047   5.885   7.906   0.892 -0.3163 -0.2817  0.2488
  170SOL    HW1 3048   5.925   7.856   0.963 -2.3450  0.7088  2.1854
  170SOL    HW2 3049   5.857   7.988   0.933 -1.6637  0.2691 -1.6699
  171SOL     OW 3050   7.290   4.213   8.430  0.1394  0.2966 -0.0759
  171SOL    HW1 3051   7.360   4.257   8.382  1.2264  1.7080  2.6642
  171SOL    HW2 3052   7.225   4.282   8.446 -1.0686 -0.5911 -1.0812
  172SOL     OW 3053   9.991   4.259   0.047  0.0014  0.5333  0.7307
  172SOL    HW1 3054   9.907   4.221   0.023  1.4137 -2.1843 -0.1976
  172SOL    HW2 3055   9.982   4.280   0.140 -1.5577 -0.0850  0.7357
  173SOL     OW 3056   7.654   7.166   2.605  0.1221 -0.1192  0.1616
  173SOL    HW1 3057   7.653   7.070   2.598  0.0787 -0.0404 -1.0940
  173SOL    HW2 3058   7.722   7.185   2.669  0.2939 -0.9788  0.2397
  174SOL     OW 3059   5.392   8.209   1.307  0.1846 -0.0996  0.8489
  174SOL    HW1 3060   5.355   8.158   1.235 -2.7444  3.1263 -0.0784
  174SOL    HW2 3061   5.330   8.197   1.379 -0.1429  1.5228  0.8516
  175SOL     OW 3062   7.549   2.299   1.351 -0.6695  0.3546 -0.6903
  175SOL    HW1 3063   7.642   2.278   1.346 -0.9767 -0.8806 -1.2355
  175SOL    HW2 3064   7.547   2.382   1.399  0.6310 -0.1372  0.2596
  176SOL     OW 3065   2.604   9.095   4.914  0.2850 -0.0294  0.3065
  176SOL    HW1 3066   2.682   9.091   4.969  0.5923 -0.2546 -0.1389
  176SOL    HW2 3067   2.596   9.188   4.891 -1.0052  0.3844  2.3701
  177SOL     OW 3068   2.370   7.695   7.414 -0.1763 -0.2582  0.3056
  177SOL    HW1 3069   2.363   7.738   7.328 -1.7526 -0.7329  0.1798
  177SOL    HW2 3070   2.462   7.702   7.436 -0.1052  1.7378 -0.4769
  178SOL     OW 3071   5.035   6.368   1.104  0.4127 -0.5439 -0.7247
  178SOL    HW1 3072   5.050   6.442   1.045 -0.4270  1.0136  0.9659
  178SOL    HW2 3073   5.122   6.334   1.123  0.7234 -0.7861 -2.4818
  179SOL     OW 3074   7.749   6.599   7.389  0.0920  1.0296 -0.2941
  179SOL    HW1 3075   7.706   6.593   7.304  0.4907 -2.7386 -0.3044
  179SOL    HW2 3076   7.739   6.512   7.427  3.3578  1.5032  1.8577
  180SOL     OW 3077   0.837   2.951   3.166 -0.1947 -0.2402  0.3865
  180SOL    HW1 3078   0.821   2.981   3.077 -0.0901 -1.7232 -0.1477
  180SOL    HW2 3079   0.887   3.021   3.207  1.8149 -0.5664 -1.4565
  181SOL     OW 3080   7.510   0.640   7.769 -0.1763  0.3059  0.4043
  181SOL    HW1 3081   7.430   0.606   7.811  0.8789 -2.0781  0.5612
  181SOL    HW2 3082   7.525   0.581   7.695  1.8147  0.3349  0.7602
  182SOL     OW 3083   8.983   3.343   8.045 -0.4790 -0.2148  0.2515
  182SOL    HW1 3084   8.908   3.364   8.100 -0.1988  0.1162  0.5126
  182SOL    HW2 3085   8.965   3.386   7.962 -0.0751  0.7765  0.6691
  183SOL     OW 3086   6.077   3.990   3.054 -0.1166  0.3738  0.4584
  183SOL    HW1 3087   6.073   3.922   2.986 -0.7336  0.1236  0.7419
  183SOL    HW2 3088   6.072   4.072   3.006  0.1114  0.2130  0.1539
  184SOL     OW 3089   7.579   5.081   8.379 -0.4254 -0.3625 -0.3020
  184SOL    HW1 3090   7.639   5.095   8.306 -1.2574 -1.3160 -1.2015
  184SOL    HW2 3091   7.521   5.158   8.377  1.5197  1.1757  1.3549
  185SOL     OW 3092   8.810   2.812   8.562  0.1059  0.1990 -0.0400
  185SOL    HW1 3093   8.856   2.832   8.480  0.5364 -1.1602 -0.1369
  185SOL    HW2 3094   8.862   2.743   8.603 -1.7094 -1.2047 -0.0301
  186SOL     OW 3095   1.985   0.065   2.918  0.3723  0.1520 -0.1072
  186SOL    HW1 3096   1.934  -0.013   2.895  2.6917 -0.7449 -2.4403
  186SOL    HW2 3097   1.920   0.136   2.923 -1.2787 -1.2141 -1.6334
  187SOL     OW 3098   9.898   4.885  10.124 -0.0807  0.6880  0.4478
  187SOL    HW1 3099   9.895   4.937  10.043  2.5253  1.0571  0.5213
  187SOL    HW2 3100   9.930   4.946  10.190  1.2947 -0.5166  0.9291
  188SOL     OW 3101   1.133   9.189   5.846 -0.0618 -0.4197 -0.2500
  188SOL    HW1 3102   1.104   9.235   5.924  0.1311  0.4837 -0.7065
  188SOL    HW2 3103   1.113   9.097   5.863 -0.2053 -0.1994  0.7714
  189SOL     OW 3104   4.387   7.585  10.092  0.1044 -0.1393 -0.5235
  189SOL    HW1 3105   4.308   7.603  10.042  0.6586  1.3515 -0.8886
  189SOL    HW2 3106   4.356   7.538  10.170 -1.4815  2.6845  0.6242
  190SOL     OW 3107   2.603   6.309   6.977 -0.4550 -0.4945  0.3958
  190SOL    HW1 3108   2.557   6.225   6.980  0.7907 -1.3160 -2.4468
  190SOL    HW2 3109   2.678   6.296   7.035 -2.2926  0.0026  3.0143
  191SOL     OW 3110   3.972   7.443   6.675  0.9472 -0.9647 -0.4257
  191SOL    HW1 3111   4.001   7.504   6.608 -0.0738 -1.7296 -1.5749
  191SOL    HW2 3112   4.054   7.404   6.708  1.4619 -0.4827 -1.1116
  192SOL     OW 3113   4.485   2.713   9.802  0.1551 -0.2243 -0.0475
  192SOL    HW1 3114   4.424   2.655   9.757  0.9654 -1.3468  0.2845
  192SOL    HW2 3115   4.554   2.655   9.834  0.8735  0.8985  0.4569
  193SOL     OW 3116   3.814   0.313   3.572  0.1970  0.0202 -0.2971
  193SOL    HW1 3117   3.727   0.340   3.542 -0.1076  0.5669  1.0460
  193SOL    HW2 3118   3.868   0.315   3.494 -0.6668  1.0508 -0.8784
  194SOL     OW 3119   3.045   8.740   9.503  0.2698  0.0856  0.2046
  194SOL    HW1 3120   3.119   8.756   9.446 -1.4280  0.8202 -1.8321
  194SOL    HW2 3121   3.083   8.693   9.578  2.6031 -0.4605 -1.2571
  195SOL     OW 3122   0.369   2.932   0.032  0.0680 -0.1449 -0.2151
  195SOL    HW1 3123   0.426   3.002   0.002  0.3312 -0.8899 -1.4917
  195SOL    HW2 3124   0.341   2.887  -0.048 -0.1410 -1.4441  0.5628
  196SOL     OW 3125   7.881   2.377   1.694  0.4103 -0.2549 -1.4693
  196SOL    HW1 3126   7.813   2.319   1.728  0.7587 -0.1173 -0.5358
  196SOL    HW2 3127   7.838   2.462   1.688  1.1228  0.3205  1.2276
  197SOL     OW 3128   6.073   1.089   2.636 -0.1012 -0.2885 -0.0719
  197SOL    HW1 3129   6.080   1.039   2.555 -1.5583 -1.3237  0.4185
  197SOL    HW2 3130   6.001   1.048   2.684  0.5912  0.4462  1.6564
  198SOL     OW 3131   9.192  10.147   8.321 -0.1047 -0.0809 -0.1057
  198SOL    HW1 3132   9.231  10.194   8.394  0.4278 -2.2240  0.9991
  198SOL    HW2 3133   9.255  10.156   8.249  0.4898 -0.0313  0.4286
  199SOL     OW 3134   2.630   6.739   2.989  0.9425  0.6496 -0.1944
  199SOL    HW1 3135   2.551   6.785   2.960  0.1464  0.6831  1.9398
  199SOL    HW2 3136   2.649   6.678   2.919 -0.6644  1.0308 -0.9891
  200SOL     OW 3137   5.267   5.789   2.012  0.5716  0.6255  0.2763
  200SOL    HW1 3138   5.207   5.795   1.937 -0.7106 -1.2902  1.1027
  200SOL    HW2 3139   5.279   5.879   2.040 -1.3505  1.1142 -0.3844
  201SOL     OW 3140   5.567   1.774   0.457 -0.2250  0.2398  0.8690
  201SOL    HW1 3141   5.505   1.713   0.496 -0.8123 -0.3596 -0.9841
  201SOL    HW2 3142   5.513   1.840   0.414  0.3097 -1.6533 -2.9472
  202SOL     OW 3143   3.888   2.019   6.455  0.3721  0.5185 -0.5246
  202SOL    HW1 3144   3.843   2.076   6.393 -0.0902  0.6699 -0.0534
  202SOL    HW2 3145   3.964   2.070   6.483  0.6625  0.3897 -1.0779
  203SOL     OW 3146   8.460   8.115   2.733  0.6296 -0.3156  0.1634
  203SOL    HW1 3147   8.541   8.089   2.690  0.7886  1.5513 -0.7000
  203SOL    HW2 3148   8.480   8.113   2.827  1.4898 -0.4348 -0.0236
  204SOL     OW 3149   0.830   9.694   0.304  0.6104  0.3769  0.3077
  204SOL    HW1 3150   0.834   9.776   0.255  0.3783  0.2945  0.1512
  204SOL    HW2 3151   0.784   9.717   0.385  0.9075  0.4931  0.4434
  205SOL     OW 3152   1.802   5.652   7.674 -0.2921 -0.1907 -0.2179
  205SOL    HW1 3153   1.764   5.583   7.620 -2.0784 -0.4447  1.3488
  205SOL    HW2 3154   1.734   5.719   7.680  1.0486  1.2936 -0.8620
  206SOL     OW 3155   9.729   3.143   9.193  0.6220 -0.5637 -0.7211
  206SOL    HW1 3156   9.779   3.163   9.114  0.5203 -1.0778 -0.9190
  206SOL    HW2 3157   9.729   3.047   9.198 -1.0181 -0.6168 -1.1663
  207SOL     OW 3158   8.084   5.599   5.528  0.6290 -0.4012  0.3246
  207SOL    HW1 3159   8.113   5.520   5.484 -0.2295  0.2442 -1.4387
  207SOL    HW2 3160   8.041   5.651   5.460  1.5240  1.7669  1.3527
  208SOL     OW 3161   1.599   2.200   4.098  0.2071 -0.5017 -0.1874
  208SOL    HW1 3162   1.680   2.185   4.147  0.0942  1.6684  0.7401
  208SOL    HW2 3163   1.529   2.182   4.161  0.0454  1.2984  0.1678
  209SOL     OW 3164   7.122   0.307   6.014 -0.4760  0.5752  0.6516
  209SOL    HW1 3165   7.133   0.231   6.070 -2.1494  1.3881  2.1296
  209SOL    HW2 3166   7.125   0.272   5.925 -0.9082 -1.1598  1.3042
  210SOL     OW 3167   3.161   2.004   6.309 -0.0045 -0.6278  0.2402
  210SOL    HW1 3168   3.133   2.045   6.390  0.0900  0.0633 -0.0763
  210SOL    HW2 3169   3.250   2.035   6.295  0.7276 -2.3592  0.9343
  211SOL     OW 3170   5.063   1.975   1.034  0.1099  0.2008 -0.0426
  211SOL    HW1 3171   4.986   1.990   0.979 -1.1554 -2.3704  0.9570
  211SOL    HW2 3172   5.138   1.996   0.978 -1.2450  0.6439 -1.7101
  212SOL     OW 3173   9.153   5.322   9.637  0.6983 -0.6434  0.1048
  212SOL    HW1 3174   9.089   5.393   9.636  1.6032  0.1864 -0.4521
  212SOL    HW2 3175   9.106   5.247   9.673 -0.7427 -0.2212 -0.8822
  213SOL     OW 3176   2.683   7.013   2.245 -0.2277  0.2976 -0.0936
  213SOL    HW1 3177   2.653   7.057   2.325 -0.0352 -0.7402  0.5550
  213SOL    HW2 3178   2.636   7.057   2.175  0.3936  1.9267  0.4942
  214SOL     OW 3179   4.321   7.800   1.033  0.4987  0.3215  0.1205
  214SOL    HW1 3180   4.240   7.767   0.994  0.1749  0.6086  0.5466
  214SOL    HW2 3181   4.365   7.847   0.962  1.6707 -2.2257 -0.9227
  215SOL     OW 3182   5.752   0.874   6.805  0.3385 -0.2965 -0.1138
  215SOL    HW1 3183   5.792   0.959   6.785 -1.7652  0.2692 -2.0669
  215SOL    HW2 3184   5.767   0.822   6.727  1.2746 -1.6240  0.9321
  216SOL     OW 3185   1.682   1.911   0.245 -0.0948  0.0627  0.3635
  216SOL    HW1 3186   1.676   1.930   0.339  0.4647  2.5679 -0.0627
  216SOL    HW2 3187   1.604   1.951   0.207  1.0148  1.4225 -0.5538
  217SOL     OW 3188   9.657   6.468   3.155  0.6156  0.0244 -0.0084
  217SOL    HW1 3189   9.604   6.457   3.077 -0.4315  1.4312  0.4814
  217SOL    HW2 3190   9.650   6.385   3.201 -1.9861  0.4953  0.5257
  218SOL     OW 3191   7.586   9.634   5.001 -0.2269 -0.4365 -0.2601
  218SOL    HW1 3192   7.609   9.543   5.017  1.5133 -0.1887 -1.2392
  218SOL    HW2 3193   7.575   9.672   5.088  0.5079 -1.2201  0.1768
  219SOL     OW 3194   3.267   9.383   9.956  0.1588 -0.3326  0.5306
  219SOL    HW1 3195   3.230   9.427  10.033 -1.2473  1.2246 -0.9724
  219SOL    HW2 3196   3.319   9.451   9.913  0.7047 -1.1079 -0.0401
  220SOL     OW 3197   5.403   0.723   4.969 -0.5142 -0.1829 -0.0472
  220SOL    HW1 3198   5.462   0.777   5.022 -1.5574  1.4692 -0.5365
  220SOL    HW2 3199   5.457   0.649   4.941  1.2634  1.1868 -0.2952
  221SOL     OW 3200   4.329   6.203   9.463 -0.7776 -0.1326 -0.1476
  221SOL    HW1 3201   4.380   6.234   9.388  0.1953 -0.3324  0.4232
  221SOL    HW2 3202   4.301   6.283   9.507  0.4830 -0.0325  0.4910
  222SOL     OW 3203   4.496   6.811   7.974 -0.1728 -0.2845 -0.4148
  222SOL    HW1 3204   4.485   6.761   7.893 -1.6027 -2.5378  1.1264
  222SOL    HW2 3205   4.411   6.806   8.017  1.0379 -0.4549  1.9959
  223SOL     OW 3206   4.770   7.500   1.296 -0.0860  0.1190  0.2640
  223SOL    HW1 3207   4.859   7.512   1.330 -0.1722  0.0558  0.5142
  223SOL    HW2 3208   4.732   7.588   1.296 -1.0872 -0.2335  3.1236
  224SOL     OW 3209   4.495   9.205   8.771 -0.0559  0.1242 -0.1888
  224SOL    HW1 3210   4.412   9.209   8.820 -1.7902  0.7333 -3.0166
  224SOL    HW2 3211   4.520   9.113   8.774 -1.0691 -0.1470  0.3375
  225SOL     OW 3212   9.059   9.048   0.465 -0.2354  0.3834 -0.0635
  225SOL    HW1 3213   9.143   9.010   0.438 -0.6398  1.6655 -3.4028
  225SOL    HW2 3214   8.995   9.009   0.405 -1.6901  1.1853  0.9442
  226SOL     OW 3215   1.861   7.642   0.733  0.5788 -0.1204  0.2211
  226SOL    HW1 3216   1.808   7.598   0.667 -1.1468  1.9370  0.2054
  226SOL    HW2 3217   1.935   7.678   0.683  0.6457 -0.7950 -0.1737
  227SOL     OW 3218   8.649  10.200   2.975  0.2246 -0.7912 -0.2617
  227SOL    HW1 3219   8.589  10.147   2.923  0.4303 -0.8547 -0.4390
  227SOL    HW2 3220   8.639  10.168   3.064 -1.2503  0.3524 -0.0117
  228SOL     OW 3221   9.263   9.289   2.522 -0.0872 -0.7313 -0.0622
  228SOL    HW1 3222   9.254   9.351   2.450 -1.0623 -2.2697 -1.3110
  228SOL    HW2 3223   9.355   9.263   2.521 -0.0135 -0.4451 -0.5082
  229SOL     OW 3224   6.839   2.540   0.088 -0.0495  0.3264  0.8152
  229SOL    HW1 3225   6.931   2.517   0.096  0.2038  0.9784 -0.0671
  229SOL    HW2 3226   6.791   2.462   0.117  0.7697  0.1472  1.7112
  230SOL     OW 3227   2.130   1.157   1.270  0.4646  0.0500 -0.3850
  230SOL    HW1 3228   2.084   1.239   1.249 -0.4538 -0.2229  0.4960
  230SOL    HW2 3229   2.059   1.095   1.288  1.1682 -0.8484 -0.7279
  231SOL     OW 3230   1.857   3.672   0.100  0.1307 -0.1694 -0.8690
  231SOL    HW1 3231   1.879   3.587   0.062 -2.1871 -0.9430 -0.5413
  231SOL    HW2 3232   1.795   3.652   0.170 -0.4929  1.7879 -0.8304
  232SOL     OW 3233   1.830   6.488   1.901  0.1735  0.3835 -0.2741
  232SOL    HW1 3234   1.772   6.558   1.931  0.9006  0.4861  0.9061
  232SOL    HW2 3235   1.770   6.420   1.868 -0.7174 -0.3960  2.8301
  233SOL     OW 3236   3.809   9.837   5.451  0.2434  0.1301 -0.0673
  233SOL    HW1 3237   3.765   9.920   5.431  0.2572  0.6024  1.7240
  233SOL    HW2 3238   3.861   9.856   5.530  1.1683 -1.2691 -0.3280
  234SOL     OW 3239   4.776   9.866   8.998  0.2572 -0.0058 -0.6195
  234SOL    HW1 3240   4.708   9.871   9.066  0.7380 -0.3924 -0.1158
  234SOL    HW2 3241   4.786   9.957   8.969 -1.0621 -0.0491 -1.2751
  235SOL     OW 3242   8.958   2.430   4.828  0.1809  0.5056  0.2117
  235SOL    HW1 3243   8.890   2.410   4.893  1.3626 -0.8919  1.0412
  235SOL    HW2 3244   9.039   2.432   4.878  1.1115 -0.6447 -1.2377
  236SOL     OW 3245  10.038   0.803   5.070  0.0013  0.0035  0.1509
  236SOL    HW1 3246  10.058   0.869   5.004 -0.7699 -1.6063 -1.7286
  236SOL    HW2 3247  10.123   0.775   5.103  0.4375  0.0777 -0.9039
  237SOL     OW 3248   6.239   1.362   1.610  0.1311  0.2302  0.2494
  237SOL    HW1 3249   6.281   1.318   1.684  0.5882 -0.0872 -0.1946
  237SOL    HW2 3250   6.253   1.455   1.627 -1.4573  0.2553  1.5531
  238SOL     OW 3251   7.300   3.136   1.239  0.0055  0.3824  0.6222
  238SOL    HW1 3252   7.233   3.069   1.256 -0.6601  1.2016  1.2725
  238SOL    HW2 3253   7.279   3.206   1.301  2.4556 -0.0309  1.9911
  239SOL     OW 3254   7.032   5.532   9.727  0.4784 -0.7490  0.0955
  239SOL    HW1 3255   7.019   5.468   9.797  0.4781 -1.8715 -0.9098
  239SOL    HW2 3256   6.944   5.555   9.698  0.4528  0.3698  1.0349
  240SOL     OW 3257   5.641   6.515   1.714 -0.6962  0.4103 -0.2036
  240SOL    HW1 3258   5.665   6.444   1.773 -0.0914  1.2240  0.5338
  240SOL    HW2 3259   5.711   6.579   1.723 -2.0904  1.8891  0.4382
  241SOL     OW 3260   2.178   2.384   9.902  0.4013 -0.6262 -0.3772
  241SOL    HW1 3261   2.149   2.456   9.846  0.7788 -0.9423 -0.9872
  241SOL    HW2 3262   2.198   2.426   9.986 -2.1527 -0.4569  0.1877
  242SOL     OW 3263   6.134   1.868   9.821 -0.5953 -0.0631 -0.1475
  242SOL    HW1 3264   6.182   1.873   9.739  1.2672 -0.6480  0.8939
  242SOL    HW2 3265   6.100   1.778   9.823 -2.1733  0.4897 -1.1027
  243SOL     OW 3266   8.756   4.404   5.719 -0.0538  0.3166  0.0467
  243SOL    HW1 3267   8.702   4.483   5.727 -0.7038  0.0333 -1.3133
  243SOL    HW2 3268   8.716   4.341   5.779 -0.6445  0.4295 -0.2237
  244SOL     OW 3269   1.710   0.496   9.282 -0.4429 -0.6424 -0.3888
  244SOL    HW1 3270   1.739   0.422   9.335  0.2939  1.1099  1.7653
  244SOL    HW2 3271   1.787   0.521   9.231 -0.1369 -0.2689  0.2362
  245SOL     OW 3272   5.276   9.115   7.428  0.7537 -0.6532 -0.1340
  245SOL    HW1 3273   5.203   9.168   7.395  1.4564 -0.6461 -1.7067
  245SOL    HW2 3274   5.283   9.140   7.520 -2.2843 -1.8596  0.4887
  246SOL     OW 3275   4.137   7.474   8.577  0.3185  0.4585 -0.2721
  246SOL    HW1 3276   4.169   7.446   8.663  0.0183  2.6625  0.5787
  246SOL    HW2 3277   4.217   7.490   8.527  0.4957  0.2198 -0.0707
  247SOL     OW 3278   5.786   8.792   7.094 -0.1046 -0.1892  0.1122
  247SOL    HW1 3279   5.852   8.823   7.157 -1.2537  0.4230  1.0318
  247SOL    HW2 3280   5.714   8.854   7.102 -1.2986 -1.5281 -0.0283
  248SOL     OW 3281   5.860   5.789   7.765 -0.1026 -0.1987  0.2721
  248SOL    HW1 3282   5.901   5.788   7.851 -0.1107 -0.7036  0.2740
  248SOL    HW2 3283   5.781   5.842   7.776 -0.8138 -1.3709  0.9127
  249SOL     OW 3284   3.353   2.733   4.430  0.4621 -0.6847  0.4118
  249SOL    HW1 3285   3.303   2.768   4.356  0.3063  1.1544  1.3495
  249SOL    HW2 3286   3.442   2.767   4.418  0.4436 -0.4039  1.0537
  250SOL     OW 3287   0.074   9.479   4.524  0.2442  0.2886  0.2905
  250SOL    HW1 3288   0.044   9.522   4.443  0.4348  1.1274  0.6582
  250SOL    HW2 3289   0.021   9.399   4.529  0.0150  0.3822 -0.5033
  251SOL     OW 3290   9.207   2.059   6.225  0.8850 -0.7353  0.0177
  251SOL    HW1 3291   9.211   1.979   6.277 -0.1104 -0.2651  0.8294
  251SOL    HW2 3292   9.297   2.072   6.193  1.1156 -1.9880  0.1552
  252SOL     OW 3293   2.406   7.173   8.011  0.3534  0.4658 -0.0916
  252SOL    HW1 3294   2.380   7.082   8.001 -0.4613  0.6640  0.1284
  252SOL    HW2 3295   2.493   7.170   8.050 -0.2202 -0.2026  1.1599
  253SOL     OW 3296   4.589   1.086   3.054 -0.6166  0.3252 -0.7148
  253SOL    HW1 3297   4.655   1.127   2.998  0.9581 -1.2820 -0.0958
  253SOL    HW2 3298   4.638   1.058   3.131 -2.1469 -0.3812  0.0112
  254SOL     OW 3299   3.926   0.392   4.589 -0.1244  0.3006  0.4157
  254SOL    HW1 3300   3.990   0.442   4.538 -2.3207  1.5307 -1.2010
  254SOL    HW2 3301   3.965   0.305   4.598  2.1316  1.2494  0.1984
  255SOL     OW 3302   8.669   0.816   8.229 -0.3555 -0.3831 -0.4337
  255SOL    HW1 3303   8.642   0.790   8.317  1.2568 -0.8875 -0.0602
  255SOL    HW2 3304   8.587   0.828   8.181 -1.2336 -0.9355  0.8924
  256SOL     OW 3305   0.199   9.712   3.464 -0.9986  0.1629 -0.4939
  256SOL    HW1 3306   0.240   9.747   3.385 -0.8389 -1.2190 -1.0307
  256SOL    HW2 3307   0.228   9.621   3.468 -3.3140 -0.5961 -0.4214
  257SOL     OW 3308   7.580   7.808   8.235 -0.1119 -0.2217 -0.2257
  257SOL    HW1 3309   7.666   7.792   8.273 -0.1735  1.3817  0.6321
  257SOL    HW2 3310   7.518   7.778   8.302 -0.2122  1.0146  0.2546
  258SOL     OW 3311   1.269   2.831   4.238 -0.2831 -0.0759  0.2022
  258SOL    HW1 3312   1.220   2.885   4.299 -0.0736 -1.0319  1.2253
  258SOL    HW2 3313   1.346   2.883   4.215 -0.5809  0.4577  0.4059
  259SOL     OW 3314   9.724   7.831   1.966  0.4486  0.2909 -0.0770
  259SOL    HW1 3315   9.716   7.869   1.879 -0.6755 -1.1222 -0.6225
  259SOL    HW2 3316   9.636   7.837   2.003  0.2712 -1.5717 -0.1226
  260SOL     OW 3317   7.560   9.969   5.975  0.5074  0.4456  0.2165
  260SOL    HW1 3318   7.498   9.982   6.047  2.8109  1.0488  2.1791
  260SOL    HW2 3319   7.584   9.877   5.980  0.5534  0.4526  0.1212
  261SOL     OW 3320   3.746   1.146   0.997  0.6005  0.0814 -0.7015
  261SOL    HW1 3321   3.832   1.111   0.975  1.5949  2.5046 -0.8461
  261SOL    HW2 3322   3.764   1.229   1.041 -1.6641  0.4194 -0.3202
  262SOL     OW 3323   2.071   4.405   9.900 -0.5711 -0.2104 -0.4315
  262SOL    HW1 3324   1.985   4.434   9.932 -0.0050 -0.6569  1.5777
  262SOL    HW2 3325   2.090   4.327   9.952  0.6937 -0.5938 -1.4549
  263SOL     OW 3326   2.067   1.239   2.599 -0.1665 -0.6297 -0.0583
  263SOL    HW1 3327   2.002   1.300   2.566  0.3105  0.4175  0.8812
  263SOL    HW2 3328   2.151   1.274   2.568 -0.0099 -1.7098 -0.8731
  264SOL     OW 3329   4.720   8.788   7.995  0.2167 -0.9419 -0.1710
  264SOL    HW1 3330   4.642   8.747   7.957 -1.0051 -1.6272  2.9447
  264SOL    HW2 3331   4.746   8.729   8.065  0.7920  1.6281  1.8529
  265SOL     OW 3332   4.717   3.223   3.938  0.5946 -0.1079 -1.0097
  265SOL    HW1 3333   4.686   3.259   4.022 -2.0492 -1.2877 -1.4292
  265SOL    HW2 3334   4.761   3.297   3.895  1.4820  0.6585  1.1511
  266SOL     OW 3335   9.966   9.728   9.507  0.4083 -0.0515  0.1242
  266SOL    HW1 3336   9.930   9.701   9.422  1.1818 -0.3648 -0.1122
  266SOL    HW2 3337   9.892   9.767   9.553 -0.2391 -0.7094 -0.3357
  267SOL     OW 3338   2.769   2.836   0.610 -0.4526 -0.2504 -0.1794
  267SOL    HW1 3339   2.813   2.754   0.632  1.9615  0.8393 -0.7287
  267SOL    HW2 3340   2.786   2.894   0.684 -2.2661 -0.2616  0.2744
  268SOL     OW 3341   2.052   9.882   1.285 -0.4166 -0.0476  0.0599
  268SOL    HW1 3342   2.051   9.901   1.379  0.2576  0.7072 -0.0819
  268SOL    HW2 3343   2.145   9.866   1.265 -0.5703 -0.2930 -0.4564
  269SOL     OW 3344   6.401  10.035   5.918 -0.7699 -0.4176  1.0936
  269SOL    HW1 3345   6.487  10.074   5.905 -0.3736 -1.6274  0.0129
  269SOL    HW2 3346   6.381  10.052   6.010  0.7748 -0.4546  1.4520
  270SOL     OW 3347   5.421   5.700  10.071  0.0038  0.1565  0.2412
  270SOL    HW1 3348   5.482   5.627  10.068 -0.0802  0.0532  0.9339
  270SOL    HW2 3349   5.427   5.740   9.985 -2.5344 -2.7572 -1.3746
  271SOL     OW 3350  10.051   4.738   2.195 -0.0907 -0.3271  0.1552
  271SOL    HW1 3351  10.120   4.673   2.183  1.2586  0.9997  0.5500
  271SOL    HW2 3352  10.020   4.756   2.106  2.2608  1.3577 -0.3872
  272SOL     OW 3353   6.199   2.476   9.607 -1.1005  0.3306 -0.0863
  272SOL    HW1 3354   6.225   2.432   9.688 -0.4882 -2.8801 -1.9251
  272SOL    HW2 3355   6.175   2.565   9.634  0.3147 -0.2741  3.3962
  273SOL     OW 3356   5.109   5.195   8.131 -0.0398  0.6286 -0.3016
  273SOL    HW1 3357   5.111   5.123   8.068 -0.8643  0.6658 -0.3835
  273SOL    HW2 3358   5.201   5.217   8.147  0.1970 -0.1031 -0.6615
  274SOL     OW 3359   3.648   3.033   3.829 -0.2386 -0.2905 -0.0444
  274SOL    HW1 3360   3.649   2.939   3.846  1.5262 -0.1874  0.4904
  274SOL    HW2 3361   3.678   3.041   3.739  2.8112 -0.0593  0.9550
  275SOL     OW 3362   0.234   8.963   6.280  0.2060 -0.6205  0.3974
  275SOL    HW1 3363   0.301   8.989   6.216  1.3810 -0.6989  1.5667
  275SOL    HW2 3364   0.174   8.908   6.230 -0.4102  1.5120 -1.3028
  276SOL     OW 3365   1.703   6.824   0.628  0.0399  0.2290 -0.5868
  276SOL    HW1 3366   1.746   6.795   0.709  0.8838 -1.3160 -1.5638
  276SOL    HW2 3367   1.721   6.918   0.624  0.7534  0.1507  0.5653
  277SOL     OW 3368   1.711   7.346   9.336 -0.1321  0.2693 -0.3778
  277SOL    HW1 3369   1.670   7.431   9.323  0.0272  0.3544 -0.3192
  277SOL    HW2 3370   1.766   7.357   9.414 -1.2208 -0.2911  0.4801
  278SOL     OW 3371   7.442   2.172   9.009  0.2217 -0.3006  0.4416
  278SOL    HW1 3372   7.427   2.083   9.041 -0.9000 -0.7112 -1.1739
  278SOL    HW2 3373   7.526   2.167   8.964  1.5901  0.1753  2.8493
  279SOL     OW 3374   9.898   1.314   0.411  0.3456 -0.4912 -0.3206
  279SOL    HW1 3375   9.927   1.231   0.450  1.1671  0.4716  1.1416
  279SOL    HW2 3376   9.958   1.328   0.338 -0.3624 -1.6238 -1.1415
  280SOL     OW 3377   3.419   6.710   3.131 -0.0837  0.2357  0.0388
  280SOL    HW1 3378   3.476   6.675   3.062  0.1013 -1.7354  1.1414
  280SOL    HW2 3379   3.467   6.783   3.169  1.6279 -1.2637  0.8067
  281SOL     OW 3380   2.926   5.840   8.228 -0.2579 -0.1708 -0.3406
  281SOL    HW1 3381   2.844   5.842   8.178  0.3297 -0.0971 -1.3262
  281SOL    HW2 3382   2.917   5.766   8.287 -0.4561 -1.0573 -1.4633
  282SOL     OW 3383   8.685   0.447  10.030  0.4381 -0.0281  0.1722
  282SOL    HW1 3384   8.650   0.431   9.942  2.6995 -0.9792 -0.6068
  282SOL    HW2 3385   8.655   0.373  10.082  1.1823 -0.7887 -0.4632
  283SOL     OW 3386   8.684   9.547   8.812 -0.5033 -0.2184 -0.1829
  283SOL    HW1 3387   8.739   9.536   8.735  0.0124 -0.8187  0.2678
  283SOL    HW2 3388   8.733   9.605   8.869 -1.1237  0.6532 -0.5319
  284SOL     OW 3389   3.932   1.757   1.288  0.0836 -1.1367  0.7649
  284SOL    HW1 3390   4.025   1.779   1.279  0.0542 -1.8817 -1.6338
  284SOL    HW2 3391   3.907   1.720   1.203 -3.1480  1.7659  0.3504
  285SOL     OW 3392   0.755  10.202   9.181 -0.3958  0.2366 -0.5667
  285SOL    HW1 3393   0.803  10.254   9.117 -1.1218  0.7246 -0.7206
  285SOL    HW2 3394   0.719  10.267   9.242  0.1395 -0.2123  0.2313
  286SOL     OW 3395   6.862   5.282   7.963 -0.2557 -0.0538  0.1063
  286SOL    HW1 3396   6.779   5.298   8.008 -0.0967  0.5000  0.2120
  286SOL    HW2 3397   6.903   5.369   7.958  1.1763 -0.6028  1.7755
  287SOL     OW 3398   7.825   2.913   8.561  0.2696 -0.2458 -0.0513
  287SOL    HW1 3399   7.730   2.909   8.550  0.4183 -0.2789 -1.2867
  287SOL    HW2 3400   7.850   2.822   8.580  0.4573 -0.8738 -3.0537
  288SOL     OW 3401   5.875   4.009   5.216  0.0136  0.5437 -0.2561
  288SOL    HW1 3402   5.826   4.089   5.197 -0.9630 -0.0532 -0.3077
  288SOL    HW2 3403   5.850   3.986   5.306  2.5741  1.9104  0.8607
  289SOL     OW 3404   0.203   6.743   1.886  0.6868 -0.3929  0.6276
  289SOL    HW1 3405   0.136   6.735   1.954  0.7114  0.0071  0.6999
  289SOL    HW2 3406   0.206   6.837   1.866 -1.0040 -0.7837 -1.6216
  290SOL     OW 3407   4.399   2.038   6.599 -0.3090  0.0715  0.2708
  290SOL    HW1 3408   4.441   1.984   6.532 -0.3411 -0.2485  0.5019
  290SOL    HW2 3409   4.382   1.977   6.671 -1.4657  0.1139  0.0492
  291SOL     OW 3410   8.138   9.262   9.326  0.3626 -0.1610  0.1513
  291SOL    HW1 3411   8.087   9.243   9.404  0.8530 -0.4286  0.4145
  291SOL    HW2 3412   8.079   9.245   9.253  0.3682 -1.4028  0.4265
  292SOL     OW 3413   8.447   8.225   7.858  0.1870 -0.2717 -0.0628
  292SOL    HW1 3414   8.395   8.205   7.936  0.6913  0.0877  0.3688
  292SOL    HW2 3415   8.536   8.199   7.882  0.6091  1.2203  0.0071
  293SOL     OW 3416   8.589   4.632   5.713  0.3375  0.0803 -0.7044
  293SOL    HW1 3417   8.567   4.714   5.757  1.6439  1.8897 -3.3113
  293SOL    HW2 3418   8.505   4.592   5.692 -0.3160  0.0073  1.7912
  294SOL     OW 3419   2.663   7.840   9.313 -0.0200 -0.1356 -0.0464
  294SOL    HW1 3420   2.741   7.894   9.327 -0.6540  0.6534  0.4643
  294SOL    HW2 3421   2.670   7.812   9.222  1.5081 -1.1172  0.3569
  295SOL     OW 3422   6.616   3.820   5.055  0.0369  0.9175  0.0911
  295SOL    HW1 3423   6.622   3.781   5.142  0.1587  0.3567 -0.1706
  295SOL    HW2 3424   6.547   3.770   5.011 -0.6328  1.7655  0.1632
  296SOL     OW 3425   1.637   8.877   8.415 -0.2776 -0.4307 -0.3851
  296SOL    HW1 3426   1.630   8.969   8.439 -2.0932 -0.8815  0.8901
  296SOL    HW2 3427   1.555   8.858   8.371 -0.0837 -1.5532 -0.2652
  297SOL     OW 3428   7.150   2.732   3.339  0.3227 -0.1719 -0.2501
  297SOL    HW1 3429   7.101   2.672   3.395 -1.8724  1.0875 -0.7925
  297SOL    HW2 3430   7.167   2.682   3.260  0.0486 -0.6591 -0.0029
  298SOL     OW 3431   6.356   1.850   8.611  0.1942 -0.3697  0.2514
  298SOL    HW1 3432   6.317   1.895   8.685  1.2624  1.3907 -0.2228
  298SOL    HW2 3433   6.283   1.831   8.552 -0.4412 -0.4378  1.0576
  299SOL     OW 3434  10.007   6.252   6.837  0.4574  0.2092  0.1282
  299SOL    HW1 3435  10.024   6.193   6.763 -1.2091 -1.5974  1.1458
  299SOL    HW2 3436  10.041   6.206   6.913 -2.5221 -0.3462  1.2029
  300SOL     OW 3437   7.470   4.707   7.113 -0.2747 -0.5551  0.2957
  300SOL    HW1 3438   7.381   4.684   7.139 -0.4199  0.7381  0.9970
  300SOL    HW2 3439   7.526   4.671   7.182 -0.3300 -0.5655  0.3342
  301SOL     OW 3440   0.609   9.298   8.580 -0.0410 -0.2962  0.1312
  301SOL    HW1 3441   0.540   9.365   8.578  0.1981 -0.0771 -0.6222
  301SOL    HW2 3442   0.669   9.327   8.649 -2.0388 -1.8106  2.6192
  302SOL     OW 3443  10.182   0.830   0.199  0.3387 -0.1212 -0.6122
  302SOL    HW1 3444  10.129   0.765   0.245  2.4729 -2.1719 -0.9320
  302SOL    HW2 3445  10.163   0.815   0.107  0.6697 -0.1349 -0.6771
  303SOL     OW 3446   6.775   4.554   7.989  0.2058 -0.4229  0.1335
  303SOL    HW1 3447   6.852   4.503   7.963  0.0206 -0.6955  0.1229
  303SOL    HW2 3448   6.700   4.498   7.967 -0.1418  1.0318 -2.6334
  304SOL     OW 3449   7.905   6.975   0.945 -0.3156 -0.0066  0.0836
  304SOL    HW1 3450   7.945   6.989   1.031 -0.4078 -0.2191  0.1622
  304SOL    HW2 3451   7.906   7.061   0.904  0.7563 -0.1195 -0.1508
  305SOL     OW 3452   3.620   2.294   4.928 -0.4325 -0.1040  0.0567
  305SOL    HW1 3453   3.596   2.222   4.870  0.4921 -0.2198 -0.1882
  305SOL    HW2 3454   3.547   2.356   4.921 -1.2853 -1.0545  0.3495
  306SOL     OW 3455   1.878   6.467   7.623 -0.1958 -0.4910 -0.5508
  306SOL    HW1 3456   1.783   6.471   7.616 -0.4095 -1.5760  1.4907
  306SOL    HW2 3457   1.903   6.392   7.569 -0.4087  0.2462 -1.6933
  307SOL     OW 3458   1.263   1.433   6.891  0.1654 -0.4671 -0.1383
  307SOL    HW1 3459   1.315   1.353   6.892  2.9249  1.2876 -0.4352
  307SOL    HW2 3460   1.223   1.435   6.804  0.9541 -0.9664 -0.5086
  308SOL     OW 3461   9.599   9.224   8.587 -0.5198 -0.0034  0.3557
  308SOL    HW1 3462   9.636   9.146   8.547 -1.1371  0.1067 -0.4316
  308SOL    HW2 3463   9.675   9.274   8.618 -0.0147  0.2319 -1.2542
  309SOL     OW 3464   3.206   3.673   4.773 -0.2441  0.5191  0.4303
  309SOL    HW1 3465   3.231   3.755   4.816 -0.2813 -0.0193  1.4926
  309SOL    HW2 3466   3.128   3.643   4.821  0.4616 -0.7396  0.8213
  310SOL     OW 3467   4.169   8.567   7.439 -0.0178  0.4177 -0.6191
  310SOL    HW1 3468   4.234   8.617   7.389  2.2270 -1.0728  0.7127
  310SOL    HW2 3469   4.202   8.568   7.529 -0.6894 -2.2372 -0.3172
  311SOL     OW 3470   8.175   2.230   4.339  0.3811  0.1506  0.1238
  311SOL    HW1 3471   8.238   2.269   4.279 -0.0809 -0.0284 -0.4869
  311SOL    HW2 3472   8.101   2.291   4.339 -0.3525 -0.7027 -0.8484
  312SOL     OW 3473   4.440   4.689   1.522  0.2229  0.4649  0.1671
  312SOL    HW1 3474   4.425   4.662   1.613  0.5271 -1.7889 -0.4194
  312SOL    HW2 3475   4.353   4.710   1.488 -0.1114 -0.5163  0.4248
  313SOL     OW 3476   8.561   4.602   0.605  0.0437  0.5101  0.0473
  313SOL    HW1 3477   8.501   4.666   0.566 -1.8652  0.3463  2.6157
  313SOL    HW2 3478   8.603   4.648   0.677  0.6291 -0.3481  0.2671
  314SOL     OW 3479   4.690  10.097   7.432  0.1924 -0.0348 -0.2584
  314SOL    HW1 3480   4.625  10.039   7.392 -1.2383  1.2194  0.1831
  314SOL    HW2 3481   4.711  10.054   7.516 -3.3075  1.6408  1.5895
  315SOL     OW 3482   6.943   1.373   9.118 -0.1942 -0.3107 -0.2046
  315SOL    HW1 3483   6.899   1.309   9.062 -2.2959  1.1739 -0.3213
  315SOL    HW2 3484   6.983   1.435   9.056  2.1888 -1.6647 -0.1017
  316SOL     OW 3485   1.408   4.308   2.558 -0.5451  0.0393  0.2275
  316SOL    HW1 3486   1.434   4.217   2.546  0.5095  0.5032 -1.2081
  316SOL    HW2 3487   1.322   4.314   2.518 -0.0643 -0.0511 -0.8459
  317SOL     OW 3488   7.096   2.932   5.413 -0.0749 -0.0365  0.8098
  317SOL    HW1 3489   7.017   2.944   5.465 -1.2088 -0.9344 -0.6751
  317SOL    HW2 3490   7.103   3.011   5.360 -0.7839 -0.5945 -0.1158
  318SOL     OW 3491   1.131   4.768   7.101 -0.1746  0.2786 -0.4019
  318SOL    HW1 3492   1.043   4.807   7.102 -0.7757 -1.0774 -0.3255
  318SOL    HW2 3493   1.131   4.705   7.172  1.5778  1.7622  0.9875
  319SOL     OW 3494   5.967   6.539   8.312  0.3508 -0.2278  0.2673
  319SOL    HW1 3495   5.918   6.480   8.370  0.0229 -0.6710 -0.4514
  319SOL    HW2 3496   6.037   6.574   8.367 -0.8086  0.4638  1.3353
  320SOL     OW 3497   3.469   6.282   6.933 -0.4054  0.1352  0.2171
  320SOL    HW1 3498   3.457   6.373   6.960  0.3846  0.4494 -0.4717
  320SOL    HW2 3499   3.522   6.243   7.003 -2.7415 -0.4458  1.7173
  321SOL     OW 3500   8.161   9.696   4.542  0.5019  0.5305 -0.2187
  321SOL    HW1 3501   8.067   9.700   4.558  0.1994 -0.2763 -1.6741
  321SOL    HW2 3502   8.201   9.740   4.617 -0.9186 -1.3176  1.6887
  322SOL     OW 3503   9.184   6.924   5.124  0.0143  0.2769 -0.3406
  322SOL    HW1 3504   9.139   6.968   5.052  0.4520  1.8031  0.2831
  322SOL    HW2 3505   9.117   6.871   5.166 -0.6707  0.7864 -0.7813
  323SOL     OW 3506   4.057   4.820   3.271  0.0852 -0.1772  0.7519
  323SOL    HW1 3507   4.071   4.849   3.361 -0.5170 -0.5219  0.9550
  323SOL    HW2 3508   4.143   4.792   3.241  0.5372  1.1463  0.7936
  324SOL     OW 3509   4.441   7.854   0.781 -0.3249 -0.1787 -0.2066
  324SOL    HW1 3510   4.486   7.771   0.763 -1.9223 -1.0456 -0.3189
  324SOL    HW2 3511   4.418   7.888   0.694 -2.6312 -1.3266 -0.1083
  325SOL     OW 3512   3.141   0.092   9.962  0.5756  0.0218 -0.1676
  325SOL    HW1 3513   3.150   0.003   9.929  1.9171  0.5246 -1.2168
  325SOL    HW2 3514   3.198   0.144   9.905 -0.0902  1.5193  0.5241
  326SOL     OW 3515   9.326   9.547   0.510 -0.0539  0.1622  0.2580
  326SOL    HW1 3516   9.283   9.469   0.547  0.1260  0.4179  1.0195
  326SOL    HW2 3517   9.352   9.520   0.422 -0.3506 -0.5133  0.3691
  327SOL     OW 3518   5.362   6.027   5.521  0.1719  0.2903 -0.4908
  327SOL    HW1 3519   5.426   6.087   5.482 -0.2814  1.0549 -0.0752
  327SOL    HW2 3520   5.277   6.063   5.495 -0.1035 -0.2704 -0.3716
  328SOL     OW 3521   7.189   2.505   2.139  0.3067  0.3364  0.2582
  328SOL    HW1 3522   7.096   2.486   2.125  0.5889 -0.2721 -0.8646
  328SOL    HW2 3523   7.191   2.552   2.222 -0.9134 -0.4579  0.7635
  329SOL     OW 3524   0.379   5.562   1.768  0.1030 -0.0346  0.3290
  329SOL    HW1 3525   0.389   5.528   1.857 -1.3516 -2.2110 -0.3053
  329SOL    HW2 3526   0.285   5.577   1.758  0.5316  2.6879  0.0152
  330SOL     OW 3527   4.383   9.965   0.745 -0.4597  0.7034 -0.8572
  330SOL    HW1 3528   4.306  10.022   0.735 -1.7916 -0.5083  2.0195
  330SOL    HW2 3529   4.451  10.023   0.779 -1.1472  1.0337 -0.0441
  331SOL     OW 3530   8.214   4.094   4.889 -0.1785  0.3194  0.0363
  331SOL    HW1 3531   8.225   4.179   4.847 -0.7229 -1.1049 -3.1368
  331SOL    HW2 3532   8.244   4.031   4.824 -0.4825 -1.9781  2.0430
  332SOL     OW 3533   5.691   0.832   2.851  0.1044 -0.4901 -0.0389
  332SOL    HW1 3534   5.718   0.765   2.914  0.4804  0.8004  1.2223
  332SOL    HW2 3535   5.597   0.843   2.867  0.0334 -0.7322 -0.2758
  333SOL     OW 3536   5.588   9.308   5.614  0.2159 -0.0939 -0.3013
  333SOL    HW1 3537   5.648   9.326   5.687 -0.7047 -0.1313  0.4782
  333SOL    HW2 3538   5.619   9.365   5.543 -0.9433  2.5791  1.2443
  334SOL     OW 3539   9.853   9.350   3.458 -0.0095 -0.0585 -0.0934
  334SOL    HW1 3540   9.779   9.290   3.453 -0.0468  0.0258 -0.6266
  334SOL    HW2 3541   9.928   9.298   3.430 -0.3623  0.6665 -2.5834
  335SOL     OW 3542   7.004  10.084   3.322  0.0802 -0.2700  0.1741
  335SOL    HW1 3543   7.016  10.154   3.257 -1.6098  1.2688  1.4716
  335SOL    HW2 3544   7.017  10.127   3.406  0.0380 -1.7499  0.9485
  336SOL     OW 3545   3.506   4.960   7.430 -0.0727 -0.4155 -0.2399
  336SOL    HW1 3546   3.526   4.867   7.421 -1.3089 -0.9064  1.8047
  336SOL    HW2 3547   3.577   4.995   7.484 -0.2779 -0.4390  0.0465
  337SOL     OW 3548   3.884   4.824   2.288  0.2445  0.1190 -0.2033
  337SOL    HW1 3549   3.897   4.884   2.214 -1.7960  1.0967  0.1821
  337SOL    HW2 3550   3.892   4.880   2.366 -0.4730 -0.3275  0.2016
  338SOL     OW 3551   4.787   2.024   8.025  0.6349 -0.1997  0.3293
  338SOL    HW1 3552   4.856   2.059   8.081 -1.2584  1.8152  1.4282
  338SOL    HW2 3553   4.740   1.962   8.080  0.4136 -0.2009  0.1385
  339SOL     OW 3554   0.567   8.687   8.333  0.5989  0.6211 -0.3508
  339SOL    HW1 3555   0.597   8.678   8.423  0.0578 -0.0307 -0.2314
  339SOL    HW2 3556   0.642   8.658   8.280  0.7147  0.4670 -0.1014
  340SOL     OW 3557   3.893   9.435   9.033 -0.1153  0.2073 -0.1213
  340SOL    HW1 3558   3.957   9.434   8.961 -0.0168  0.0398 -0.0290
  340SOL    HW2 3559   3.853   9.523   9.028 -0.4006  0.0496 -0.6376
  341SOL     OW 3560   6.405   5.777   3.888  0.2622  0.8149 -0.4909
  341SOL    HW1 3561   6.326   5.827   3.868  0.5963  2.1410  1.3499
  341SOL    HW2 3562   6.374   5.698   3.930 -0.0906  1.5318  0.6233
  342SOL     OW 3563   1.432   0.132   6.195  0.7234  0.0591  0.4351
  342SOL    HW1 3564   1.363   0.149   6.259  0.2151  0.5416 -0.2364
  342SOL    HW2 3565   1.396   0.064   6.138  0.4543  0.9508 -0.4597
  343SOL     OW 3566   5.998   2.508   1.284 -0.0641  0.1964  0.0252
  343SOL    HW1 3567   5.956   2.579   1.235 -1.2119 -0.4392  0.0578
  343SOL    HW2 3568   5.984   2.531   1.376 -2.7332 -1.3244  0.0708
  344SOL     OW 3569   4.418   9.567   9.865  0.1058 -0.1578  0.1206
  344SOL    HW1 3570   4.403   9.628   9.792  1.2398  0.7790  0.6445
  344SOL    HW2 3571   4.512   9.573   9.882 -0.2507  0.1655  2.1118
  345SOL     OW 3572   2.221   8.093   3.121  0.2720  0.0567  0.7380
  345SOL    HW1 3573   2.200   8.046   3.040 -0.9679  1.8792 -0.0576
  345SOL    HW2 3574   2.282   8.036   3.168  1.7099 -0.6458 -1.8930
  346SOL     OW 3575   9.268   1.153   1.671 -0.0769  0.2476  0.5971
  346SOL    HW1 3576   9.326   1.194   1.607  0.0667 -1.0528 -0.1221
  346SOL    HW2 3577   9.298   1.062   1.676 -0.9684 -0.0110  1.4941
  347SOL     OW 3578   0.898   5.353   4.562 -0.1710  0.0303 -0.0014
  347SOL    HW1 3579   0.840   5.404   4.505 -0.3611  0.2687  0.4033
  347SOL    HW2 3580   0.977   5.340   4.510  0.0596  1.1366  0.0631
  348SOL     OW 3581   1.298   6.022   2.788  0.5176 -0.0142  0.1657
  348SOL    HW1 3582   1.347   6.056   2.712 -1.0673 -0.6920 -1.1878
  348SOL    HW2 3583   1.357   5.956   2.826  1.1836  0.0729 -0.6894
  349SOL     OW 3584   0.393   3.676   6.494  0.0787  0.1811 -0.4047
  349SOL    HW1 3585   0.463   3.664   6.430 -1.2573  0.8478 -2.0293
  349SOL    HW2 3586   0.431   3.732   6.561  1.8425 -1.3963 -0.0351
  350SOL     OW 3587   0.153   4.569   7.937  0.1800 -0.0372  0.6083
  350SOL    HW1 3588   0.072   4.603   7.977  0.5034 -0.7314  1.8685
  350SOL    HW2 3589   0.218   4.636   7.956 -0.0325  0.4130 -0.2072
  351SOL     OW 3590   9.620   3.158   0.354 -0.1818  0.5995 -0.0812
  351SOL    HW1 3591   9.680   3.115   0.416 -0.6323 -0.3013 -0.2612
  351SOL    HW2 3592   9.541   3.175   0.405 -1.0083 -1.2469 -0.7085
  352SOL     OW 3593   7.708   7.723   4.004 -0.7326 -0.0012 -0.1629
  352SOL    HW1 3594   7.648   7.690   4.070  1.2816  1.9399  2.7957
  352SOL    HW2 3595   7.665   7.800   3.967 -1.0562  0.0511  0.3239
  353SOL     OW 3596   0.523   9.270   5.398 -0.1994 -0.3017  0.0035
  353SOL    HW1 3597   0.587   9.214   5.354  1.0579  1.6038 -0.6267
  353SOL    HW2 3598   0.443   9.217   5.401  0.8588 -1.9887 -0.9026
  354SOL     OW 3599   0.072   3.578   9.397  0.3011  0.1579 -0.0356
  354SOL    HW1 3600  -0.011   3.530   9.395  1.4593 -1.8896 -1.6075
  354SOL    HW2 3601   0.050   3.666   9.369 -1.6199  0.0787  1.2168
  355SOL     OW 3602   2.075   0.988   7.918 -0.1815  0.2846  0.1042
  355SOL    HW1 3603   1.994   1.032   7.894  0.6947  0.9124 -1.7824
  355SOL    HW2 3604   2.121   1.050   7.974 -1.2632 -0.3336  1.7333
  356SOL     OW 3605   5.115   5.138   3.563  0.1183  0.5911  0.3183
  356SOL    HW1 3606   5.099   5.209   3.624 -1.3434  0.2472  0.3572
  356SOL    HW2 3607   5.206   5.114   3.577  0.1082  1.2531  1.5725
  357SOL     OW 3608   2.734   9.909   3.850 -0.3375  0.0044  0.1445
  357SOL    HW1 3609   2.674   9.838   3.871  1.2056 -1.0328  1.1137
  357SOL    HW2 3610   2.810   9.866   3.811  0.5579  1.1418  0.6188
  358SOL     OW 3611   2.720   7.791   1.549  0.0551  0.2186  0.4744
  358SOL    HW1 3612   2.629   7.782   1.524 -0.2146 -1.3084  1.9421
  358SOL    HW2 3613   2.763   7.712   1.515  0.7627  0.7838  0.0405
  359SOL     OW 3614   9.876   6.354   7.098 -0.0168  0.6498  0.5107
  359SOL    HW1 3615   9.853   6.299   7.024  0.9735 -2.1244  2.2177
  359SOL    HW2 3616   9.971   6.351   7.102 -0.0189  1.5013  1.3701
  360SOL     OW 3617   4.138   1.703   1.758 -0.0904  0.4173 -0.1493
  360SOL    HW1 3618   4.164   1.778   1.705 -0.1203 -0.3742 -1.3224
  360SOL    HW2 3619   4.045   1.718   1.776 -0.3994  0.0628 -1.4163
  361SOL     OW 3620   4.946   7.307   0.176 -0.2568 -1.0699 -0.3115
  361SOL    HW1 3621   4.925   7.274   0.089 -1.9217 -2.2584  0.5004
  361SOL    HW2 3622   4.888   7.383   0.187 -0.0004 -0.8820 -0.2537
  362SOL     OW 3623   0.393   9.507   9.886 -0.4186  0.4673  0.1642
  362SOL    HW1 3624   0.447   9.516   9.965 -0.9778  0.9284  0.4901
  362SOL    HW2 3625   0.453   9.529   9.814 -0.0227  0.4467  0.4852
  363SOL     OW 3626   6.816   2.370   4.907 -0.0828  0.7229  0.2489
  363SOL    HW1 3627   6.871   2.307   4.860  0.2614  1.1056  0.1422
  363SOL    HW2 3628   6.781   2.427   4.838 -1.7914 -0.4185  0.1421
  364SOL     OW 3629   8.407   1.396   3.250  0.5527 -0.8814 -0.2664
  364SOL    HW1 3630   8.467   1.323   3.241  2.4105  0.2880  1.9487
  364SOL    HW2 3631   8.460   1.474   3.231 -0.6689  0.0838  0.1557
  365SOL     OW 3632   4.144   8.420   0.425 -0.3701 -0.0366  0.4962
  365SOL    HW1 3633   4.118   8.340   0.472  0.2704 -0.9169 -0.6331
  365SOL    HW2 3634   4.223   8.395   0.378  0.2081  1.4705  0.6609
  366SOL     OW 3635   3.795   3.264   7.733 -0.3281  0.3665 -0.5811
  366SOL    HW1 3636   3.704   3.242   7.716 -0.0600 -2.1214  0.9874
  366SOL    HW2 3637   3.841   3.181   7.728  1.2664  1.0076  2.3414
  367SOL     OW 3638   8.815   6.235   7.300 -0.3358  0.0246 -0.1111
  367SOL    HW1 3639   8.830   6.202   7.211  0.6091 -0.0819  0.0861
  367SOL    HW2 3640   8.831   6.330   7.293 -0.6769  0.0801 -0.1454
  368SOL     OW 3641   1.759   4.280   3.155 -0.2703  0.6871 -0.3677
  368SOL    HW1 3642   1.730   4.228   3.080 -0.4048  0.3893 -0.1084
  368SOL    HW2 3643   1.701   4.255   3.226  0.6275  0.0607  0.1652
  369SOL     OW 3644   0.395   3.780   5.195 -0.1732  0.1762 -0.0673
  369SOL    HW1 3645   0.457   3.771   5.123  1.3127  0.6964  1.1300
  369SOL    HW2 3646   0.329   3.713   5.179  0.1233  0.3096 -1.9184
  370SOL     OW 3647   3.933   4.062   0.824 -0.0283 -0.1943  0.1143
  370SOL    HW1 3648   3.974   4.022   0.901 -0.9048 -0.2566  0.5585
  370SOL    HW2 3649   3.860   4.113   0.860 -1.2498 -1.2806 -0.7780
  371SOL     OW 3650   0.025   1.634   6.569  0.6670  0.5511  0.2867
  371SOL    HW1 3651  -0.027   1.661   6.494  2.2145 -0.3009 -1.1129
  371SOL    HW2 3652  -0.040   1.607   6.634 -0.8287  4.8885  0.7298
  372SOL     OW 3653   3.340   3.207   7.082  0.2498  0.0081 -0.1418
  372SOL    HW1 3654   3.245   3.217   7.076  0.1024 -0.4796  1.4092
  372SOL    HW2 3655   3.359   3.205   7.175  1.7060 -0.7481 -0.4345
  373SOL     OW 3656   9.801   4.880   4.152 -0.1495 -0.5516 -0.4426
  373SOL    HW1 3657   9.853   4.938   4.207  1.3138 -0.6530 -1.6669
  373SOL    HW2 3658   9.761   4.818   4.213  1.5384 -0.7465  0.5027
  374SOL     OW 3659   4.236   8.318   4.487 -0.1749 -0.4431  0.1263
  374SOL    HW1 3660   4.259   8.393   4.541  2.3718 -1.4277  0.4511
  374SOL    HW2 3661   4.298   8.250   4.512 -0.2699 -1.5842 -2.5647
  375SOL     OW 3662   6.255   0.914   8.071 -0.2913 -0.5853 -0.0267
  375SOL    HW1 3663   6.269   0.842   8.132 -2.8828 -1.9810 -0.9954
  375SOL    HW2 3664   6.197   0.974   8.118  0.2112 -0.1192  0.0084
  376SOL     OW 3665   0.215   3.347   1.826 -0.0874  0.2253  0.7018
  376SOL    HW1 3666   0.161   3.320   1.900 -0.2736  0.1601  0.5437
  376SOL    HW2 3667   0.182   3.433   1.802  0.0534  0.2984  0.7743
  377SOL     OW 3668   0.267   3.882   2.725 -0.3803 -0.0224  0.3085
  377SOL    HW1 3669   0.245   3.914   2.638 -0.6198  0.3238  0.4948
  377SOL    HW2 3670   0.183   3.864   2.767 -0.2899  0.5335  0.7355
  378SOL     OW 3671   2.177   9.479   6.903 -0.1934 -0.1189  0.3449
  378SOL    HW1 3672   2.256   9.487   6.849  0.2235  1.6178  1.1796
  378SOL    HW2 3673   2.106   9.511   6.847 -0.6831 -3.4949 -1.1111
  379SOL     OW 3674   2.518  10.129   0.351 -0.1151  0.1088  0.0259
  379SOL    HW1 3675   2.451  10.075   0.310 -0.5784  2.3543 -2.2808
  379SOL    HW2 3676   2.591  10.129   0.289 -0.7645  3.4221 -0.8758
  380SOL     OW 3677   9.972   5.961   8.068  0.2010 -0.6171  0.6062
  380SOL    HW1 3678  10.039   5.901   8.102  0.8605 -0.5218 -0.4875
  380SOL    HW2 3679   9.907   5.903   8.027 -0.6246 -0.7354  2.0412
  381SOL     OW 3680   8.831   5.876   3.492 -0.2378  0.0654 -0.0381
  381SOL    HW1 3681   8.830   5.812   3.564  0.2858 -0.6964 -0.7032
  381SOL    HW2 3682   8.747   5.921   3.499 -1.7485 -2.4823 -1.1200
  382SOL     OW 3683   0.804   3.404   4.947 -0.3375  0.1681  0.3869
  382SOL    HW1 3684   0.781   3.397   5.040 -2.1951 -0.6578 -0.1048
  382SOL    HW2 3685   0.823   3.314   4.921  0.8539  0.4936  0.1224
  383SOL     OW 3686   1.610   9.436   4.887  0.3464 -0.2904 -0.3964
  383SOL    HW1 3687   1.527   9.481   4.898 -0.1909 -1.2550 -0.4461
  383SOL    HW2 3688   1.675   9.506   4.882 -0.1280  0.4306  2.3695
  384SOL     OW 3689   5.162  10.022   1.881  0.1745  0.3814 -0.2262
  384SOL    HW1 3690   5.200  10.044   1.796 -0.3709  1.5381 -0.1824
  384SOL    HW2 3691   5.221  10.061   1.946 -0.6415  1.4770 -0.1387
  385SOL     OW 3692   0.753   2.443   8.308  0.2993 -0.0932  0.2105
  385SOL    HW1 3693   0.828   2.502   8.323 -0.7058  1.1434  0.4649
  385SOL    HW2 3694   0.678   2.491   8.342 -0.3608 -2.1072  1.6931
  386SOL     OW 3695   7.003   3.129   8.964 -0.1890  0.1270 -0.0496
  386SOL    HW1 3696   7.007   3.151   8.871  0.2588 -1.9035 -0.5259
  386SOL    HW2 3697   6.961   3.043   8.967  0.5902 -0.2169  1.5615
  387SOL     OW 3698   1.406   3.116   5.933  0.0382 -0.0324 -0.0937
  387SOL    HW1 3699   1.365   3.036   5.966 -0.0641 -0.0693 -0.3038
  387SOL    HW2 3700   1.476   3.135   5.995  0.6938 -0.8356 -0.5792
  388SOL     OW 3701   1.635   5.647   7.285 -0.4491  0.1837  0.0828
  388SOL    HW1 3702   1.558   5.702   7.298 -0.6746 -0.1272  0.0884
  388SOL    HW2 3703   1.669   5.631   7.373  0.8490  2.0300 -0.0472
  389SOL     OW 3704   0.496   2.800   4.135  0.2759  0.0897 -0.6703
  389SOL    HW1 3705   0.522   2.862   4.203 -1.3075  1.0950 -0.9377
  389SOL    HW2 3706   0.412   2.834   4.103  0.5667 -0.8382 -2.5183
  390SOL     OW 3707   6.965   9.480   8.859  0.0314  0.1193 -0.3344
  390SOL    HW1 3708   6.905   9.489   8.785  0.5333  0.8637 -0.6697
  390SOL    HW2 3709   7.024   9.408   8.835 -0.0301  0.1258 -0.5039
  391SOL     OW 3710   7.720   4.242   8.667  0.3574 -0.0895 -0.2765
  391SOL    HW1 3711   7.779   4.215   8.738 -0.6473  1.2046  1.0732
  391SOL    HW2 3712   7.748   4.331   8.645 -0.5587  0.2260 -0.1841
  392SOL     OW 3713   7.971   6.795   0.758 -0.1565  0.3472  0.2444
  392SOL    HW1 3714   7.939   6.848   0.831 -1.1394  1.0986 -0.7206
  392SOL    HW2 3715   7.926   6.830   0.681  1.2063 -0.1434 -0.7920
  393SOL     OW 3716   7.708   8.242   8.858  0.3805 -0.3328  0.2548
  393SOL    HW1 3717   7.640   8.238   8.925  1.1328 -0.0201  1.0315
  393SOL    HW2 3718   7.788   8.266   8.905  0.6210  1.3409 -0.9598
  394SOL     OW 3719   7.132   9.916   9.137 -0.6296  0.0381  0.4055
  394SOL    HW1 3720   7.212   9.911   9.190  0.4630  0.3400 -1.1672
  394SOL    HW2 3721   7.123   9.828   9.100 -0.0018  0.4993 -0.8602
  395SOL     OW 3722   1.599   1.613   3.894 -0.1519  0.2867 -0.0563
  395SOL    HW1 3723   1.575   1.611   3.987  1.8852 -2.2230  0.4405
  395SOL    HW2 3724   1.530   1.563   3.851  0.1301 -0.5108  0.4084
  396SOL     OW 3725   5.354   7.074   4.460 -0.2153  0.2010 -0.5216
  396SOL    HW1 3726   5.365   7.166   4.439 -1.5571  1.3541  3.4889
  396SOL    HW2 3727   5.273   7.070   4.511 -0.1529 -3.2062 -0.5484
  397SOL     OW 3728   3.399   4.289   6.702 -0.3688 -0.0662 -0.0862
  397SOL    HW1 3729   3.467   4.222   6.705 -0.3282  0.0178  1.5258
  397SOL    HW2 3730   3.433   4.355   6.642 -0.0136 -1.0654 -1.0019
  398SOL     OW 3731   3.222   4.172   4.592  0.6138 -0.1801 -0.5895
  398SOL    HW1 3732   3.251   4.081   4.589  1.7147  0.1462  0.0459
  398SOL    HW2 3733   3.171   4.178   4.673 -1.2626 -0.7471 -1.6945
  399SOL     OW 3734   1.076   7.375   8.546  0.2488 -0.6049 -0.2496
  399SOL    HW1 3735   1.087   7.363   8.641 -1.1237  0.2715  0.0323
  399SOL    HW2 3736   1.161   7.348   8.509  0.9100 -0.6488  1.2433
  400SOL     OW 3737   8.779   8.179   0.005  0.0665 -0.0644 -0.1364
  400SOL    HW1 3738   8.789   8.253   0.065 -2.2411  1.1075 -1.1660
  400SOL    HW2 3739   8.846   8.193  -0.062  0.2029  0.6194  0.1435
  401SOL     OW 3740   5.789   3.064   7.240 -0.1039 -0.4629  0.2231
  401SOL    HW1 3741   5.873   3.095   7.273 -0.2369 -1.7236  1.8556
  401SOL    HW2 3742   5.736   3.143   7.232  1.0539  0.2730 -0.2683
  402SOL     OW 3743   2.551   2.899   3.766 -0.4602 -0.0201 -0.1838
  402SOL    HW1 3744   2.487   2.964   3.796  0.4390 -0.3441  2.5677
  402SOL    HW2 3745   2.571   2.847   3.844  1.3234 -1.4968 -1.5759
  403SOL     OW 3746   4.675   6.457   0.877 -0.2307 -0.5677  0.0100
  403SOL    HW1 3747   4.751   6.453   0.819 -1.0212 -0.3539 -1.0553
  403SOL    HW2 3748   4.601   6.434   0.821 -1.0751  0.1596  0.8124
  404SOL     OW 3749   2.205   6.244   5.156 -0.1149 -0.0823  0.1663
  404SOL    HW1 3750   2.265   6.243   5.081 -0.4008 -1.5245 -0.0510
  404SOL    HW2 3751   2.243   6.182   5.218 -1.4026 -1.0634 -0.0084
  405SOL     OW 3752   6.122   6.537   6.122 -0.3713 -0.0687 -0.6155
  405SOL    HW1 3753   6.165   6.621   6.101 -2.4739  1.4813  1.0763
  405SOL    HW2 3754   6.195   6.476   6.133  1.2363  1.6192 -1.4173
  406SOL     OW 3755   8.181   3.696   7.077 -0.0342 -0.0254  0.1813
  406SOL    HW1 3756   8.147   3.633   7.014  0.8571 -1.2382  0.8982
  406SOL    HW2 3757   8.178   3.651   7.162  1.0319  0.7162  0.6345
  407SOL     OW 3758   1.315   7.102   9.344 -0.4303  0.4195 -0.2755
  407SOL    HW1 3759   1.331   7.135   9.432  1.7806 -0.3608 -0.3642
  407SOL    HW2 3760   1.241   7.042   9.354 -1.5564  1.9177  0.6530
  408SOL     OW 3761   6.080   1.427   3.118 -0.1986 -0.2090  0.5627
  408SOL    HW1 3762   6.139   1.376   3.063 -1.1336 -3.6938  2.6681
  408SOL    HW2 3763   5.992   1.404   3.088 -0.6358  1.8044  0.1731
  409SOL     OW 3764   2.912   5.113   0.322  0.1840 -0.1712  0.0694
  409SOL    HW1 3765   2.917   5.207   0.339 -1.7551  0.6601 -3.4228
  409SOL    HW2 3766   3.000   5.089   0.295  1.0307  0.3099  2.2628
  410SOL     OW 3767   1.494   3.810   9.666 -0.1703 -0.2938  0.1172
  410SOL    HW1 3768   1.529   3.879   9.609 -0.9016  1.2049  1.4399
  410SOL    HW2 3769   1.560   3.800   9.734  0.2006 -1.3144 -0.3913
  411SOL     OW 3770   7.968   5.198   2.855  0.6198 -0.5243  0.0308
  411SOL    HW1 3771   8.002   5.181   2.943  1.0087 -1.5667 -0.3089
  411SOL    HW2 3772   8.043   5.234   2.808  0.9184 -1.5977 -0.3492
  412SOL     OW 3773   2.063   5.176   3.536  0.0136 -0.3580 -0.1211
  412SOL    HW1 3774   2.011   5.224   3.471  0.9707  0.9393  0.0701
  412SOL    HW2 3775   2.058   5.229   3.615 -0.7439 -1.6960  0.7381
  413SOL     OW 3776   0.106   4.161   6.800  0.1171 -0.2556 -0.1542
  413SOL    HW1 3777   0.142   4.081   6.763  0.3988 -0.1778 -0.0493
  413SOL    HW2 3778   0.108   4.224   6.728  1.4197  0.1318  0.2053
  414SOL     OW 3779   0.179   4.658   3.650  0.3670  0.4568  0.2059
  414SOL    HW1 3780   0.183   4.653   3.554  2.4183  2.2075  0.1695
  414SOL    HW2 3781   0.217   4.575   3.679  1.5753  0.7414 -0.5070
  415SOL     OW 3782   9.603   8.534   5.781  0.2783  0.4952  0.0244
  415SOL    HW1 3783   9.646   8.618   5.770 -0.3430  1.0068  1.4078
  415SOL    HW2 3784   9.673   8.473   5.805  0.5201  0.9330  0.4338
  416SOL     OW 3785   0.258   1.506   2.274  0.0398 -0.2581  0.0733
  416SOL    HW1 3786   0.223   1.466   2.195  2.1631 -0.0052 -1.0272
  416SOL    HW2 3787   0.344   1.539   2.249  0.0720  1.2872  2.0652
  417SOL     OW 3788   4.316   3.765   2.237  0.0224 -0.0475  0.9249
  417SOL    HW1 3789   4.341   3.680   2.199 -1.6474 -0.7982  1.4541
  417SOL    HW2 3790   4.391   3.822   2.218  0.7464 -1.3550 -0.3354
  418SOL     OW 3791   0.488   6.007   8.206 -0.3208  0.6981 -0.3192
  418SOL    HW1 3792   0.456   6.047   8.286  1.7976  0.9274  0.4672
  418SOL    HW2 3793   0.576   6.044   8.194  0.0889 -0.6543 -1.7631
  419SOL     OW 3794   2.288   1.704   8.238  1.2163 -0.4217  0.1140
  419SOL    HW1 3795   2.377   1.734   8.218 -0.2926  4.4142  0.1581
  419SOL    HW2 3796   2.237   1.727   8.160 -0.2705 -2.2125  0.5138
  420SOL     OW 3797   8.779   4.238   8.186  0.4243  0.2932 -0.3146
  420SOL    HW1 3798   8.856   4.191   8.155  0.6953  0.8281 -0.4539
  420SOL    HW2 3799   8.782   4.322   8.140  0.1516  0.5976  0.2193
  421SOL     OW 3800   1.412   5.002   0.083 -0.3341 -0.2386 -0.1831
  421SOL    HW1 3801   1.421   4.946   0.006 -0.3332  0.2126 -0.5145
  421SOL    HW2 3802   1.320   4.991   0.109 -0.7674  0.8458 -1.2163
  422SOL     OW 3803   0.692   7.641   0.677  0.4759  0.0223 -0.4593
  422SOL    HW1 3804   0.665   7.566   0.624 -1.2779  1.2360 -1.3468
  422SOL    HW2 3805   0.635   7.639   0.753  2.1419 -0.9793  0.7984
  423SOL     OW 3806   9.520   5.065   8.757  0.3131  0.4009 -0.0553
  423SOL    HW1 3807   9.449   5.097   8.814  0.0173  0.4554 -0.4554
  423SOL    HW2 3808   9.550   5.143   8.710 -1.0233 -0.0742 -1.7101
  424SOL     OW 3809   2.080   1.892   6.143  0.2543 -0.1696 -0.0814
  424SOL    HW1 3810   2.092   1.963   6.080 -0.5459 -1.9099 -2.2817
  424SOL    HW2 3811   2.162   1.843   6.140  0.2768 -0.1562  0.3523
  425SOL     OW 3812   4.170   8.553   5.702  0.3029 -0.1386 -0.6274
  425SOL    HW1 3813   4.227   8.600   5.642  0.8339  1.4628  1.0698
  425SOL    HW2 3814   4.225   8.485   5.739  0.6021  0.2486 -0.3558
  426SOL     OW 3815   9.754   0.367  10.046 -0.0402 -0.0533  0.2542
  426SOL    HW1 3816   9.721   0.331  10.128 -0.7563  0.7524  0.3280
  426SOL    HW2 3817   9.794   0.451  10.071  1.6847 -0.8128  0.1000
  427SOL     OW 3818   4.780   0.677   1.707  0.0372 -0.4706  0.5205
  427SOL    HW1 3819   4.736   0.758   1.681  1.0043  0.4979  1.8277
  427SOL    HW2 3820   4.837   0.655   1.634  0.3078  0.4274  0.4570
  428SOL     OW 3821   0.794   6.261   9.671  0.0948  0.4213 -0.0125
  428SOL    HW1 3822   0.757   6.332   9.618  0.7540  0.2138 -0.7707
  428SOL    HW2 3823   0.798   6.187   9.611  0.6742  0.1280  0.3803
  429SOL     OW 3824   4.928   8.230   9.389  0.5873 -0.0258 -0.0153
  429SOL    HW1 3825   4.860   8.281   9.433 -1.5244 -1.0577 -1.9527
  429SOL    HW2 3826   4.943   8.276   9.307  2.3921  0.2925  0.4852
  430SOL     OW 3827   6.250   6.125   8.500 -0.5987  0.7990 -0.5477
  430SOL    HW1 3828   6.275   6.156   8.413 -0.9377  2.7118  0.0146
  430SOL    HW2 3829   6.332   6.093   8.538 -0.5366 -0.5182 -1.7329
  431SOL     OW 3830   5.031   2.583   5.016  0.5846 -0.2675  0.2078
  431SOL    HW1 3831   4.966   2.653   5.013  0.7613 -0.1251 -0.2803
  431SOL    HW2 3832   4.980   2.502   5.019  0.3928 -0.1667 -0.4101
  432SOL     OW 3833   3.313   0.760   1.787  0.4476  0.4619 -0.1283
  432SOL    HW1 3834   3.390   0.704   1.795  1.0084  1.1896 -0.4986
  432SOL    HW2 3835   3.259   0.716   1.721  0.2293 -0.3967  0.6029
  433SOL     OW 3836   3.222   4.273   4.362  0.0156  0.4576 -0.0324
  433SOL    HW1 3837   3.207   4.226   4.444  0.5248  1.5106  0.6905
  433SOL    HW2 3838   3.247   4.206   4.299 -1.5464 -0.5077  0.3693
  434SOL     OW 3839   8.695   4.209   1.396 -0.7744 -0.2979  0.1128
  434SOL    HW1 3840   8.781   4.218   1.438 -1.2465 -0.5093  1.1156
  434SOL    HW2 3841   8.686   4.115   1.378 -0.0766 -0.0793 -1.5407
  435SOL     OW 3842   4.956   8.783   5.633  0.2017  0.4420 -0.5372
  435SOL    HW1 3843   4.936   8.773   5.726  0.1032  0.9309 -0.5051
  435SOL    HW2 3844   4.983   8.695   5.605 -3.3120 -0.5868 -0.9282
  436SOL     OW 3845   0.294   4.473   0.708 -0.4106  0.0352 -0.0928
  436SOL    HW1 3846   0.369   4.415   0.717  0.5955  1.7901  3.8046
  436SOL    HW2 3847   0.259   4.481   0.796 -2.2426  3.1346 -1.0300
  437SOL     OW 3848   6.924   1.670   2.741 -0.4020  0.4476 -0.0328
  437SOL    HW1 3849   7.007   1.694   2.782  0.3669 -0.1160 -1.2456
  437SOL    HW2 3850   6.886   1.754   2.713  0.4197  0.5797 -0.7478
  438SOL     OW 3851   0.392   0.475  10.181  0.3309 -0.5869 -0.3274
  438SOL    HW1 3852   0.333   0.536  10.137 -0.6056 -0.4969  1.0304
  438SOL    HW2 3853   0.382   0.393  10.134 -2.5939 -1.1947  1.2800
  439SOL     OW 3854   9.665   5.526   4.363  0.4921 -0.4721  0.3544
  439SOL    HW1 3855   9.712   5.494   4.439  0.9333 -0.2991  0.1589
  439SOL    HW2 3856   9.648   5.448   4.310  0.6951 -0.5190  0.3561
  440SOL     OW 3857   8.665   8.632   2.771 -0.3528  0.2410 -0.6332
  440SOL    HW1 3858   8.725   8.706   2.778 -0.5883  0.4932 -1.2371
  440SOL    HW2 3859   8.615   8.649   2.691 -2.0063  0.6041  0.4586
  441SOL     OW 3860   5.538   3.239   1.299 -0.1589  0.0215 -0.8173
  441SOL    HW1 3861   5.567   3.153   1.329  1.1259  0.1905 -1.5334
  441SOL    HW2 3862   5.491   3.222   1.218 -1.9936 -0.2389  0.2732
  442SOL     OW 3863   1.863   8.574   9.983  0.4773 -1.1501 -0.0695
  442SOL    HW1 3864   1.827   8.545   9.899  1.4522 -1.9428 -0.2132
  442SOL    HW2 3865   1.956   8.552   9.979  1.3356  2.2289 -0.3056
  443SOL     OW 3866   1.382   3.131   7.069  0.2327  0.1638  0.2810
  443SOL    HW1 3867   1.395   3.213   7.116  1.6286  0.3324 -0.3822
  443SOL    HW2 3868   1.307   3.090   7.112  0.4418  1.1007  1.5520
  444SOL     OW 3869   1.790   2.911   1.719 -0.8757 -0.3325  0.2799
  444SOL    HW1 3870   1.761   2.842   1.779 -3.7011  0.4555 -0.0699
  444SOL    HW2 3871   1.733   2.985   1.739  0.3540  1.0317 -1.1423
  445SOL     OW 3872   5.056   1.342   7.977  0.2160  0.0741 -0.2105
  445SOL    HW1 3873   5.113   1.321   7.903  0.9211  0.4537  0.2146
  445SOL    HW2 3874   5.035   1.257   8.016 -0.0676 -0.1182 -0.7813
  446SOL     OW 3875   2.074   5.598   4.737 -0.0712 -0.4635 -0.1859
  446SOL    HW1 3876   2.079   5.516   4.787  0.3362 -0.2370  0.1509
  446SOL    HW2 3877   2.146   5.651   4.771 -1.9351  1.0756  1.4749
  447SOL     OW 3878   3.472   2.336   1.149 -0.0777 -0.1724 -0.7226
  447SOL    HW1 3879   3.474   2.244   1.123  0.0135 -0.4527  0.2636
  447SOL    HW2 3880   3.543   2.377   1.100  0.8293 -0.9312 -0.0456
  448SOL     OW 3881   7.416   3.753   9.351  0.2314  0.0824 -0.2715
  448SOL    HW1 3882   7.369   3.675   9.320  0.7311 -0.1958 -0.3470
  448SOL    HW2 3883   7.356   3.825   9.335 -0.0272 -0.2219 -0.7071
  449SOL     OW 3884   4.915   4.032   2.199 -0.4404 -0.5671 -0.1601
  449SOL    HW1 3885   4.990   4.075   2.241 -0.2147 -0.1829 -0.9381
  449SOL    HW2 3886   4.863   3.998   2.271 -0.8234  1.3395  0.4994
  450SOL     OW 3887   9.505   6.836   6.215  0.1582 -0.2187 -0.1023
  450SOL    HW1 3888   9.509   6.888   6.134  0.5959 -1.1783 -0.7124
  450SOL    HW2 3889   9.462   6.893   6.278  0.0568  0.6496 -0.9410
  451SOL     OW 3890   8.583   2.344   5.465 -0.2025 -0.0252  0.5396
  451SOL    HW1 3891   8.550   2.311   5.548 -0.3878  0.3126  0.6001
  451SOL    HW2 3892   8.677   2.332   5.470 -0.1404  0.6700  1.0944
  452SOL     OW 3893   3.020   7.646   3.640 -0.5827  0.3303 -0.4985
  452SOL    HW1 3894   2.963   7.574   3.665 -0.9943  0.4584 -1.0553
  452SOL    HW2 3895   2.992   7.720   3.695 -0.5232  0.2128 -0.3126
  453SOL     OW 3896   1.919   4.530   7.008 -0.3760  0.0607 -0.6911
  453SOL    HW1 3897   1.916   4.478   7.088  0.2683 -0.3128 -0.9022
  453SOL    HW2 3898   1.851   4.596   7.019  1.2846  1.5352  1.2370
  454SOL     OW 3899   8.199   5.328   1.999 -0.5262 -0.7333  0.0354
  454SOL    HW1 3900   8.164   5.404   2.046  0.9939  0.1348 -0.1928
  454SOL    HW2 3901   8.274   5.300   2.052  0.1522 -0.8159 -0.9477
  455SOL     OW 3902   9.423   5.679   1.354  0.7231 -0.1381 -0.0848
  455SOL    HW1 3903   9.417   5.751   1.292 -0.7608 -0.5558 -0.4410
  455SOL    HW2 3904   9.499   5.628   1.325 -0.0813 -0.4544 -1.6954
  456SOL     OW 3905   9.703   6.746   9.602  0.4383 -0.1730  0.1256
  456SOL    HW1 3906   9.763   6.690   9.652  0.9598  0.8684  0.6769
  456SOL    HW2 3907   9.676   6.691   9.528 -0.4157 -1.7671  1.5731
  457SOL     OW 3908   4.845   6.507   6.307  0.2228 -0.1655 -0.1194
  457SOL    HW1 3909   4.885   6.563   6.239 -1.1743 -1.1053 -1.7558
  457SOL    HW2 3910   4.804   6.568   6.367 -0.2546  0.6474 -1.2420
  458SOL     OW 3911   6.112   8.283   9.393  0.0816 -0.0167  0.7224
  458SOL    HW1 3912   6.124   8.253   9.483 -0.6497  0.4618  0.9798
  458SOL    HW2 3913   6.035   8.339   9.396  1.2069  1.5851  0.1720
  459SOL     OW 3914   7.193   6.614   1.724 -0.4090 -0.1322 -0.1997
  459SOL    HW1 3915   7.143   6.688   1.760 -0.5055 -1.2421  2.0558
  459SOL    HW2 3916   7.284   6.632   1.747 -0.4952 -0.9521  0.8404
  460SOL     OW 3917   8.800   1.114   5.178 -0.2595  0.0242  0.9056
  460SOL    HW1 3918   8.751   1.194   5.157  0.7501  0.5018  0.3415
  460SOL    HW2 3919   8.765   1.049   5.117  0.5439  0.6398 -0.2230
  461SOL     OW 3920   8.046   9.944   1.253  0.7680  0.0933  0.6124
  461SOL    HW1 3921   8.119   9.998   1.224  1.2501 -0.5962  0.5111
  461SOL    HW2 3922   7.968   9.991   1.224  1.2101  0.0110 -0.7748
  462SOL     OW 3923   6.739   3.883   3.881 -0.6056  0.0732  0.1568
  462SOL    HW1 3924   6.800   3.953   3.905 -1.1206  0.8911 -0.8547
  462SOL    HW2 3925   6.688   3.867   3.961  0.7631 -0.4597  0.9368
  463SOL     OW 3926   9.650   0.330   0.136  0.1284  0.0647 -0.5461
  463SOL    HW1 3927   9.591   0.366   0.203 -0.1681  0.8529 -1.2267
  463SOL    HW2 3928   9.638   0.235   0.142  0.5786  0.0784  0.9606
  464SOL     OW 3929   6.228   3.220   0.414  0.0314 -0.1085  0.2055
  464SOL    HW1 3930   6.283   3.209   0.336 -0.3444 -0.6343  0.0136
  464SOL    HW2 3931   6.172   3.295   0.394 -0.1782 -0.3461 -0.0941
  465SOL     OW 3932   0.324   4.301   1.356  0.6267 -0.0722 -0.1900
  465SOL    HW1 3933   0.299   4.283   1.265  1.0690  1.4680 -0.6190
  465SOL    HW2 3934   0.373   4.223   1.383 -2.6411 -2.1977 -0.0373
  466SOL     OW 3935   9.689   4.570   3.236 -0.2295  0.2290 -0.5643
  466SOL    HW1 3936   9.665   4.573   3.328  1.9223  0.4248  0.0200
  466SOL    HW2 3937   9.612   4.602   3.189 -1.2355  0.3783  1.1697
  467SOL     OW 3938   5.345   5.086   4.112  0.3703 -0.6925  0.0467
  467SOL    HW1 3939   5.439   5.089   4.126  0.2553  1.1871  0.5868
  467SOL    HW2 3940   5.334   5.089   4.017  0.8839 -3.1823 -0.1318
  468SOL     OW 3941   8.929   8.614   6.694 -0.1499 -0.1770  0.1465
  468SOL    HW1 3942   8.985   8.544   6.728 -2.6645 -2.1965  0.2737
  468SOL    HW2 3943   8.911   8.669   6.770  1.5643  0.4612  0.1180
  469SOL     OW 3944   0.030   5.511   5.891  0.5213  0.1733 -0.0366
  469SOL    HW1 3945  -0.055   5.509   5.934  0.2867 -2.6624 -0.5604
  469SOL    HW2 3946   0.092   5.527   5.963 -0.2821  0.5212  0.5937
  470SOL     OW 3947   8.314   2.083   3.929  0.1451  0.0387 -0.2781
  470SOL    HW1 3948   8.302   2.173   3.897 -0.1769 -1.3677 -4.3868
  470SOL    HW2 3949   8.229   2.041   3.916  0.5236 -1.0941  0.8617
  471SOL     OW 3950   6.967   3.686   5.153  0.1129  0.0407  0.0226
  471SOL    HW1 3951   6.974   3.773   5.115  1.0274  0.7934  1.8425
  471SOL    HW2 3952   7.043   3.639   5.118  0.0987  0.2492 -0.2860
  472SOL     OW 3953   6.156   7.398   4.214 -0.6279 -0.2212  0.2016
  472SOL    HW1 3954   6.120   7.481   4.182 -0.5723 -0.7769 -1.3292
  472SOL    HW2 3955   6.171   7.413   4.307 -1.6680  1.1229  0.1674
  473SOL     OW 3956   4.738   3.024   6.754 -0.2075  0.1932  0.2377
  473SOL    HW1 3957   4.697   2.950   6.799  0.9943 -0.8306 -0.2981
  473SOL    HW2 3958   4.725   3.005   6.661  0.7589  0.2552  0.0809
  474SOL     OW 3959   9.588   6.458   8.457 -0.3844  0.1180 -0.1623
  474SOL    HW1 3960   9.505   6.415   8.476 -1.2076  1.3988 -0.7963
  474SOL    HW2 3961   9.591   6.533   8.515  0.7709 -0.4313  0.5087
  475SOL     OW 3962   8.268   6.332   0.409  0.0354 -0.0048  0.2780
  475SOL    HW1 3963   8.359   6.359   0.395  0.0249  0.9954  2.0251
  475SOL    HW2 3964   8.220   6.372   0.337  0.9389 -0.4505 -0.5987
  476SOL     OW 3965   0.743   0.490   0.959  0.4274  0.2211  0.0539
  476SOL    HW1 3966   0.714   0.444   1.038  1.1599 -1.1096 -0.4248
  476SOL    HW2 3967   0.832   0.521   0.981 -0.0259  1.3513  0.3415
  477SOL     OW 3968   6.042   1.049   1.008 -0.3286  0.1675  0.3792
  477SOL    HW1 3969   6.078   1.095   1.083  2.0818 -0.0895 -0.5695
  477SOL    HW2 3970   6.058   1.108   0.934 -0.3471 -0.6710 -0.3030
  478SOL     OW 3971   8.570   5.308   5.115 -0.0018 -0.4649  0.3767
  478SOL    HW1 3972   8.663   5.321   5.094  0.3071 -0.5388  1.6124
  478SOL    HW2 3973   8.543   5.389   5.157 -0.5129 -0.4191 -0.0445
  479SOL     OW 3974   2.912   6.125   8.676  0.2376  0.1309 -0.4047
  479SOL    HW1 3975   2.876   6.054   8.730 -2.6010  1.5815 -0.2649
  479SOL    HW2 3976   2.899   6.204   8.730  2.5240  0.8681 -0.9126
  480SOL     OW 3977   3.055   6.986   6.641 -0.4742  0.1313 -0.4921
  480SOL    HW1 3978   3.086   6.922   6.705 -0.7796 -0.3816 -0.8583
  480SOL    HW2 3979   3.003   7.048   6.692  0.4089  0.4909 -0.0214
  481SOL     OW 3980   5.315  10.104   1.698  0.6482 -0.1455 -0.2075
  481SOL    HW1 3981   5.281  10.139   1.616  0.4140 -1.4091 -0.6592
  481SOL    HW2 3982   5.355  10.179   1.742 -0.3767  0.8083 -0.8821
  482SOL     OW 3983   0.160   9.655   9.543 -0.3063  0.4617  0.2815
  482SOL    HW1 3984   0.162   9.658   9.638 -4.5918 -1.0169  0.5261
  482SOL    HW2 3985   0.208   9.575   9.520  0.3257  0.5725  1.2157
  483SOL     OW 3986   8.201   3.380   9.717 -0.5776  0.0504  0.2603
  483SOL    HW1 3987   8.279   3.328   9.697 -1.4585 -0.9760 -0.5613
  483SOL    HW2 3988   8.192   3.374   9.812 -0.0088 -0.3399  0.2943
  484SOL     OW 3989   9.896   8.622   8.207 -0.4833  0.1689 -0.1398
  484SOL    HW1 3990   9.874   8.694   8.266 -0.3851  0.4711 -0.4712
  484SOL    HW2 3991   9.819   8.613   8.150 -0.2874  0.3522 -0.4348
  485SOL     OW 3992   2.170   0.129   5.310  0.0231 -0.2395 -0.8315
  485SOL    HW1 3993   2.230   0.126   5.236  1.4797 -2.2797  0.3795
  485SOL    HW2 3994   2.086   0.098   5.275  1.1102 -2.7692 -1.2810
  486SOL     OW 3995   0.111   1.187   7.604 -0.0117  0.0801  0.6062
  486SOL    HW1 3996   0.197   1.157   7.632  0.4148 -0.7595 -1.5230
  486SOL    HW2 3997   0.066   1.108   7.575 -0.0504  1.0322 -2.0120
  487SOL     OW 3998   2.047  10.120   8.448  0.1282  0.6195 -0.0166
  487SOL    HW1 3999   2.104  10.155   8.517  0.7941  1.2264 -0.8702
  487SOL    HW2 4000   2.101  10.124   8.369  0.7776 -3.6497  0.0854
  488SOL     OW 4001   5.928   8.201   4.612  0.2045 -0.5254 -0.7635
  488SOL    HW1 4002   5.969   8.274   4.658 -0.2736  0.3833 -1.7713
  488SOL    HW2 4003   5.976   8.124   4.643  0.6884  0.2011  0.3311
  489SOL     OW 4004   7.802   5.588   6.038  0.0320 -0.2610 -0.1450
  489SOL    HW1 4005   7.875   5.526   6.036 -1.1334 -1.7887  1.9842
  489SOL    HW2 4006   7.729   5.537   6.073 -1.3436  1.9480  0.2768
  490SOL     OW 4007   2.440   3.046   5.776  0.3320  0.4074 -0.2106
  490SOL    HW1 4008   2.508   3.094   5.728  1.1630 -1.4683 -0.9437
  490SOL    HW2 4009   2.380   3.015   5.708  0.3823 -0.5061  0.1621
  491SOL     OW 4010   6.228  10.019   8.492  0.6691 -0.2040 -0.0408
  491SOL    HW1 4011   6.272   9.935   8.486 -0.5685 -0.8094 -0.8565
  491SOL    HW2 4012   6.168  10.011   8.565  2.5291  0.9351  1.6596
  492SOL     OW 4013   0.457   1.622   4.729  0.1393 -0.0344 -0.2644
  492SOL    HW1 4014   0.369   1.659   4.727  0.4924  0.8590  0.3435
  492SOL    HW2 4015   0.463   1.569   4.650 -0.0918  1.8825 -1.6014
  493SOL     OW 4016  10.021   0.658   7.116 -0.2039  0.2055 -0.0128
  493SOL    HW1 4017  10.077   0.589   7.152 -3.1698 -1.5700  1.3795
  493SOL    HW2 4018  10.043   0.661   7.023  1.9317 -0.6543  0.4360
  494SOL     OW 4019   8.785   8.368   4.408 -0.1583 -0.4298 -0.1566
  494SOL    HW1 4020   8.713   8.381   4.347 -0.0948 -0.6311 -0.2733
  494SOL    HW2 4021   8.768   8.431   4.479  0.5149  0.7837 -1.0372
  495SOL     OW 4022   3.890   1.814   4.992 -0.8019  1.0342 -0.0631
  495SOL    HW1 4023   3.945   1.773   5.059 -0.1490 -0.3116 -1.4071
  495SOL    HW2 4024   3.829   1.868   5.041  0.0182  0.4787  1.5973
  496SOL     OW 4025   9.194   3.099   4.848 -0.1381  0.1772  0.2802
  496SOL    HW1 4026   9.131   3.171   4.844 -0.7275 -0.3101  0.7448
  496SOL    HW2 4027   9.223   3.087   4.758 -2.1290 -0.8401 -0.2624
  497SOL     OW 4028   5.999   1.752   8.725  0.0786  0.3132  0.1794
  497SOL    HW1 4029   6.085   1.789   8.742 -0.6212  1.4234  1.3974
  497SOL    HW2 4030   5.954   1.757   8.810 -0.4005 -2.3567  0.1167
  498SOL     OW 4031   9.720   9.883   5.432 -0.2635 -0.6226  0.2472
  498SOL    HW1 4032   9.766   9.958   5.470 -1.0949 -0.2832  0.6014
  498SOL    HW2 4033   9.744   9.809   5.488  0.7162 -0.6683 -0.2201
  499SOL     OW 4034   5.291   8.566   2.792 -0.4357 -0.1970 -0.0413
  499SOL    HW1 4035   5.214   8.542   2.740 -0.4167  0.2339 -0.2709
  499SOL    HW2 4036   5.360   8.506   2.763 -0.7577 -0.7697  0.3637
  500SOL     OW 4037   5.797   9.843   1.084 -0.2631 -0.3089 -0.4382
  500SOL    HW1 4038   5.824   9.752   1.085  2.5106  0.4598 -1.2615
  500SOL    HW2 4039   5.763   9.857   0.996  0.3875 -0.2544 -0.6811
  501SOL     OW 4040   1.227   5.154   3.224 -0.1352  0.5032  0.1800
  501SOL    HW1 4041   1.283   5.082   3.194 -0.1037  0.3101  0.6949
  501SOL    HW2 4042   1.143   5.138   3.181 -0.7861 -1.0525  1.9188
  502SOL     OW 4043   1.901   8.558   5.917  0.0858 -0.1873 -0.3706
  502SOL    HW1 4044   1.849   8.636   5.939  0.2695 -0.2173  0.1741
  502SOL    HW2 4045   1.989   8.593   5.899 -0.5206  0.0898 -3.0690
  503SOL     OW 4046   1.542   6.642   0.342 -0.3631  0.1639  0.2054
  503SOL    HW1 4047   1.528   6.726   0.387  0.1291  0.5224 -0.2966
  503SOL    HW2 4048   1.518   6.660   0.251 -0.1828 -0.2228  0.0821
  504SOL     OW 4049   9.273   6.064   7.862 -0.2268  0.0221  0.3998
  504SOL    HW1 4050   9.261   6.145   7.813 -0.6851  0.0931  0.6311
  504SOL    HW2 4051   9.358   6.076   7.906 -0.3389  0.4189  0.5151
  505SOL     OW 4052   2.171   6.989   7.800 -0.2211 -0.3483  0.4727
  505SOL    HW1 4053   2.216   7.073   7.795 -1.6705  0.4018 -0.2297
  505SOL    HW2 4054   2.238   6.925   7.775  1.1331  0.4919  1.8530
  506SOL     OW 4055   1.430   5.668   6.737 -0.0765  0.1691  0.4135
  506SOL    HW1 4056   1.343   5.686   6.773 -0.6396 -2.3335  0.4422
  506SOL    HW2 4057   1.486   5.659   6.814  0.1101  1.2314  0.4120
  507SOL     OW 4058   3.013   1.287   6.036  0.0175 -0.0401  0.2011
  507SOL    HW1 4059   2.968   1.333   5.965 -0.5163  1.4404  1.4898
  507SOL    HW2 4060   3.099   1.265   6.000  1.2128  4.0859  0.3252
  508SOL     OW 4061   3.056   9.699   6.527 -0.4801  0.3773 -0.2114
  508SOL    HW1 4062   2.976   9.724   6.574 -0.1418  0.4022  0.3533
  508SOL    HW2 4063   3.025   9.673   6.440 -1.1315  0.1724  0.0754
  509SOL     OW 4064   6.776   1.516   1.132 -0.1667  0.2757 -0.4171
  509SOL    HW1 4065   6.804   1.478   1.215  0.5732  1.4133 -0.1343
  509SOL    HW2 4066   6.819   1.463   1.065  0.7121  0.4934 -0.0310
  510SOL     OW 4067   4.081   2.464   4.788  0.7335 -0.2481 -0.0822
  510SOL    HW1 4068   4.094   2.533   4.724  1.3659 -1.7510 -1.6346
  510SOL    HW2 4069   4.000   2.421   4.762  1.3410 -1.2921 -0.3199
  511SOL     OW 4070  10.035   1.757   6.407  0.3496  0.5909 -0.3365
  511SOL    HW1 4071   9.944   1.741   6.385  0.4405 -2.0366  1.0284
  511SOL    HW2 4072  10.061   1.831   6.352 -2.8107  1.9135 -0.1339
  512SOL     OW 4073   8.544   0.858   7.665 -0.0530  0.1339  0.2698
  512SOL    HW1 4074   8.461   0.811   7.666 -0.3083  0.5312 -1.3231
  512SOL    HW2 4075   8.602   0.806   7.721 -0.4264 -1.8770 -1.1712
  513SOL     OW 4076   6.389   4.716   0.206  0.1611 -0.2371  0.3866
  513SOL    HW1 4077   6.386   4.677   0.118 -0.7248 -1.7303  1.0620
  513SOL    HW2 4078   6.310   4.771   0.210 -1.1564 -2.1371  1.1207
  514SOL     OW 4079   1.286   3.203   3.303  0.2767 -0.2227 -0.5539
  514SOL    HW1 4080   1.325   3.116   3.310 -1.3430 -1.0047 -0.9908
  514SOL    HW2 4081   1.310   3.246   3.384 -0.4995 -1.7569  0.5243
  515SOL     OW 4082   9.031   7.433   4.274  0.3862 -0.3516 -0.5089
  515SOL    HW1 4083   9.103   7.416   4.335  1.0990 -0.0807 -1.2591
  515SOL    HW2 4084   9.003   7.522   4.294 -1.1772 -1.2015  1.2230
  516SOL     OW 4085   3.182   8.495   4.368 -0.2581  0.1085 -0.1436
  516SOL    HW1 4086   3.106   8.438   4.354 -1.7088  2.1494 -0.7825
  516SOL    HW2 4087   3.190   8.545   4.287  1.9903 -0.3148 -0.2035
  517SOL     OW 4088   0.937   8.430   3.984  0.3447  0.4848  0.4606
  517SOL    HW1 4089   0.939   8.490   3.910  1.0944 -0.6096 -0.4298
  517SOL    HW2 4090   0.846   8.402   3.991 -0.0621  1.9269  1.0628
  518SOL     OW 4091   4.189   1.624   6.164  0.0734 -0.1133  0.1453
  518SOL    HW1 4092   4.211   1.538   6.129  0.8743  0.4450 -0.7221
  518SOL    HW2 4093   4.095   1.632   6.150 -0.0267 -0.8921  0.3411
  519SOL     OW 4094   7.858   0.316   6.336  0.0834 -0.0065  0.0664
  519SOL    HW1 4095   7.774   0.304   6.291  0.8062 -2.3261 -0.7834
  519SOL    HW2 4096   7.923   0.278   6.275  1.9261  2.9665  0.0900
  520SOL     OW 4097   6.814   0.950   1.787  0.2133 -0.1555 -0.0931
  520SOL    HW1 4098   6.757   0.905   1.849  0.1199  0.1523  0.0427
  520SOL    HW2 4099   6.883   0.886   1.768 -1.1416 -1.1903 -1.6439
  521SOL     OW 4100   5.095   9.265   9.074 -0.0231 -0.1254 -0.2617
  521SOL    HW1 4101   5.091   9.255   9.169  0.2232  0.0616 -0.2331
  521SOL    HW2 4102   5.023   9.211   9.041 -0.6716  0.5134  0.0819
  522SOL     OW 4103   8.843   0.032   0.455  0.5119  0.4270  0.2209
  522SOL    HW1 4104   8.856  -0.017   0.374  0.2103 -1.9567  1.5698
  522SOL    HW2 4105   8.927   0.076   0.471  0.6779  0.6277 -1.1775
  523SOL     OW 4106   7.581   4.836   6.507  0.4328 -0.7202  0.5329
  523SOL    HW1 4107   7.646   4.811   6.572 -0.0554 -0.4891  1.1115
  523SOL    HW2 4108   7.589   4.931   6.501 -1.7787 -0.3504  2.6842
  524SOL     OW 4109   8.142   1.992   5.929 -0.1355 -0.0967 -0.0463
  524SOL    HW1 4110   8.125   1.923   5.865  0.6464  0.8902 -1.3498
  524SOL    HW2 4111   8.086   1.971   6.003 -0.1333 -1.9561 -0.5536
  525SOL     OW 4112   1.562   5.228   4.442 -0.1754  0.6036 -0.1646
  525SOL    HW1 4113   1.590   5.291   4.509 -1.9310  1.8849 -0.6135
  525SOL    HW2 4114   1.486   5.269   4.401 -0.1464 -0.9504 -1.7964
  526SOL     OW 4115   9.766   6.497   5.919  0.0536  0.4372  0.7673
  526SOL    HW1 4116   9.787   6.585   5.888  0.1681 -0.7532 -2.7782
  526SOL    HW2 4117   9.842   6.444   5.895 -0.2549 -0.7445  2.3387
  527SOL     OW 4118   3.376   9.413   2.659  0.1322 -0.1854 -1.0277
  527SOL    HW1 4119   3.431   9.338   2.682 -0.7829 -0.1494  1.4667
  527SOL    HW2 4120   3.430   9.489   2.680  0.3499 -0.1521 -1.7155
  528SOL     OW 4121   2.472   8.887   8.456 -0.0286 -0.2385 -0.4423
  528SOL    HW1 4122   2.486   8.796   8.479 -0.7989 -0.3382 -0.3453
  528SOL    HW2 4123   2.398   8.886   8.395  1.5527  0.0981 -2.3807
  529SOL     OW 4124   9.390   6.506   7.268 -0.5000  0.0534 -0.6694
  529SOL    HW1 4125   9.463   6.513   7.330 -2.5401  2.1942  1.5744
  529SOL    HW2 4126   9.413   6.565   7.197  0.4357 -0.0790 -0.4794
  530SOL     OW 4127   2.442   3.649   7.516 -0.3478 -0.4834 -0.1423
  530SOL    HW1 4128   2.508   3.718   7.521 -0.0470 -0.6994 -0.9888
  530SOL    HW2 4129   2.435   3.629   7.423 -0.9262 -1.1217  0.0312
  531SOL     OW 4130   2.582   8.162   6.977  0.5204 -0.5663 -0.1199
  531SOL    HW1 4131   2.636   8.136   7.052 -1.8300  0.6910  2.0815
  531SOL    HW2 4132   2.501   8.112   6.988 -0.1591  0.2417 -1.3909
  532SOL     OW 4133   2.090   5.177   5.065 -0.7475 -0.0504 -0.5781
  532SOL    HW1 4134   2.156   5.168   5.134 -0.5307  1.8212 -0.5142
  532SOL    HW2 4135   2.018   5.225   5.107 -1.9078 -1.5716 -0.8118
  533SOL     OW 4136   5.532   5.691   5.013  0.1790 -0.0618  0.6366
  533SOL    HW1 4137   5.599   5.717   4.950 -1.3463  0.2756 -0.8860
  533SOL    HW2 4138   5.567   5.611   5.053  1.0234 -0.4919 -0.9124
  534SOL     OW 4139   7.918   8.464   2.562  0.0187 -0.0390 -0.0949
  534SOL    HW1 4140   7.823   8.453   2.559 -0.1362  1.5014 -1.4477
  534SOL    HW2 4141   7.953   8.382   2.529 -0.8617 -0.2774 -0.4469
  535SOL     OW 4142   0.465   3.388   7.946 -0.5466 -0.0096  0.2339
  535SOL    HW1 4143   0.535   3.450   7.966  0.0494 -0.1798 -1.3290
  535SOL    HW2 4144   0.510   3.308   7.920 -1.3299 -0.4520  0.2286
  536SOL     OW 4145   3.687   8.445   6.502 -0.3862 -0.2041  0.2393
  536SOL    HW1 4146   3.656   8.355   6.491  0.2917 -0.4083 -0.0504
  536SOL    HW2 4147   3.690   8.458   6.597  1.8776 -1.3436  0.3671
  537SOL     OW 4148   1.953   8.561   0.841  0.2586  0.5128  0.3385
  537SOL    HW1 4149   1.907   8.611   0.773  0.7059  1.7458  0.9388
  537SOL    HW2 4150   1.903   8.576   0.921  0.2511 -0.2180  0.4797
  538SOL     OW 4151   0.737   8.768   2.383  0.2064 -0.2134  0.0758
  538SOL    HW1 4152   0.740   8.857   2.347 -1.2436  1.6903  4.2591
  538SOL    HW2 4153   0.697   8.779   2.470 -0.3772 -5.0434  0.5570
  539SOL     OW 4154   2.620   6.048   9.986 -0.2630  0.2711  0.6143
  539SOL    HW1 4155   2.691   6.039   9.922 -1.0711  0.0022 -0.2438
  539SOL    HW2 4156   2.623   5.966  10.036 -3.0158 -1.8587 -2.5373
  540SOL     OW 4157   3.449   2.872   4.772 -0.0238  0.7014  0.4773
  540SOL    HW1 4158   3.523   2.836   4.722 -1.5986 -0.6180 -0.9808
  540SOL    HW2 4159   3.458   2.967   4.762  0.8335  0.5202 -0.6524
  541SOL     OW 4160   0.843   7.186   4.877 -0.6950 -0.0454  0.2758
  541SOL    HW1 4161   0.748   7.188   4.865 -0.6030 -0.8947 -0.6813
  541SOL    HW2 4162   0.862   7.095   4.902 -0.1700  0.1904  0.7490
  542SOL     OW 4163   6.115   1.614   8.984 -0.3163  0.0239  0.4123
  542SOL    HW1 4164   6.139   1.588   8.895 -2.5438 -0.7364  0.0076
  542SOL    HW2 4165   6.175   1.686   9.005  0.3315  0.1035 -1.6444
  543SOL     OW 4166   0.134   0.307   5.869 -0.4855  0.2726  0.6120
  543SOL    HW1 4167   0.099   0.219   5.880 -0.2315  0.2253  1.0382
  543SOL    HW2 4168   0.083   0.361   5.930 -1.0245  0.5264 -0.0502
  544SOL     OW 4169   4.411   8.387   8.017  0.3190 -0.1127 -0.1728
  544SOL    HW1 4170   4.402   8.292   8.029 -0.5365  0.1690  1.6389
  544SOL    HW2 4171   4.463   8.396   7.937  0.7504 -2.1128 -0.1591
  545SOL     OW 4172   3.143   2.970   6.711  0.0854  0.0101 -0.2865
  545SOL    HW1 4173   3.219   2.912   6.706 -0.1228 -0.1588 -1.5858
  545SOL    HW2 4174   3.175   3.054   6.678 -0.4436 -0.2265 -1.4210
  546SOL     OW 4175   8.345   5.568   1.934  0.1298  0.0887  1.1016
  546SOL    HW1 4176   8.420   5.607   1.977 -0.5704 -0.6949  3.0794
  546SOL    HW2 4177   8.342   5.478   1.966 -1.6501  0.1135  1.0804
  547SOL     OW 4178   8.712   5.466   3.375  0.3090 -0.5812 -0.2111
  547SOL    HW1 4179   8.657   5.543   3.355  2.2123  0.9867  0.3984
  547SOL    HW2 4180   8.729   5.473   3.469  2.2016 -0.6010 -0.5419
  548SOL     OW 4181   8.420   6.853   9.727  0.0621  0.4352 -0.0098
  548SOL    HW1 4182   8.514   6.850   9.742  0.0119  0.1300  0.2444
  548SOL    HW2 4183   8.410   6.895   9.642  0.4414  0.0133 -0.2559
  549SOL     OW 4184   0.944   9.008   6.394 -0.3470  0.3670 -0.1162
  549SOL    HW1 4185   0.882   9.001   6.321 -2.2672 -2.5354  1.7290
  549SOL    HW2 4186   0.896   9.056   6.462  1.2194  2.5003 -0.4461
  550SOL     OW 4187   8.761   3.667   8.933  0.3999  0.1250  0.2959
  550SOL    HW1 4188   8.701   3.726   8.887  0.2038  0.0712  0.4796
  550SOL    HW2 4189   8.826   3.642   8.868 -0.1315 -0.3053 -0.0772
  551SOL     OW 4190   8.404   0.322   5.688  0.0703 -0.4218  0.1700
  551SOL    HW1 4191   8.493   0.329   5.722  0.2753  1.0329 -0.6048
  551SOL    HW2 4192   8.360   0.401   5.720 -0.7066 -0.7361 -0.1142
  552SOL     OW 4193   7.592   3.336   9.968 -0.4122  0.0699  0.0492
  552SOL    HW1 4194   7.621   3.386  10.044  1.1820  0.7040 -0.9588
  552SOL    HW2 4195   7.497   3.343   9.970 -0.3034  1.4685  1.0582
  553SOL     OW 4196   1.631   8.176   7.221  0.0428  0.2316  0.3513
  553SOL    HW1 4197   1.668   8.263   7.206  2.1519 -0.3921  1.6936
  553SOL    HW2 4198   1.659   8.124   7.146  0.3236  0.2520  0.4396
  554SOL     OW 4199   2.164   8.682   9.888  0.0858  0.2953 -0.0954
  554SOL    HW1 4200   2.126   8.745   9.950 -0.3841 -0.7405  0.7076
  554SOL    HW2 4201   2.227   8.732   9.837  0.2101  1.2604  0.9857
  555SOL     OW 4202   6.053   6.934   9.614  0.0905 -0.3800 -0.3754
  555SOL    HW1 4203   6.131   6.894   9.653 -2.2143 -2.0763  2.6458
  555SOL    HW2 4204   5.996   6.860   9.593 -0.1758  0.7236 -3.9702
  556SOL     OW 4205   2.547   7.025   9.430 -0.6078 -0.3827 -0.1631
  556SOL    HW1 4206   2.548   6.968   9.353  0.0799 -2.2960  1.2294
  556SOL    HW2 4207   2.456   7.027   9.458 -1.0259  1.0451 -1.5021
  557SOL     OW 4208   4.575  10.181   4.591  0.1763  0.5178  0.2465
  557SOL    HW1 4209   4.552  10.159   4.681  2.2864 -2.1062  0.2173
  557SOL    HW2 4210   4.493  10.168   4.541 -0.4695 -0.1012  1.4487
  558SOL     OW 4211   8.357   8.088   6.527 -0.3645 -0.4090  0.5800
  558SOL    HW1 4212   8.394   8.175   6.521 -1.6861  0.0168 -2.7353
  558SOL    HW2 4213   8.263   8.102   6.541 -0.6634 -1.2498 -0.4564
  559SOL     OW 4214   3.225   4.342   6.396  0.3415 -0.6105  0.0515
  559SOL    HW1 4215   3.221   4.406   6.326 -1.5882  0.1106  0.7786
  559SOL    HW2 4216   3.308   4.358   6.440 -0.1299  1.4021  0.2296
  560SOL     OW 4217   9.539   6.176   2.561  0.0228  0.1393 -0.3224
  560SOL    HW1 4218   9.456   6.135   2.539 -0.6447  1.7078 -0.8163
  560SOL    HW2 4219   9.601   6.104   2.568 -0.9000 -0.8424 -2.1435
  561SOL     OW 4220   2.764   5.685   7.358 -0.2022 -0.3062 -0.1871
  561SOL    HW1 4221   2.728   5.621   7.420  0.3081  0.4922  0.9629
  561SOL    HW2 4222   2.787   5.761   7.413  0.6266  0.2632 -1.3031
  562SOL     OW 4223   7.448   6.087   0.988  0.2646  0.4727  0.4168
  562SOL    HW1 4224   7.404   6.108   0.905  0.1314  1.1118  0.6476
  562SOL    HW2 4225   7.483   6.171   1.018  0.9296  0.1156  0.6537
  563SOL     OW 4226   9.809   6.688   6.257  0.3684 -0.1571 -0.4289
  563SOL    HW1 4227   9.812   6.596   6.232  1.5037 -0.2503  0.0139
  563SOL    HW2 4228   9.754   6.691   6.335  0.2933 -0.4548 -0.4739
  564SOL     OW 4229   8.708   1.277   9.155 -0.0156 -0.2103 -0.0827
  564SOL    HW1 4230   8.701   1.363   9.195 -0.8271  0.2465 -1.2045
  564SOL    HW2 4231   8.763   1.227   9.216 -0.5041  0.7345  1.1508
  565SOL     OW 4232   7.930   9.579   1.045 -0.8519  0.1617  0.4175
  565SOL    HW1 4233   7.884   9.647   0.997 -0.2162  0.2615 -0.0609
  565SOL    HW2 4234   8.005   9.557   0.990  0.1855  0.6717  1.5994
  566SOL     OW 4235   5.520   1.722   1.432  0.0831 -0.3090 -0.6299
  566SOL    HW1 4236   5.527   1.791   1.366 -0.9876 -0.1817 -0.6236
  566SOL    HW2 4237   5.438   1.678   1.412  0.1841 -0.8264  0.0864
  567SOL     OW 4238   6.982   8.025   6.186 -0.0680 -0.6132  0.4227
  567SOL    HW1 4239   6.920   8.076   6.238  0.8551 -0.6156  1.5567
  567SOL    HW2 4240   7.016   7.960   6.248  1.5938 -0.1439  0.0204
  568SOL     OW 4241   6.583   9.688   1.760  0.5530  0.2541  0.0516
  568SOL    HW1 4242   6.620   9.604   1.734  0.1809  0.2567 -0.4952
  568SOL    HW2 4243   6.570   9.735   1.678 -1.6143 -0.1348  0.1296
  569SOL     OW 4244   7.327   2.178   0.366  0.1616  0.4257  0.3009
  569SOL    HW1 4245   7.241   2.140   0.348  0.2092  0.3661  0.1959
  569SOL    HW2 4246   7.309   2.270   0.388  0.2840  1.0562 -2.1231
  570SOL     OW 4247   3.226   7.997   8.139 -0.3598 -0.7301  0.6301
  570SOL    HW1 4248   3.226   7.982   8.234  0.6947  0.4127  0.8143
  570SOL    HW2 4249   3.310   7.963   8.109 -0.6599 -1.0214  0.1008
  571SOL     OW 4250   0.954  10.201   8.105 -0.1018 -0.4376 -0.0924
  571SOL    HW1 4251   0.909  10.214   8.188  0.5771  2.2664 -0.1039
  571SOL    HW2 4252   0.989  10.112   8.110 -0.0467 -0.2998  2.5274
  572SOL     OW 4253   3.955   5.199   2.924 -0.3262 -0.6666 -0.2486
  572SOL    HW1 4254   3.953   5.242   2.838  0.2119 -0.7399 -0.2997
  572SOL    HW2 4255   3.987   5.265   2.984  1.9062 -1.3932 -0.5778
  573SOL     OW 4256   8.587   2.668   9.567  0.0856 -0.6561  0.1779
  573SOL    HW1 4257   8.629   2.587   9.536  1.6714  0.3131 -0.2546
  573SOL    HW2 4258   8.657   2.733   9.565 -1.6963  1.2609 -1.5892
  574SOL     OW 4259   4.255   9.200   8.927 -0.6956  0.0619  0.2124
  574SOL    HW1 4260   4.217   9.153   8.853  1.0785 -0.1359 -0.6135
  574SOL    HW2 4261   4.239   9.143   9.002 -1.1955 -0.4545 -0.2776
  575SOL     OW 4262   5.546  10.162   7.756 -0.0568 -0.2638 -0.3680
  575SOL    HW1 4263   5.620  10.213   7.724 -0.5872 -0.2202 -1.5540
  575SOL    HW2 4264   5.486  10.228   7.793  0.4886 -0.2979  0.5674
  576SOL     OW 4265   3.312  10.149   7.855 -0.6326 -0.0492  0.0048
  576SOL    HW1 4266   3.250  10.161   7.926 -2.2678  1.7987 -1.6895
  576SOL    HW2 4267   3.297  10.059   7.825 -0.4917 -0.5613  1.4287
  577SOL     OW 4268   8.190   2.763   1.355 -0.2733  0.1555  0.2616
  577SOL    HW1 4269   8.199   2.859   1.353  2.2005  0.0188  2.0406
  577SOL    HW2 4270   8.182   2.742   1.448 -1.3889 -1.3493 -0.1602
  578SOL     OW 4271   5.285   8.646   7.412  0.5328 -0.3960  0.0008
  578SOL    HW1 4272   5.290   8.553   7.432 -1.4972 -0.9695 -2.0868
  578SOL    HW2 4273   5.234   8.683   7.484 -1.5361 -1.4645 -0.8872
  579SOL     OW 4274   9.733   1.266   2.672  0.7380 -1.2066 -0.1571
  579SOL    HW1 4275   9.699   1.257   2.583  0.9628  0.0634 -0.3851
  579SOL    HW2 4276   9.655   1.282   2.726  0.6731 -1.2964 -0.2246
  580SOL     OW 4277   7.217   0.301   0.919 -0.2192 -0.6275  0.1833
  580SOL    HW1 4278   7.300   0.271   0.955  0.2230 -0.0854 -0.3599
  580SOL    HW2 4279   7.218   0.396   0.931 -1.2626 -0.7454  1.1928
  581SOL     OW 4280   8.801   7.878   4.826 -0.2510 -0.2247 -0.4299
  581SOL    HW1 4281   8.770   7.793   4.794 -1.4010 -0.1785  0.5299
  581SOL    HW2 4282   8.762   7.887   4.913  3.1457 -0.5198  1.2217
  582SOL     OW 4283   3.077   9.495   9.403 -0.2610  0.2102  0.0413
  582SOL    HW1 4284   3.125   9.467   9.482 -0.0720  1.5960  0.4308
  582SOL    HW2 4285   3.082   9.419   9.345 -0.4462 -0.8590  1.3742
  583SOL     OW 4286   9.346   0.707   4.263  0.1196  0.5418 -0.6885
  583SOL    HW1 4287   9.382   0.622   4.240  0.3538  0.9972 -2.0195
  583SOL    HW2 4288   9.309   0.741   4.182  1.1188  2.2232 -0.4698
  584SOL     OW 4289   1.291   0.867   0.310  0.2310  0.7809 -0.3709
  584SOL    HW1 4290   1.287   0.867   0.406  2.9934  0.1917 -0.2241
  584SOL    HW2 4291   1.210   0.823   0.284  0.4611 -1.0323  1.7762
  585SOL     OW 4292   9.331   7.489   2.460 -0.1058  0.2487 -0.2761
  585SOL    HW1 4293   9.345   7.580   2.434 -0.0875  0.1301 -0.6887
  585SOL    HW2 4294   9.309   7.444   2.378 -1.2327  0.0999  0.1031
  586SOL     OW 4295   0.174   5.113   1.125  0.2148 -0.0163  0.0819
  586SOL    HW1 4296   0.217   5.103   1.041  0.3894  0.0452  0.1636
  586SOL    HW2 4297   0.108   5.181   1.111  1.5814  1.4267  0.5035
  587SOL     OW 4298   2.555   6.746   7.739 -0.5326 -0.2224  0.4227
  587SOL    HW1 4299   2.513   6.687   7.676 -1.2612 -0.8584  1.4838
  587SOL    HW2 4300   2.626   6.693   7.777  1.5157  0.9689 -1.6345
  588SOL     OW 4301   6.723   4.756   1.144 -0.3583  0.4171  0.1676
  588SOL    HW1 4302   6.755   4.835   1.187 -0.2536  0.0187  0.8248
  588SOL    HW2 4303   6.737   4.772   1.051 -0.4104  1.2029  0.2932
  589SOL     OW 4304   5.112   7.164   8.783  0.1802  0.1288 -0.4782
  589SOL    HW1 4305   5.190   7.205   8.744  0.4655  0.3161  0.2785
  589SOL    HW2 4306   5.069   7.235   8.830  1.8652 -0.8615  2.6952
  590SOL     OW 4307   6.085   7.991   4.696 -0.2419  0.0935 -0.4812
  590SOL    HW1 4308   6.128   8.002   4.612 -0.8308  0.0190 -0.7924
  590SOL    HW2 4309   6.155   8.003   4.761  0.2912 -0.2666 -0.9908
  591SOL     OW 4310   9.545   2.660   3.866 -0.5843  0.0391 -0.8050
  591SOL    HW1 4311   9.523   2.613   3.785 -0.9379  0.7974 -1.1546
  591SOL    HW2 4312   9.460   2.685   3.903 -0.3935  0.6581 -0.7750
  592SOL     OW 4313   1.761   8.482   3.232 -0.4136  0.6204 -0.3821
  592SOL    HW1 4314   1.788   8.574   3.226  0.4430  0.3501 -0.8798
  592SOL    HW2 4315   1.821   8.444   3.296 -0.5974  0.3524 -0.3695
  593SOL     OW 4316   4.736   4.762   4.461  0.2621  0.1502  0.3622
  593SOL    HW1 4317   4.691   4.729   4.539 -0.9454 -0.3704 -0.5330
  593SOL    HW2 4318   4.785   4.686   4.428 -1.4219 -0.4141 -0.9217
  594SOL     OW 4319   8.703   2.997   5.123 -0.1585 -0.2726 -0.4762
  594SOL    HW1 4320   8.628   3.028   5.072 -0.7052  0.2861  0.6275
  594SOL    HW2 4321   8.693   2.902   5.125  0.1822 -0.3488 -1.8621
  595SOL     OW 4322   2.243   7.971   1.958 -0.0696  0.1767  0.7035
  595SOL    HW1 4323   2.334   7.960   1.984  0.1044  0.1282  0.0773
  595SOL    HW2 4324   2.204   7.884   1.967  0.6033 -0.3962 -1.5342
  596SOL     OW 4325   6.171   6.697   8.030  0.2078  0.3891 -0.0577
  596SOL    HW1 4326   6.173   6.664   7.940  0.2024  0.6858 -0.1692
  596SOL    HW2 4327   6.084   6.737   8.038 -0.1041 -0.3789  0.3519
  597SOL     OW 4328   4.299   4.415   0.854  0.1797  0.4649  0.5690
  597SOL    HW1 4329   4.266   4.484   0.912 -0.8508  0.1661  0.3555
  597SOL    HW2 4330   4.310   4.339   0.911  0.9050  0.6823  0.7210
  598SOL     OW 4331   2.404   9.268   4.329  0.3845 -0.5134  0.0517
  598SOL    HW1 4332   2.493   9.271   4.364  0.6169 -1.2170 -0.4711
  598SOL    HW2 4333   2.415   9.263   4.234 -0.2093 -0.7112 -0.0128
  599SOL     OW 4334   6.889  10.132   6.206 -0.2101  0.5056  0.1806
  599SOL    HW1 4335   6.811  10.077   6.205  0.3874 -0.3696  0.2570
  599SOL    HW2 4336   6.935  10.109   6.125 -0.9852  2.4429 -0.8433
  600SOL     OW 4337   9.036   2.629   1.653  0.8119  0.2185  0.1967
  600SOL    HW1 4338   9.013   2.720   1.673  0.7503  0.3811 -0.5967
  600SOL    HW2 4339   9.094   2.635   1.577 -0.4559 -0.5093 -0.8390
  601SOL     OW 4340   7.453   0.241   5.298 -0.0606 -0.8707 -0.0235
  601SOL    HW1 4341   7.535   0.289   5.309  1.4155 -2.8457 -2.0935
  601SOL    HW2 4342   7.443   0.193   5.380 -0.1258  0.8053  0.9694
  602SOL     OW 4343   4.781   0.066   2.086 -0.4113  0.8136  0.5124
  602SOL    HW1 4344   4.748   0.008   2.018  0.4379  0.2535  0.5754
  602SOL    HW2 4345   4.702   0.099   2.130 -0.9661  1.4020 -0.9091
  603SOL     OW 4346   8.514   6.256   9.473  0.0002  0.3346 -0.0734
  603SOL    HW1 4347   8.497   6.299   9.557  0.4240 -1.0811  0.7615
  603SOL    HW2 4348   8.538   6.167   9.497  0.9588  0.1505 -1.6575
  604SOL     OW 4349   2.859   4.767   6.704 -0.3397 -0.0865  0.6627
  604SOL    HW1 4350   2.862   4.862   6.714 -0.3540 -0.1260  1.0863
  604SOL    HW2 4351   2.880   4.751   6.612  1.9267  0.2105  1.0962
  605SOL     OW 4352   4.658   7.719   4.483  0.5358  0.6249 -0.3991
  605SOL    HW1 4353   4.624   7.689   4.567  3.5696  0.4945  0.8100
  605SOL    HW2 4354   4.651   7.815   4.486 -1.2070  0.5462 -0.8642
  606SOL     OW 4355   2.241   1.755   0.395 -0.7177 -0.6074  0.0400
  606SOL    HW1 4356   2.161   1.703   0.400 -1.2137  0.1552  0.0889
  606SOL    HW2 4357   2.248   1.780   0.303 -0.4542 -0.7950  0.0076
  607SOL     OW 4358   9.180   6.660   3.619 -0.1457  0.5535 -0.5124
  607SOL    HW1 4359   9.246   6.612   3.668 -0.7648 -0.1313 -0.3354
  607SOL    HW2 4360   9.117   6.593   3.591 -1.2658  1.3197  0.1354
  608SOL     OW 4361   8.727   6.719   3.101 -0.4466 -0.0788  0.4183
  608SOL    HW1 4362   8.648   6.723   3.155 -0.7669  0.8386 -0.0940
  608SOL    HW2 4363   8.703   6.662   3.028 -1.8077  2.8496 -1.5327
  609SOL     OW 4364   9.305   8.675   6.526  0.1627  0.1130 -0.5280
  609SOL    HW1 4365   9.217   8.688   6.492  0.1038 -0.9881 -0.8375
  609SOL    HW2 4366   9.337   8.596   6.481  0.9480 -0.0404  0.2649
  610SOL     OW 4367   6.000   6.183   7.105 -0.1148 -0.7446  0.4052
  610SOL    HW1 4368   6.094   6.193   7.122 -0.1990  1.4668 -0.2862
  610SOL    HW2 4369   5.958   6.211   7.187 -0.2299  0.8259 -0.1713
  611SOL     OW 4370   2.516   8.674   4.814  0.2218  1.0850  0.2276
  611SOL    HW1 4371   2.502   8.745   4.877 -1.6955  3.1532 -2.3896
  611SOL    HW2 4372   2.541   8.719   4.733 -0.6571 -1.2431 -1.3923
  612SOL     OW 4373   1.082   7.978   5.343 -0.1524 -0.7223 -0.1283
  612SOL    HW1 4374   1.092   8.034   5.420  2.2137 -1.1105 -0.1112
  612SOL    HW2 4375   1.013   8.019   5.292  1.8051  2.5073 -0.3237
  613SOL     OW 4376   5.880   4.780   4.307 -0.6332  0.6993 -0.4021
  613SOL    HW1 4377   5.922   4.865   4.317  0.5469  0.2322 -1.1688
  613SOL    HW2 4378   5.889   4.760   4.213 -0.7414 -0.3311 -0.2036
  614SOL     OW 4379   5.904   0.157   8.272  0.1779 -0.2342 -0.5668
  614SOL    HW1 4380   5.958   0.083   8.299  0.5193  0.3214  0.2808
  614SOL    HW2 4381   5.943   0.186   8.189 -0.0877 -1.1219 -1.0119
  615SOL     OW 4382   1.658   4.116   5.744 -0.1424  0.4002  0.1793
  615SOL    HW1 4383   1.634   4.092   5.655 -1.4326 -0.5992  0.7912
  615SOL    HW2 4384   1.753   4.131   5.740 -0.2341  0.5820 -1.3979
  616SOL     OW 4385   1.293   8.992   9.720  0.1767 -0.6541  0.4471
  616SOL    HW1 4386   1.306   9.046   9.798  0.8396  0.2491 -0.2905
  616SOL    HW2 4387   1.263   9.053   9.653 -0.8363 -1.5103  0.1118
  617SOL     OW 4388   4.027   2.407   3.603 -0.4808  0.3260  0.5652
  617SOL    HW1 4389   4.118   2.376   3.598 -0.0613  1.4246  1.2064
  617SOL    HW2 4390   4.032   2.500   3.580 -1.4693  0.3616  0.4704
  618SOL     OW 4391   4.348   7.978   8.311  0.2940  0.4628  0.4671
  618SOL    HW1 4392   4.377   7.951   8.398  1.4013 -1.0483 -0.3279
  618SOL    HW2 4393   4.405   7.929   8.251 -2.1570 -0.5481 -1.1344
  619SOL     OW 4394   2.338   5.325   8.990  0.6177 -0.2052  0.3985
  619SOL    HW1 4395   2.420   5.296   8.950  1.3437  0.4942  1.3440
  619SOL    HW2 4396   2.340   5.420   8.981 -1.4429 -0.3387 -2.1230
  620SOL     OW 4397   2.966   9.157   7.857 -0.1359  0.7070  0.4955
  620SOL    HW1 4398   2.930   9.099   7.790 -0.4515 -0.1869  1.4141
  620SOL    HW2 4399   3.041   9.199   7.816 -0.6523  0.5735 -0.5817
  621SOL     OW 4400   9.909   3.443   6.835  0.1362  0.6690  0.7808
  621SOL    HW1 4401   9.969   3.372   6.814 -0.3187 -0.1234  2.1308
  621SOL    HW2 4402   9.950   3.521   6.797  0.3720 -0.3865 -1.1421
  622SOL     OW 4403   7.190   3.526   4.978 -0.8290  0.0981  0.2569
  622SOL    HW1 4404   7.191   3.607   4.927 -1.7043  2.2466  3.4925
  622SOL    HW2 4405   7.130   3.468   4.931  1.2954  0.5358 -3.1630
  623SOL     OW 4406   4.047   4.330   3.124  0.3645  0.5155  0.5116
  623SOL    HW1 4407   4.030   4.319   3.217  0.4935 -1.6709  0.3093
  623SOL    HW2 4408   4.014   4.250   3.084  0.0735  1.5381 -1.3641
  624SOL     OW 4409   8.191   7.435   9.686  0.0276 -0.3887  0.2075
  624SOL    HW1 4410   8.101   7.434   9.718 -0.0864  1.0512 -0.0143
  624SOL    HW2 4411   8.221   7.524   9.704  2.0792 -1.4299  2.0702
  625SOL     OW 4412   8.722   9.322   6.303 -0.1190  0.1461  0.4627
  625SOL    HW1 4413   8.734   9.284   6.390 -0.3908  0.5232  0.6671
  625SOL    HW2 4414   8.627   9.322   6.290 -0.0830  0.1590  0.1999
  626SOL     OW 4415   8.389   7.431   1.110  0.2680  0.1247  0.4624
  626SOL    HW1 4416   8.413   7.455   1.020 -0.6273  0.4957  0.3266
  626SOL    HW2 4417   8.346   7.345   1.101 -1.0000  0.7637  0.3848
  627SOL     OW 4418   4.209   9.334   5.775  0.0819  0.3833 -0.2579
  627SOL    HW1 4419   4.173   9.273   5.839  0.6459 -0.6137 -0.8733
  627SOL    HW2 4420   4.135   9.390   5.751 -0.5178 -0.2560  0.0880
  628SOL     OW 4421   5.808   0.844   4.668 -0.3267 -0.7900 -0.3207
  628SOL    HW1 4422   5.791   0.869   4.759 -0.6312 -0.3491 -0.4977
  628SOL    HW2 4423   5.728   0.802   4.638  0.2275 -2.1366  0.0159
  629SOL     OW 4424   8.657   9.023  10.193 -0.1372 -0.6544  0.4024
  629SOL    HW1 4425   8.569   9.034  10.155 -0.3438  0.3193  1.1372
  629SOL    HW2 4426   8.690   9.113  10.201  0.6678 -0.9824  0.7361
  630SOL     OW 4427   4.735   8.502   2.950 -0.3486 -0.1270  0.3482
  630SOL    HW1 4428   4.748   8.409   2.968 -0.0155 -0.2918 -0.7057
  630SOL    HW2 4429   4.744   8.545   3.035  0.7434 -0.9159  0.6342
  631SOL     OW 4430   6.325   4.800   9.286  0.2715 -0.1545 -0.5921
  631SOL    HW1 4431   6.264   4.751   9.342  0.7811 -1.0276 -0.7978
  631SOL    HW2 4432   6.282   4.804   9.201 -0.6732  1.4938 -0.0627
  632SOL     OW 4433   1.070   2.953   4.757 -0.9619  0.1349  0.2460
  632SOL    HW1 4434   1.031   2.941   4.844 -2.4522 -0.8955 -0.5405
  632SOL    HW2 4435   1.164   2.966   4.774 -1.0783 -1.0663  1.9490
  633SOL     OW 4436   6.835   0.584   3.117 -0.3685  0.8144  0.3177
  633SOL    HW1 4437   6.786   0.604   3.196 -0.5075 -0.2139  0.4899
  633SOL    HW2 4438   6.858   0.670   3.081 -2.7598  1.3321 -0.0569
  634SOL     OW 4439   9.181   5.272   6.769 -0.1754 -0.0319  0.1893
  634SOL    HW1 4440   9.226   5.188   6.760 -0.1801  0.1814 -2.0464
  634SOL    HW2 4441   9.237   5.322   6.829  1.0390 -0.8144 -0.2602
  635SOL     OW 4442   2.754   7.492   8.074 -0.0047 -0.1969 -0.0178
  635SOL    HW1 4443   2.738   7.575   8.119 -1.5649 -0.9859  0.9527
  635SOL    HW2 4444   2.704   7.428   8.125  0.5969 -1.6104 -1.1720
  636SOL     OW 4445   5.147   3.327   1.151  0.8322  0.2708  0.6873
  636SOL    HW1 4446   5.060   3.305   1.185  0.5261  0.7034  0.1988
  636SOL    HW2 4447   5.138   3.418   1.122  1.5217  0.3947  0.8723
  637SOL     OW 4448   0.620   0.610  10.174 -0.1486 -0.1106 -0.0436
  637SOL    HW1 4449   0.535   0.567  10.183 -1.3208  2.1582  0.0326
  637SOL    HW2 4450   0.600   0.703  10.168  2.3596  0.4949  0.2254
  638SOL     OW 4451   8.317   0.830   2.752  0.2398 -0.1916 -0.1873
  638SOL    HW1 4452   8.316   0.736   2.772 -0.9700  0.0711  1.0377
  638SOL    HW2 4453   8.408   0.848   2.726  1.1531 -1.1877  2.1322
  639SOL     OW 4454   2.545   5.593   7.159  0.1432  0.1039  0.3900
  639SOL    HW1 4455   2.635   5.623   7.145 -0.6030  2.6001  0.5779
  639SOL    HW2 4456   2.541   5.570   7.252  0.3837  0.8661  0.5973
  640SOL     OW 4457   6.440   5.074   0.543  0.4742 -0.6096  0.9021
  640SOL    HW1 4458   6.518   5.122   0.567 -0.0023 -0.9991  3.3845
  640SOL    HW2 4459   6.471   4.985   0.523  0.6763 -0.7236  1.7334
  641SOL     OW 4460   9.665   8.328   1.025  0.2805 -0.4097  0.0663
  641SOL    HW1 4461   9.719   8.375   1.088 -1.2773  0.1848  0.9828
  641SOL    HW2 4462   9.602   8.393   0.994  1.4613 -0.4927 -2.6761
  642SOL     OW 4463   5.098   3.294   3.078  0.1824  0.0887  0.1779
  642SOL    HW1 4464   5.115   3.208   3.118  1.1143  0.4105  0.4972
  642SOL    HW2 4465   5.017   3.324   3.119  0.5311 -0.0829  1.0118
  643SOL     OW 4466   4.466   2.665   6.725  0.0837 -0.2293 -0.7686
  643SOL    HW1 4467   4.388   2.721   6.719  1.1809  1.2112 -2.0382
  643SOL    HW2 4468   4.522   2.708   6.788 -0.3888 -1.6158  0.6355
  644SOL     OW 4469   2.536   3.029   0.878  0.1027  0.0331  0.3957
  644SOL    HW1 4470   2.545   3.059   0.969 -1.1550 -0.2606  0.6239
  644SOL    HW2 4471   2.447   2.993   0.873  0.5861 -1.0409 -0.6407
  645SOL     OW 4472   3.708   0.250   7.718 -0.1715  0.7909  0.6660
  645SOL    HW1 4473   3.696   0.160   7.748  0.1975  0.9037  1.1632
  645SOL    HW2 4474   3.679   0.250   7.627 -1.2407  0.4263  1.0047
  646SOL     OW 4475   7.940   8.066   6.252  0.4867  0.2867  0.0637
  646SOL    HW1 4476   7.853   8.031   6.233  0.3151  0.2516  0.9154
  646SOL    HW2 4477   7.939   8.154   6.216  0.1980  0.1854 -0.1792
  647SOL     OW 4478   4.361   0.918   1.225 -0.1542  0.5059 -0.1048
  647SOL    HW1 4479   4.321   0.985   1.280 -0.9237  0.3578 -0.4720
  647SOL    HW2 4480   4.312   0.922   1.142  0.4144  0.1366 -0.4661
  648SOL     OW 4481   6.068   5.884   3.831  0.1237 -0.4663 -0.0027
  648SOL    HW1 4482   5.973   5.874   3.843 -0.2521  0.9507 -1.7053
  648SOL    HW2 4483   6.078   5.923   3.745  2.1318  1.8023  1.1866
  649SOL     OW 4484   1.912   3.971   9.630 -0.1245 -0.1574 -0.3930
  649SOL    HW1 4485   1.872   3.891   9.595 -1.6934  0.5145 -0.1584
  649SOL    HW2 4486   1.844   4.011   9.683  1.4596  0.0893  1.4986
  650SOL     OW 4487   7.464   5.295   6.824 -0.7060 -0.0189 -0.3740
  650SOL    HW1 4488   7.432   5.205   6.826  2.8246 -1.3620  2.1980
  650SOL    HW2 4489   7.515   5.301   6.743  0.9724 -1.1366  0.5650
  651SOL     OW 4490   3.110   8.897   4.194 -0.0880 -0.0985 -0.3926
  651SOL    HW1 4491   3.070   8.810   4.185 -0.4239  0.2511 -2.3849
  651SOL    HW2 4492   3.165   8.889   4.273  0.8826 -2.5148 -1.2395
  652SOL     OW 4493   9.786   0.857   7.140 -0.6093  0.7496  0.1253
  652SOL    HW1 4494   9.780   0.836   7.047 -0.5283  1.1961  0.0161
  652SOL    HW2 4495   9.876   0.837   7.164  0.0723  2.9436 -0.4795
  653SOL     OW 4496   6.454   8.502   3.263 -0.5343 -0.0878 -0.1300
  653SOL    HW1 4497   6.494   8.505   3.176  0.5687  1.7386  0.4008
  653SOL    HW2 4498   6.422   8.591   3.278  1.6161  0.3488  2.3551
  654SOL     OW 4499   6.085   8.235  10.122  0.0071  0.7838  0.1823
  654SOL    HW1 4500   6.075   8.148  10.162 -0.1590  0.3392 -0.7880
  654SOL    HW2 4501   6.156   8.276  10.170  1.4196 -0.6544 -0.6063
  655SOL     OW 4502   3.843   1.919   0.438  0.7721 -0.0598 -0.1585
  655SOL    HW1 4503   3.825   1.863   0.513  1.3405  0.5504  0.4410
  655SOL    HW2 4504   3.903   1.867   0.384 -0.6524 -1.0274 -0.8605
  656SOL     OW 4505   6.619   8.131   1.322 -0.5784  0.4021  0.3517
  656SOL    HW1 4506   6.689   8.102   1.381 -0.9275  0.6673  0.9103
  656SOL    HW2 4507   6.544   8.145   1.380 -1.1843 -0.1686 -0.2820
  657SOL     OW 4508   9.287   7.866   8.816  0.1150 -0.0021  0.9001
  657SOL    HW1 4509   9.290   7.914   8.733  0.1109 -0.5369  0.5859
  657SOL    HW2 4510   9.351   7.909   8.871 -1.5019  1.8199  1.4155
  658SOL     OW 4511   0.422   5.442   9.728  0.2670 -0.4617  0.5265
  658SOL    HW1 4512   0.381   5.498   9.661  0.8756 -0.5352  0.0953
  658SOL    HW2 4513   0.375   5.464   9.808  0.4366  0.6198  0.3436
  659SOL     OW 4514   7.298   3.946   8.458  0.4058  0.4655  0.1246
  659SOL    HW1 4515   7.216   3.926   8.413 -0.2519  0.3034  1.3843
  659SOL    HW2 4516   7.302   4.042   8.458 -0.0132  0.4832  0.4773
  660SOL     OW 4517   2.008   5.523   0.477  0.2115 -0.0381 -0.5002
  660SOL    HW1 4518   1.959   5.590   0.525  2.1085  1.3896 -0.5003
  660SOL    HW2 4519   1.942   5.479   0.423 -1.3736  0.5754  0.9040
  661SOL     OW 4520   1.561   7.351   3.481  0.2422  0.8532  0.4268
  661SOL    HW1 4521   1.638   7.404   3.460  0.4249  0.3629 -0.1557
  661SOL    HW2 4522   1.574   7.324   3.572  0.9445  0.4559  0.2079
  662SOL     OW 4523   8.096   9.751   3.285  1.0523 -0.4509 -0.1536
  662SOL    HW1 4524   8.097   9.668   3.236 -1.4843 -0.5977 -0.0317
  662SOL    HW2 4525   8.081   9.818   3.218 -0.6535 -0.4792  0.1758
  663SOL     OW 4526   6.676   7.509   1.068 -0.5313 -0.4933  0.1653
  663SOL    HW1 4527   6.734   7.457   1.012 -1.6583 -1.2496 -0.3142
  663SOL    HW2 4528   6.675   7.595   1.028 -0.2381 -0.6538 -0.1919
  664SOL     OW 4529   5.977   7.303   6.137 -0.5803 -0.0423  0.0118
  664SOL    HW1 4530   5.891   7.266   6.115  0.1011 -0.5621 -1.8312
  664SOL    HW2 4531   6.028   7.228   6.167 -0.9039  0.3507  1.6172
  665SOL     OW 4532   5.853   5.491   9.512  0.3341 -0.2381  0.2779
  665SOL    HW1 4533   5.820   5.548   9.443 -0.6561 -0.4655  0.5536
  665SOL    HW2 4534   5.871   5.550   9.585 -0.1977 -0.2017  0.3852
  666SOL     OW 4535   2.560   9.360   0.836 -0.1471  0.0468 -0.0503
  666SOL    HW1 4536   2.498   9.293   0.862 -0.1233 -0.6228 -1.6998
  666SOL    HW2 4537   2.638   9.312   0.808  1.0061  0.8598  1.6590
  667SOL     OW 4538  10.048   0.576   2.905 -0.5884 -0.0857 -0.4781
  667SOL    HW1 4539   9.981   0.560   2.838  0.1199 -0.2170 -1.1570
  667SOL    HW2 4540  10.117   0.623   2.859 -0.7984  1.2655  0.5355
  668SOL     OW 4541  10.159   2.562   5.679  0.1536  0.4488  0.6919
  668SOL    HW1 4542  10.138   2.564   5.586  0.0566 -1.3543  0.6581
  668SOL    HW2 4543  10.083   2.520   5.720  1.5530 -1.7158  1.1619
  669SOL     OW 4544   6.613   5.167  10.102 -0.2037  0.2570 -0.5108
  669SOL    HW1 4545   6.579   5.132  10.184 -0.4078 -0.8527 -1.0482
  669SOL    HW2 4546   6.645   5.089  10.055  0.4221  0.9444 -1.2383
  670SOL     OW 4547   3.020   2.079   4.195  0.2859 -0.1722  0.2042
  670SOL    HW1 4548   2.979   1.993   4.206 -0.0575 -0.0724 -0.3160
  670SOL    HW2 4549   3.110   2.058   4.169  0.0449 -0.3735 -0.4883
  671SOL     OW 4550   1.147   2.584   3.195 -0.0442  0.1670  0.3695
  671SOL    HW1 4551   1.101   2.643   3.255  0.6108 -0.8323  1.8917
  671SOL    HW2 4552   1.221   2.552   3.246  0.8377 -0.2840 -1.1797
  672SOL     OW 4553   7.644   8.127   3.371 -0.4740  0.2542  1.1425
  672SOL    HW1 4554   7.694   8.124   3.453  1.7701  1.5085 -0.1082
  672SOL    HW2 4555   7.701   8.175   3.311 -1.8374 -1.0951 -1.3134
  673SOL     OW 4556   8.489   7.390   9.932  0.3032  0.3150  0.1284
  673SOL    HW1 4557   8.427   7.323   9.905  0.4669  0.4569 -0.6364
  673SOL    HW2 4558   8.563   7.342   9.969  0.4768  0.0520 -0.5395
  674SOL     OW 4559   3.780   7.659   6.699  0.0393 -0.5316 -0.3219
  674SOL    HW1 4560   3.706   7.599   6.699 -0.8900  0.5865  0.5368
  674SOL    HW2 4561   3.856   7.604   6.713 -0.7821 -1.5264  0.2473
  675SOL     OW 4562   0.761   3.411   0.948  0.2526  0.8454 -0.1172
  675SOL    HW1 4563   0.790   3.367   0.868  0.8676 -0.3182  0.7160
  675SOL    HW2 4564   0.688   3.358   0.980  0.9341  0.4640  0.8477
  676SOL     OW 4565   6.580   1.601   2.472 -0.1658 -0.4221 -0.6336
  676SOL    HW1 4566   6.574   1.695   2.487  0.3710 -0.1711 -1.8805
  676SOL    HW2 4567   6.608   1.593   2.380  1.6007 -1.7611 -0.0178
  677SOL     OW 4568   4.341   2.521   1.460  0.1241  0.1790 -0.6237
  677SOL    HW1 4569   4.284   2.455   1.499  1.4869 -0.6555  0.0414
  677SOL    HW2 4570   4.362   2.580   1.532  0.8788 -0.0889 -0.6191
  678SOL     OW 4571   6.459   5.357   2.916  0.0157  0.3417  0.2061
  678SOL    HW1 4572   6.400   5.292   2.954 -0.1534  0.5458  0.2927
  678SOL    HW2 4573   6.452   5.343   2.821 -0.3746  0.5453  0.2060
  679SOL     OW 4574   6.219   7.962   9.539 -0.1435 -0.2654 -0.1747
  679SOL    HW1 4575   6.263   8.045   9.560  0.5064 -0.5550 -0.3843
  679SOL    HW2 4576   6.193   7.927   9.624  0.3618 -0.2695 -0.0156
  680SOL     OW 4577   6.294   8.828   8.502  0.0879 -0.4924  0.5112
  680SOL    HW1 4578   6.250   8.883   8.566  1.5029  0.5987  0.5841
  680SOL    HW2 4579   6.233   8.757   8.484 -1.4227  0.6627  1.0411
  681SOL     OW 4580   1.155   5.809   0.237  0.1089  0.6557 -0.1788
  681SOL    HW1 4581   1.066   5.774   0.240 -0.2097  1.3418 -1.4084
  681SOL    HW2 4582   1.210   5.733   0.217 -0.1810  0.2092  0.6926
  682SOL     OW 4583   3.808   7.647   5.295  0.4165 -0.2990  0.1269
  682SOL    HW1 4584   3.814   7.551   5.293  4.4759 -0.1294 -0.1881
  682SOL    HW2 4585   3.795   7.668   5.387  0.1343 -1.1018  0.2816
  683SOL     OW 4586   4.052   3.474   6.834  0.5321 -0.3954  0.2113
  683SOL    HW1 4587   3.981   3.473   6.771 -0.0909 -1.1800  0.9116
  683SOL    HW2 4588   4.083   3.565   6.835  0.3917 -0.3348 -1.0350
  684SOL     OW 4589   9.503   8.218   2.437 -0.2002 -0.6932 -0.3326
  684SOL    HW1 4590   9.507   8.160   2.360 -1.6635  1.1195 -1.8261
  684SOL    HW2 4591   9.413   8.209   2.469  0.2410 -1.0090  0.8355
  685SOL     OW 4592   4.050   8.569   6.622 -0.5032 -0.2188  0.2113
  685SOL    HW1 4593   4.020   8.634   6.558  0.5471  0.5006  0.4230
  685SOL    HW2 4594   3.972   8.545   6.671 -0.7994  1.4301  0.5914
  686SOL     OW 4595   1.720   2.144   7.984  0.1807 -0.3496 -0.4495
  686SOL    HW1 4596   1.660   2.212   7.955  0.0392 -0.7826 -1.1808
  686SOL    HW2 4597   1.796   2.192   8.017 -0.7385  0.2080  0.8787
  687SOL     OW 4598   7.093   9.237   4.834 -0.3011  0.7523  0.2749
  687SOL    HW1 4599   7.125   9.188   4.909  3.9705  0.2607 -1.7324
  687SOL    HW2 4600   7.135   9.323   4.841 -0.0282  0.7822 -1.4013
  688SOL     OW 4601   1.998   6.808   1.850 -0.1952 -0.4676 -0.1680
  688SOL    HW1 4602   1.962   6.842   1.931 -0.1328  0.5124 -0.5510
  688SOL    HW2 4603   1.922   6.785   1.797 -0.2424 -0.1551 -0.2343
  689SOL     OW 4604   2.345   9.974   5.039  0.5078 -0.1987  0.3170
  689SOL    HW1 4605   2.348   9.983   5.134  1.9742  1.4673  0.1489
  689SOL    HW2 4606   2.251   9.973   5.018  0.1728 -0.6469  1.7666
  690SOL     OW 4607   9.051   7.847   1.180 -0.2279 -0.5791  0.2337
  690SOL    HW1 4608   8.981   7.880   1.236 -0.4563 -0.7828  0.0658
  690SOL    HW2 4609   9.031   7.754   1.168 -0.4281 -0.4322 -0.5597
  691SOL     OW 4610   1.131   1.953   2.626 -0.3423  0.1111 -0.2700
  691SOL    HW1 4611   1.206   1.893   2.630 -1.3170 -1.2836 -2.0472
  691SOL    HW2 4612   1.110   1.972   2.718 -0.4601 -2.8581  0.3508
  692SOL     OW 4613   4.097   5.304   8.459 -0.5656 -0.5265  0.2119
  692SOL    HW1 4614   4.006   5.329   8.472 -0.2178  1.6593 -1.3303
  692SOL    HW2 4615   4.142   5.386   8.440  1.2673 -1.9010 -1.6093
  693SOL     OW 4616   0.894   5.946   5.014 -0.6606 -0.1862 -0.1055
  693SOL    HW1 4617   0.915   6.039   5.006 -0.3538 -0.2649 -0.2008
  693SOL    HW2 4618   0.809   5.937   4.971  0.4677 -0.4140 -2.3101
  694SOL     OW 4619   6.799   5.466   0.042  0.1244  0.1419 -0.0277
  694SOL    HW1 4620   6.779   5.513  -0.039 -1.3577 -0.9131 -0.2951
  694SOL    HW2 4621   6.754   5.516   0.110 -1.2958 -0.7550 -0.2876
  695SOL     OW 4622   8.265   4.990   4.628  0.4553 -0.3295 -0.4157
  695SOL    HW1 4623   8.266   5.036   4.711  1.9733  0.1821 -0.6963
  695SOL    HW2 4624   8.296   4.902   4.649 -0.5068 -0.6229 -0.2128
  696SOL     OW 4625   4.167   9.674   6.505 -0.0087  0.2229  0.0899
  696SOL    HW1 4626   4.217   9.654   6.584  0.8847 -3.8161 -1.3698
  696SOL    HW2 4627   4.226   9.729   6.453 -0.0026  1.6158  1.5461
  697SOL     OW 4628  10.075   5.190   9.306 -0.3354  0.6685  0.1332
  697SOL    HW1 4629  10.138   5.239   9.359  0.9303 -1.0449  0.2440
  697SOL    HW2 4630  10.020   5.144   9.370 -1.3151  1.6494  0.0200
  698SOL     OW 4631   1.666   5.583   1.272 -0.3908 -0.2198  0.0383
  698SOL    HW1 4632   1.592   5.529   1.302 -1.7616  1.3097 -0.5017
  698SOL    HW2 4633   1.646   5.602   1.181  1.7334 -1.4950 -0.7261
  699SOL     OW 4634   2.148   5.277   0.243 -0.1442 -0.0432  0.2931
  699SOL    HW1 4635   2.056   5.296   0.261 -0.1727  1.5904 -1.4497
  699SOL    HW2 4636   2.188   5.270   0.329 -1.8314 -0.5091  1.0676
  700SOL     OW 4637   5.531   6.538   3.767  0.9150  0.1744  0.0851
  700SOL    HW1 4638   5.509   6.627   3.739 -1.5515  0.0559  1.5083
  700SOL    HW2 4639   5.534   6.543   3.863 -0.6925 -1.5873  0.2462
  701SOL     OW 4640   8.321   8.042   5.399 -0.0413 -0.0522 -0.2600
  701SOL    HW1 4641   8.409   8.016   5.373 -0.1305 -0.8075  0.1864
  701SOL    HW2 4642   8.335   8.116   5.459  0.3095 -0.5302  0.2465
  702SOL     OW 4643   4.990   3.986   1.024  0.0708 -0.8721  0.3882
  702SOL    HW1 4644   5.056   3.937   0.975  0.3063  1.2181 -1.4224
  702SOL    HW2 4645   5.040   4.042   1.083 -0.1299 -0.5487  0.2512
  703SOL     OW 4646   0.647   2.567   5.808  0.2375 -0.2294 -0.0041
  703SOL    HW1 4647   0.599   2.565   5.891  1.0363  1.1663  0.4960
  703SOL    HW2 4648   0.699   2.647   5.812 -0.0321  0.0665 -2.0377
  704SOL     OW 4649   5.601   5.561   7.801 -0.0349 -0.2685  0.2954
  704SOL    HW1 4650   5.646   5.494   7.749 -0.8883  0.5391 -1.5335
  704SOL    HW2 4651   5.672   5.616   7.835  0.4359  0.6939 -2.1347
  705SOL     OW 4652   3.573   7.943   4.906 -0.4530  0.0387  0.7467
  705SOL    HW1 4653   3.530   7.889   4.840 -0.6392 -0.1099  0.9852
  705SOL    HW2 4654   3.511   7.943   4.980 -0.7774  1.1666  0.4811
  706SOL     OW 4655   0.905   2.534   2.758 -0.2072  0.2331 -0.4476
  706SOL    HW1 4656   0.843   2.578   2.699 -1.7717 -0.9063  0.3099
  706SOL    HW2 4657   0.917   2.447   2.720 -2.1592 -0.9372  1.5069
  707SOL     OW 4658   8.634   9.275   8.113  0.5877  0.3451  0.3008
  707SOL    HW1 4659   8.546   9.277   8.074  1.1645  0.2396 -1.0122
  707SOL    HW2 4660   8.627   9.332   8.190 -0.4898  0.7647 -0.0982
  708SOL     OW 4661   4.655   2.626   1.408 -0.1403  0.6739  0.0174
  708SOL    HW1 4662   4.674   2.533   1.421  0.4668  0.5923 -1.4064
  708SOL    HW2 4663   4.582   2.628   1.347  1.4288  1.1492 -1.9099
  709SOL     OW 4664   6.736   3.089   4.229 -0.7299  0.2726  0.0136
  709SOL    HW1 4665   6.735   3.033   4.307 -0.5452  0.2694  0.0131
  709SOL    HW2 4666   6.718   3.029   4.156  1.0537 -0.0659 -0.1640
  710SOL     OW 4667   3.387   8.094   6.263  0.4185  0.6169  0.1970
  710SOL    HW1 4668   3.347   8.086   6.350  0.1546  0.3253  0.0531
  710SOL    HW2 4669   3.385   8.188   6.244  0.0237  0.6337  0.3001
  711SOL     OW 4670   9.756   4.977   1.022  0.1295  0.2840  0.2966
  711SOL    HW1 4671   9.757   4.892   0.979  3.6461  0.2888  0.2612
  711SOL    HW2 4672   9.710   5.034   0.961  0.4594 -0.8750 -1.0602
  712SOL     OW 4673   8.655   7.531   1.436 -0.5500 -0.4500  0.4928
  712SOL    HW1 4674   8.658   7.541   1.341 -1.0425 -0.8567  0.4399
  712SOL    HW2 4675   8.588   7.593   1.465 -0.3790 -0.3026  0.5817
  713SOL     OW 4676   9.099   1.533   4.127  0.6224 -0.0893 -0.1228
  713SOL    HW1 4677   9.161   1.545   4.199  4.1912 -2.5406 -2.6187
  713SOL    HW2 4678   9.137   1.583   4.054 -1.5485  0.2134 -1.0951
  714SOL     OW 4679   0.503   2.194   0.745  0.7124  0.0046  0.1513
  714SOL    HW1 4680   0.455   2.277   0.739  0.1795 -0.0923  2.3922
  714SOL    HW2 4681   0.588   2.218   0.781  1.1547 -0.2294 -0.7313
  715SOL     OW 4682   0.722   2.830   3.662 -0.5154  0.3248  0.5180
  715SOL    HW1 4683   0.694   2.915   3.696 -1.4917 -0.0271  0.6168
  715SOL    HW2 4684   0.735   2.844   3.568  0.5786  0.8947  0.7534
  716SOL     OW 4685   4.253   0.495   2.085 -0.4724 -0.9282  0.3285
  716SOL    HW1 4686   4.171   0.471   2.128 -2.0117  3.0287 -0.1754
  716SOL    HW2 4687   4.260   0.589   2.099  3.2321 -0.9319 -1.0085
  717SOL     OW 4688  10.058   5.970   3.708  0.0001  0.2398  0.2527
  717SOL    HW1 4689  10.137   5.954   3.656  0.4437 -0.4397  1.1247
  717SOL    HW2 4690  10.081   6.043   3.766  0.4248 -0.7812  1.3935
  718SOL     OW 4691   4.037   8.835   7.915 -0.4769  0.0168  0.0493
  718SOL    HW1 4692   4.039   8.768   7.847 -1.5660  0.2700 -0.2477
  718SOL    HW2 4693   3.950   8.827   7.954 -0.2469  0.5798  0.6934
  719SOL     OW 4694   7.725   5.177   5.759 -0.5175 -0.0288  0.0726
  719SOL    HW1 4695   7.704   5.253   5.814 -3.3485 -2.5361  2.6610
  719SOL    HW2 4696   7.653   5.172   5.696 -0.8698 -1.1333  0.5567
  720SOL     OW 4697   9.408   7.979   9.723  0.3788 -0.0737 -0.2967
  720SOL    HW1 4698   9.388   8.058   9.672 -0.0453  0.4501  0.6605
  720SOL    HW2 4699   9.485   8.003   9.775  1.7302 -1.1026 -1.7770
  721SOL     OW 4700   5.407   1.157   7.938  0.2951 -0.4875 -0.1647
  721SOL    HW1 4701   5.461   1.096   7.989 -0.1803 -0.8618 -0.1136
  721SOL    HW2 4702   5.402   1.235   7.994 -0.4274 -0.9836  0.4739
  722SOL     OW 4703   8.870   0.751   8.864  0.1266 -0.3766 -0.4976
  722SOL    HW1 4704   8.787   0.711   8.892 -0.1462 -0.3119 -1.1950
  722SOL    HW2 4705   8.928   0.743   8.940  0.3793 -2.9558 -0.9182
  723SOL     OW 4706   8.117   0.622   6.455 -0.0307 -0.0479  0.1307
  723SOL    HW1 4707   8.135   0.708   6.416  0.1020  0.3258  0.9989
  723SOL    HW2 4708   8.167   0.622   6.536  0.2896 -1.1118 -0.0599
  724SOL     OW 4709   1.995   9.899   9.409  0.4335  0.2840  0.2957
  724SOL    HW1 4710   1.982   9.869   9.499 -1.3290  1.3051  0.4135
  724SOL    HW2 4711   2.000   9.994   9.416 -0.2779  0.4069 -0.7363
  725SOL     OW 4712   2.007   3.027   2.060  0.0075 -0.1412 -0.2909
  725SOL    HW1 4713   1.971   2.964   2.123  0.8935 -0.4085 -0.0368
  725SOL    HW2 4714   1.934   3.084   2.038 -0.3340 -0.0987  0.9220
  726SOL     OW 4715   0.487   2.857   2.853  0.1731 -0.3941 -0.1544
  726SOL    HW1 4716   0.569   2.854   2.804  0.4457 -2.3532  0.3925
  726SOL    HW2 4717   0.511   2.832   2.942 -0.9870 -0.7876  0.0607
  727SOL     OW 4718   6.978   5.824   3.053 -0.2059  0.4184  0.0209
  727SOL    HW1 4719   7.064   5.838   3.092  0.9153 -1.3884 -1.6922
  727SOL    HW2 4720   6.955   5.909   3.015  1.0056  0.8180  0.1564
  728SOL     OW 4721   4.258   6.053   7.472  0.0085 -0.0295  0.0953
  728SOL    HW1 4722   4.217   6.073   7.387  0.2234 -0.8739 -0.2151
  728SOL    HW2 4723   4.346   6.022   7.449 -0.7436 -2.5637  0.4567
  729SOL     OW 4724   6.449   5.794   6.691 -0.4996 -0.0412  0.5279
  729SOL    HW1 4725   6.353   5.791   6.699 -0.5963 -1.0898 -0.8484
  729SOL    HW2 4726   6.465   5.853   6.617 -0.1421 -1.2659 -0.3685
  730SOL     OW 4727   3.981   8.000   1.869 -0.3709 -0.0215 -0.0704
  730SOL    HW1 4728   4.028   8.078   1.897 -0.3886  0.3919 -1.1507
  730SOL    HW2 4729   3.962   8.016   1.776 -1.0848 -0.9535 -0.0906
  731SOL     OW 4730   4.455   2.064   4.395  0.2452 -0.9129 -0.1008
  731SOL    HW1 4731   4.491   2.085   4.309  1.4466  0.0248  0.6209
  731SOL    HW2 4732   4.507   1.989   4.425 -0.7479 -1.7956 -0.5492
  732SOL     OW 4733   8.861   6.414   4.395  0.0858  0.2056 -0.0740
  732SOL    HW1 4734   8.798   6.474   4.357 -0.7825 -1.4070 -1.2628
  732SOL    HW2 4735   8.818   6.379   4.473  0.1386  0.2647 -0.0177
  733SOL     OW 4736   6.806   2.641   4.809  0.2337 -0.7708 -0.1820
  733SOL    HW1 4737   6.731   2.643   4.869 -0.6437 -1.0922 -1.2406
  733SOL    HW2 4738   6.874   2.692   4.854 -1.0972  0.7422  0.1766
  734SOL     OW 4739   0.499   2.006   4.747 -0.4667  0.3798 -0.0451
  734SOL    HW1 4740   0.418   2.053   4.766 -0.3632  0.9925 -1.0595
  734SOL    HW2 4741   0.551   2.013   4.827  0.0842  3.0999 -0.6072
  735SOL     OW 4742   0.008   9.938   6.825 -0.2041  0.3055 -0.1006
  735SOL    HW1 4743   0.019   9.868   6.889  0.6314  0.1880 -0.3759
  735SOL    HW2 4744   0.087   9.935   6.771 -0.0687  1.5849  0.0124
  736SOL     OW 4745   6.290   2.616   3.958 -0.1190  0.4227  0.5227
  736SOL    HW1 4746   6.201   2.633   3.989  0.1201 -1.7198  2.6282
  736SOL    HW2 4747   6.291   2.522   3.941  0.9536  0.9104 -2.2402
  737SOL     OW 4748   3.515   0.676   2.121  0.5454 -0.8344  0.3393
  737SOL    HW1 4749   3.424   0.683   2.092  0.6190 -0.4803  0.1896
  737SOL    HW2 4750   3.519   0.729   2.201  0.6606 -0.7195  0.2565
  738SOL     OW 4751   9.028   8.358   7.246  0.5318  0.6933  0.4043
  738SOL    HW1 4752   9.065   8.340   7.333  0.6125  0.1244  0.2527
  738SOL    HW2 4753   8.979   8.439   7.257  0.8123  0.7958  0.9057
  739SOL     OW 4754   9.696   5.436   1.896  0.1542 -0.2199 -0.4896
  739SOL    HW1 4755   9.688   5.342   1.880  1.6549 -0.7037  1.4423
  739SOL    HW2 4756   9.784   5.458   1.866 -0.0640  0.5133 -0.5998
  740SOL     OW 4757   0.744   0.455   3.829 -0.2158 -0.0013  0.7552
  740SOL    HW1 4758   0.750   0.550   3.831 -2.8372  0.2580 -0.4615
  740SOL    HW2 4759   0.737   0.429   3.921  1.8457  0.8514  1.1686
  741SOL     OW 4760   2.494   1.500   0.344  0.6558  0.8347  0.2164
  741SOL    HW1 4761   2.534   1.435   0.287 -0.4191  0.0331  0.3650
  741SOL    HW2 4762   2.457   1.449   0.416 -3.2150  1.2097 -1.3705
  742SOL     OW 4763   0.266   1.225   2.075 -0.2277  0.3585  0.0056
  742SOL    HW1 4764   0.255   1.198   2.166 -0.0705  1.3399  0.3183
  742SOL    HW2 4765   0.333   1.166   2.040 -0.3734 -0.0931  0.4905
  743SOL     OW 4766   1.816   7.487   1.613 -0.0653  0.4969  0.4981
  743SOL    HW1 4767   1.782   7.517   1.529 -2.8354 -0.1665  1.3493
  743SOL    HW2 4768   1.799   7.393   1.614  2.0257  0.0788  0.8893
  744SOL     OW 4769   2.493   8.406   1.355 -0.8625  0.1689 -1.2059
  744SOL    HW1 4770   2.490   8.313   1.330  0.6250  0.1874 -1.4847
  744SOL    HW2 4771   2.410   8.420   1.402 -1.3873 -1.1364 -1.6990
  745SOL     OW 4772   0.579   8.460   3.489 -0.3987 -0.0111  0.6247
  745SOL    HW1 4773   0.535   8.520   3.428  0.1075 -1.3349 -1.1047
  745SOL    HW2 4774   0.553   8.373   3.458  1.3451 -0.7411  1.1789
  746SOL     OW 4775   2.321   7.054   5.237 -0.2317  0.6741 -0.1115
  746SOL    HW1 4776   2.370   7.135   5.250  0.4563  0.3575 -0.7009
  746SOL    HW2 4777   2.308   7.048   5.142  0.0052 -0.0639 -0.1059
  747SOL     OW 4778   3.407   7.544   0.935 -0.1301  0.1935 -0.0396
  747SOL    HW1 4779   3.419   7.459   0.978  0.3654  0.1877 -0.1872
  747SOL    HW2 4780   3.325   7.577   0.970  0.4953  0.3941  1.2499
  748SOL     OW 4781   9.101   2.141   8.992 -0.0125 -0.0317 -0.2676
  748SOL    HW1 4782   9.026   2.091   9.024 -0.7626  1.1021 -0.2432
  748SOL    HW2 4783   9.125   2.098   8.910  0.1192 -1.1840  0.3624
  749SOL     OW 4784   1.547   5.446   9.398  0.3607  0.2332 -0.4056
  749SOL    HW1 4785   1.604   5.443   9.475  1.0926  0.3270 -0.9436
  749SOL    HW2 4786   1.464   5.409   9.428  0.2831  1.2970  0.7307
  750SOL     OW 4787   8.046   0.459   5.060 -0.0855 -0.2935 -0.4303
  750SOL    HW1 4788   8.121   0.479   5.004  0.9224  0.0861  1.0496
  750SOL    HW2 4789   7.987   0.408   5.003  0.4990  0.8537 -2.1078
  751SOL     OW 4790   5.973   0.750   1.004 -0.0085 -0.4397 -0.2279
  751SOL    HW1 4791   5.950   0.748   0.912  1.0813 -0.9691 -0.5014
  751SOL    HW2 4792   5.962   0.841   1.030 -3.2859 -0.8333 -0.0855
  752SOL     OW 4793   0.437   0.067   6.615 -0.3741 -0.1680  0.1618
  752SOL    HW1 4794   0.381   0.052   6.539 -0.2196  0.7486 -0.1484
  752SOL    HW2 4795   0.382   0.118   6.675 -1.1145 -2.4491  1.4660
  753SOL     OW 4796   6.996   0.201   2.268 -0.3000 -0.0379  0.2627
  753SOL    HW1 4797   7.071   0.198   2.209  0.0914 -0.4243  0.7709
  753SOL    HW2 4798   6.939   0.129   2.239 -0.5482  0.3497 -0.2170
  754SOL     OW 4799   2.622   0.921   8.656 -1.2493 -0.5507 -0.0759
  754SOL    HW1 4800   2.577   0.839   8.635 -1.6706 -0.4880  0.5479
  754SOL    HW2 4801   2.551   0.986   8.658 -1.0890 -0.3977  0.6359
  755SOL     OW 4802   7.703   1.380   6.511 -0.1568  1.2219 -0.0614
  755SOL    HW1 4803   7.775   1.343   6.562  0.0691 -1.8235 -2.5132
  755SOL    HW2 4804   7.629   1.322   6.528 -0.2616  0.5563 -2.5887
  756SOL     OW 4805   2.130   5.046   9.784 -0.3315 -0.0465 -0.3548
  756SOL    HW1 4806   2.124   5.044   9.688  0.8047 -1.4423 -0.4153
  756SOL    HW2 4807   2.223   5.062   9.801 -0.4685 -0.1870  0.5167
  757SOL     OW 4808   1.526   4.395   9.964  0.1120 -0.8889  0.3205
  757SOL    HW1 4809   1.522   4.408  10.059  2.4474 -1.4053  0.5284
  757SOL    HW2 4810   1.552   4.480   9.929  0.8015 -1.0917  0.3163
  758SOL     OW 4811   7.746   1.498   2.082  0.5652 -0.0606  0.5373
  758SOL    HW1 4812   7.682   1.494   2.011 -0.4254 -1.2470  1.4520
  758SOL    HW2 4813   7.829   1.476   2.042  0.1485  0.0718 -0.4082
  759SOL     OW 4814   8.338   8.078   0.945  0.0053  0.6872  0.3275
  759SOL    HW1 4815   8.293   8.133   0.880 -1.7255 -1.3240 -0.2277
  759SOL    HW2 4816   8.270   8.020   0.978  1.4010  0.1083  2.2764
  760SOL     OW 4817   1.443   5.794   5.217  0.3590 -0.2018  0.4613
  760SOL    HW1 4818   1.395   5.877   5.225  0.1438 -0.1479 -1.3208
  760SOL    HW2 4819   1.450   5.763   5.307 -0.1005  1.4461  1.0925
  761SOL     OW 4820   5.245   1.823   1.173  0.1536  0.4398  0.5794
  761SOL    HW1 4821   5.163   1.839   1.126  1.5738  1.3412 -1.7051
  761SOL    HW2 4822   5.268   1.907   1.211  1.0533  0.7382 -0.5692
  762SOL     OW 4823   6.394   5.372   2.180 -0.0746 -0.0778  0.7577
  762SOL    HW1 4824   6.444   5.445   2.216  1.7187  0.5394 -2.7770
  762SOL    HW2 4825   6.330   5.412   2.122 -0.1211 -1.1999  0.0018
  763SOL     OW 4826   4.549   7.244   0.139  0.2123  0.0364 -0.0685
  763SOL    HW1 4827   4.493   7.307   0.184  1.0054 -0.7057  2.0026
  763SOL    HW2 4828   4.498   7.162   0.139  1.0845 -0.5142  1.3908
  764SOL     OW 4829   8.795   8.651   5.649 -0.4661 -0.3550 -0.1014
  764SOL    HW1 4830   8.836   8.726   5.693 -3.0920  0.3483  1.1961
  764SOL    HW2 4831   8.748   8.690   5.575 -0.6333 -0.9177 -0.2902
  765SOL     OW 4832   5.439   6.639   8.654  0.2746  0.1310 -0.1024
  765SOL    HW1 4833   5.455   6.608   8.743  0.1611 -0.1571 -0.1839
  765SOL    HW2 4834   5.466   6.731   8.656 -1.9467  0.7939  0.8608
  766SOL     OW 4835   7.497   8.041   9.457 -0.2830  0.2432  0.1209
  766SOL    HW1 4836   7.444   8.012   9.532  1.0290 -1.1249  0.5266
  766SOL    HW2 4837   7.559   7.970   9.442  1.3304  1.7437 -0.4710
  767SOL     OW 4838   4.736   2.366   0.479  0.6181  0.3146 -0.2678
  767SOL    HW1 4839   4.721   2.318   0.560  0.8688  1.7173  0.6328
  767SOL    HW2 4840   4.829   2.355   0.462  0.5323 -0.1190 -0.4487
  768SOL     OW 4841   1.582   2.840   5.741  0.1090  0.2483  0.0749
  768SOL    HW1 4842   1.525   2.787   5.685  0.0483  1.1580 -0.7434
  768SOL    HW2 4843   1.594   2.787   5.820 -0.8132 -0.5153 -0.2832
  769SOL     OW 4844   7.821   4.628   5.347  0.1629 -0.3333 -0.4917
  769SOL    HW1 4845   7.748   4.604   5.290  0.3714 -2.6971  0.1650
  769SOL    HW2 4846   7.789   4.608   5.436  0.9541  0.3525 -0.0495
  770SOL     OW 4847   3.687   7.711   3.305  0.0228  0.0594  0.9718
  770SOL    HW1 4848   3.645   7.664   3.377 -1.1562  1.2359  1.0657
  770SOL    HW2 4849   3.761   7.756   3.346  0.6139 -0.9519  1.0463
  771SOL     OW 4850   2.906   1.873   9.530 -0.3186  0.2702 -0.0606
  771SOL    HW1 4851   2.921   1.830   9.614  1.6103 -0.8246 -0.9196
  771SOL    HW2 4852   2.856   1.951   9.551 -0.7939 -0.5566  1.9692
  772SOL     OW 4853   7.462   8.771   3.139 -0.5445 -0.4445 -0.2165
  772SOL    HW1 4854   7.383   8.732   3.101 -0.0482 -3.2151  1.4640
  772SOL    HW2 4855   7.520   8.784   3.064 -1.4523 -1.1543 -1.0607
  773SOL     OW 4856   5.891   9.465   2.096 -0.6927 -0.0733 -0.3269
  773SOL    HW1 4857   5.960   9.492   2.157  2.6764  2.3654 -4.8302
  773SOL    HW2 4858   5.843   9.546   2.078 -0.7394 -0.4252 -1.8758
  774SOL     OW 4859  10.165   3.967   1.556 -0.2663 -0.1936  0.2960
  774SOL    HW1 4860  10.146   3.873   1.567 -0.0866 -0.6770 -2.9423
  774SOL    HW2 4861  10.102   4.011   1.613 -2.2587 -2.2030 -0.2967
  775SOL     OW 4862   7.505   6.921   3.665 -0.0717 -0.2306 -0.3195
  775SOL    HW1 4863   7.484   6.863   3.738  1.4683 -1.6926 -1.0066
  775SOL    HW2 4864   7.518   6.863   3.591 -1.9887  1.2776 -1.8644
  776SOL     OW 4865   1.687   5.636  10.087  0.3718  0.4321 -0.4970
  776SOL    HW1 4866   1.607   5.657  10.136  1.7532  0.3282  1.8645
  776SOL    HW2 4867   1.707   5.546  10.110  1.8522  0.8474 -0.0938
  777SOL     OW 4868   2.334   1.936   5.665  0.3234 -0.8471 -0.1037
  777SOL    HW1 4869   2.275   1.987   5.609  0.7036 -0.1378  0.1349
  777SOL    HW2 4870   2.344   1.988   5.744  0.9286 -1.1652  0.0344
  778SOL     OW 4871   5.142   0.848   7.850  0.0959 -0.3956  0.1273
  778SOL    HW1 4872   5.067   0.871   7.904 -0.1957  1.0156 -0.8359
  778SOL    HW2 4873   5.177   0.768   7.889  0.5287  1.1513  3.0304
  779SOL     OW 4874   1.875   9.761   1.865 -0.5884 -0.6232  0.3374
  779SOL    HW1 4875   1.874   9.672   1.830  1.2004 -1.1770  1.6125
  779SOL    HW2 4876   1.881   9.749   1.960  2.1503  0.8355  0.3776
  780SOL     OW 4877   5.058   4.787   0.835  0.3403  0.0758  0.2066
  780SOL    HW1 4878   5.129   4.795   0.771 -1.0832 -0.1011 -1.4609
  780SOL    HW2 4879   5.033   4.877   0.855  0.1570  0.1275 -0.2388
  781SOL     OW 4880   0.535   3.116   1.460 -0.3847 -0.2941  0.1074
  781SOL    HW1 4881   0.577   3.178   1.401 -0.3006 -0.6587 -0.2197
  781SOL    HW2 4882   0.498   3.170   1.530 -0.0865  0.0986 -0.0372
  782SOL     OW 4883   3.634   1.341   1.975 -0.2913  0.2138  0.6462
  782SOL    HW1 4884   3.703   1.288   2.015 -0.9949 -1.1589  0.0717
  782SOL    HW2 4885   3.677   1.423   1.952  1.0986 -0.5379  0.5074
  783SOL     OW 4886   6.293   2.433   6.913  0.1846 -0.3499  0.2979
  783SOL    HW1 4887   6.282   2.522   6.880  1.3998 -0.0726  0.5980
  783SOL    HW2 4888   6.366   2.398   6.863  0.4836 -0.7609  1.0096
  784SOL     OW 4889   6.855  10.168   7.165 -0.3132 -1.0279  0.8030
  784SOL    HW1 4890   6.788  10.126   7.219 -0.7217 -2.1247 -0.5251
  784SOL    HW2 4891   6.908  10.217   7.227 -1.9668 -0.6543  1.9538
  785SOL     OW 4892   5.186   2.755   5.178 -0.4900 -0.6433 -0.3496
  785SOL    HW1 4893   5.189   2.677   5.123  0.4806 -0.7266 -0.1997
  785SOL    HW2 4894   5.257   2.742   5.242  1.8117  1.7595 -2.2870
  786SOL     OW 4895   2.088   1.786   2.455  0.0574 -0.0386  0.0941
  786SOL    HW1 4896   2.104   1.868   2.503  0.7744  0.5406 -1.0961
  786SOL    HW2 4897   2.082   1.813   2.363 -1.2274 -1.1392 -0.1513
  787SOL     OW 4898   0.170   8.135   0.988 -0.3365 -0.3056 -0.2964
  787SOL    HW1 4899   0.234   8.204   0.970 -0.9710  0.5773  0.7779
  787SOL    HW2 4900   0.109   8.139   0.915  1.9789 -2.5474 -2.4281
  788SOL     OW 4901   8.715   9.270   8.595  0.9393  0.0546 -0.7426
  788SOL    HW1 4902   8.739   9.241   8.507  2.7062 -1.5561  0.2283
  788SOL    HW2 4903   8.780   9.229   8.652  0.7584  2.3499  1.1707
  789SOL     OW 4904   2.633  10.153   9.374  0.2070  0.7772  0.2904
  789SOL    HW1 4905   2.601  10.163   9.463 -1.2601  0.7406 -0.2127
  789SOL    HW2 4906   2.705  10.090   9.381 -1.1744 -0.7471  1.1752
  790SOL     OW 4907   7.014   8.645   2.311 -0.7661 -0.3372 -0.5029
  790SOL    HW1 4908   6.934   8.686   2.344  0.9381  2.0700  0.7791
  790SOL    HW2 4909   7.059   8.615   2.390  0.9411  0.9041 -0.9869
  791SOL     OW 4910   4.564   2.409   2.992 -0.2492  0.0335  0.1056
  791SOL    HW1 4911   4.574   2.374   2.903 -0.4043  1.4918 -0.4914
  791SOL    HW2 4912   4.647   2.390   3.035  0.2813  0.4418 -0.7427
  792SOL     OW 4913  10.158   9.408   8.687 -0.0914  0.0170  0.1745
  792SOL    HW1 4914  10.142   9.332   8.743 -0.8961  0.5782  0.7161
  792SOL    HW2 4915  10.184   9.477   8.747  1.4988 -0.0646 -0.4141
  793SOL     OW 4916   5.764   9.199   4.305  0.0850 -0.4343  0.2328
  793SOL    HW1 4917   5.696   9.132   4.301  0.8943 -1.4262  2.5417
  793SOL    HW2 4918   5.792   9.209   4.214 -1.5731 -1.6274 -0.4362
  794SOL     OW 4919   3.037   2.138   6.511 -0.2377  0.0081  0.3597
  794SOL    HW1 4920   2.954   2.186   6.516  0.4242  1.0156  2.2747
  794SOL    HW2 4921   3.025   2.063   6.569  0.2197  0.2186  0.7320
  795SOL     OW 4922   9.201   0.094   6.281 -0.6521 -0.0320 -0.4727
  795SOL    HW1 4923   9.135   0.163   6.273  0.6471  1.6294  2.6807
  795SOL    HW2 4924   9.179   0.050   6.363  0.7523 -1.0001 -0.6116
  796SOL     OW 4925   0.885   0.282   6.044  0.1995  0.7412 -0.3375
  796SOL    HW1 4926   0.807   0.285   5.988 -1.6476 -2.6637  1.9408
  796SOL    HW2 4927   0.882   0.363   6.095 -2.4921  0.1161  0.5316
  797SOL     OW 4928   2.607   8.310   5.214  0.3394  0.6022 -0.5391
  797SOL    HW1 4929   2.610   8.375   5.143  1.2926  0.2693 -0.8137
  797SOL    HW2 4930   2.637   8.357   5.291  1.0131  0.4975 -0.7345
  798SOL     OW 4931   4.974   7.599   5.534 -0.2197  0.3355 -0.3990
  798SOL    HW1 4932   4.965   7.660   5.608  0.7025  1.5294 -1.2465
  798SOL    HW2 4933   4.963   7.655   5.456  2.5392 -0.2192 -1.2309
  799SOL     OW 4934   2.415   1.083   0.112  0.0409 -0.7408 -0.2988
  799SOL    HW1 4935   2.441   1.002   0.067  1.6633 -1.0235  1.0901
  799SOL    HW2 4936   2.324   1.096   0.086 -0.5023 -3.4491  0.0511
  800SOL     OW 4937   9.454   8.769   3.949 -0.1749 -0.0694 -0.0108
  800SOL    HW1 4938   9.489   8.742   3.864  0.3673 -1.3082  0.5910
  800SOL    HW2 4939   9.372   8.815   3.928 -0.4523 -1.0608 -1.1413
  801SOL     OW 4940   3.211   3.238   5.251  0.0068  0.3099  0.6230
  801SOL    HW1 4941   3.261   3.315   5.279  0.1577  0.7474 -0.8155
  801SOL    HW2 4942   3.270   3.193   5.190  0.6920 -2.0079  2.9391
  802SOL     OW 4943   2.165   1.600   7.077  0.1184  0.2210 -0.3767
  802SOL    HW1 4944   2.254   1.590   7.042 -0.4393 -2.1135 -1.1941
  802SOL    HW2 4945   2.115   1.638   7.004  0.2916  0.8896 -0.1462
  803SOL     OW 4946   7.904   1.128   8.400 -0.0283  0.4303  0.7243
  803SOL    HW1 4947   7.973   1.110   8.465  1.9736  0.7047 -1.2564
  803SOL    HW2 4948   7.842   1.185   8.446  1.2036  0.4063  2.4748
  804SOL     OW 4949   1.627   8.865   5.131 -0.3088  0.4709 -0.2753
  804SOL    HW1 4950   1.657   8.851   5.041  0.2872  1.0393 -0.1732
  804SOL    HW2 4951   1.532   8.878   5.123 -0.5014 -1.0204 -0.6421
  805SOL     OW 4952   7.677   1.573   6.244 -0.2037  0.0015  0.4936
  805SOL    HW1 4953   7.636   1.655   6.271 -0.9013 -0.2151  0.0972
  805SOL    HW2 4954   7.767   1.578   6.278 -0.8819 -0.0107  2.3251
  806SOL     OW 4955   0.417   0.575   5.599 -0.2573  0.2821 -0.1545
  806SOL    HW1 4956   0.395   0.501   5.656  0.3043  1.1429  1.2096
  806SOL    HW2 4957   0.477   0.538   5.535 -0.6426 -0.6377  0.0097
  807SOL     OW 4958   5.882   4.574   3.074  0.1482  0.2752  0.4252
  807SOL    HW1 4959   5.887   4.622   2.992  0.7672  2.4691  1.6931
  807SOL    HW2 4960   5.843   4.636   3.135 -0.7203 -1.4714  1.6821
  808SOL     OW 4961   5.908   5.730   8.676  0.0253  0.0253  0.5091
  808SOL    HW1 4962   5.987   5.748   8.625  1.2657  0.7071  2.6225
  808SOL    HW2 4963   5.917   5.639   8.704 -0.4322 -0.2068 -0.0856
  809SOL     OW 4964   4.270   2.719   4.268 -0.1206  0.1703 -0.4660
  809SOL    HW1 4965   4.227   2.804   4.281 -0.1573  0.0803  0.0041
  809SOL    HW2 4966   4.216   2.657   4.318 -0.4447 -0.2331 -1.3068
  810SOL     OW 4967   8.188   7.081   6.095  0.7057 -0.2716 -0.0784
  810SOL    HW1 4968   8.101   7.115   6.117 -0.1277 -1.3430 -1.6630
  810SOL    HW2 4969   8.176   7.039   6.010  2.2531 -2.4877  0.7765
  811SOL     OW 4970   5.435   7.976   9.631 -0.0263 -0.2174  0.7044
  811SOL    HW1 4971   5.461   8.068   9.633  1.8689 -0.7355  2.4751
  811SOL    HW2 4972   5.380   7.968   9.554 -1.4256  2.7151  1.3241
  812SOL     OW 4973   2.354   9.294   5.400 -0.2462  0.3510 -0.5141
  812SOL    HW1 4974   2.425   9.289   5.465  1.0750  0.8885 -1.8742
  812SOL    HW2 4975   2.288   9.350   5.441  1.8340  3.1102 -0.7496
  813SOL     OW 4976   8.066   7.796   8.947  0.1370 -0.0281  1.2414
  813SOL    HW1 4977   8.105   7.760   8.868  1.3636  1.5423  1.1018
  813SOL    HW2 4978   8.122   7.764   9.018 -0.1759 -0.3525  1.3387
  814SOL     OW 4979   0.087   7.063   2.274  0.3934 -0.1358  0.2617
  814SOL    HW1 4980   0.145   7.138   2.291  0.1077 -0.0403  0.8557
  814SOL    HW2 4981   0.146   6.992   2.248  0.7032  0.1921  0.0646
  815SOL     OW 4982   1.686   4.825   3.984  0.5240 -0.0736 -0.6083
  815SOL    HW1 4983   1.596   4.793   3.980  1.1926 -2.3601  1.1556
  815SOL    HW2 4984   1.678   4.920   3.988 -1.8194 -0.2777  0.2855
  816SOL     OW 4985  10.056   1.337   7.775 -0.4718  0.0220  0.1222
  816SOL    HW1 4986   9.996   1.316   7.704  0.0972 -1.4974  0.0768
  816SOL    HW2 4987  10.143   1.318   7.740 -0.0339  1.2458  0.5283
  817SOL     OW 4988   1.316   7.133   0.502  0.0818 -0.1660 -0.0567
  817SOL    HW1 4989   1.238   7.103   0.550  1.5087 -2.2314  1.0468
  817SOL    HW2 4990   1.304   7.097   0.414 -1.5128  1.8559 -0.7186
  818SOL     OW 4991   9.947   9.844   0.944  0.5195 -0.2449  0.5620
  818SOL    HW1 4992   9.910   9.906   1.006 -0.7314 -1.6851  1.3091
  818SOL    HW2 4993   9.996   9.897   0.881 -1.2351  1.5429  0.6894
  819SOL     OW 4994   4.760   7.141   9.108  0.5930 -0.0515  0.3317
  819SOL    HW1 4995   4.798   7.179   9.187  1.0498  1.2382 -0.4912
  819SOL    HW2 4996   4.829   7.083   9.074  0.4627 -0.4711  0.7833
  820SOL     OW 4997   5.147   3.178   0.435 -0.7193 -0.1460 -0.0743
  820SOL    HW1 4998   5.214   3.187   0.503  1.7894  0.5063 -2.5926
  820SOL    HW2 4999   5.133   3.084   0.427  1.9106 -0.4531 -1.4402
  821SOL     OW 5000   0.629   5.056   7.659 -0.3965 -0.2611  0.6458
  821SOL    HW1 5001   0.607   5.068   7.751 -0.1872 -1.9890  0.9251
  821SOL    HW2 5002   0.547   5.071   7.612 -1.1048 -1.9256  1.3202
  822SOL     OW 5003   7.156   8.441   2.967 -0.3697 -0.2467 -0.3494
  822SOL    HW1 5004   7.214   8.393   3.027  0.4442 -0.4192 -1.2510
  822SOL    HW2 5005   7.192   8.529   2.964 -0.4848 -0.2047 -0.4769
  823SOL     OW 5006   3.949   8.738   8.306 -0.1098  0.6983  0.5585
  823SOL    HW1 5007   3.867   8.713   8.349  0.5421 -0.1085  1.3699
  823SOL    HW2 5008   4.015   8.731   8.375  0.7074  0.9193 -0.1929
  824SOL     OW 5009   4.213   9.568   1.777  0.5079  0.3848  0.4161
  824SOL    HW1 5010   4.288   9.622   1.801  1.5817 -0.3925 -1.0707
  824SOL    HW2 5011   4.153   9.628   1.732  1.6577  0.3661 -1.1622
  825SOL     OW 5012   0.303   0.662   7.537  0.6124 -0.0701  0.0417
  825SOL    HW1 5013   0.337   0.574   7.556  0.6122 -0.7822 -2.9564
  825SOL    HW2 5014   0.211   0.648   7.513  0.2854  0.9210  0.6575
  826SOL     OW 5015   7.666   1.608   0.503 -0.4388 -0.2549  0.5527
  826SOL    HW1 5016   7.609   1.677   0.538 -1.1343 -0.0196 -1.0060
  826SOL    HW2 5017   7.621   1.526   0.524 -2.0047 -0.0312 -1.6996
  827SOL     OW 5018   2.038   0.533   1.197  0.1084  0.1797  0.8253
  827SOL    HW1 5019   2.112   0.528   1.257  0.7140  1.3299  0.1993
  827SOL    HW2 5020   1.969   0.576   1.247  0.5037  0.8436  0.8116
  828SOL     OW 5021   9.688   3.070   8.165  0.5831 -0.4754 -0.8072
  828SOL    HW1 5022   9.664   3.147   8.217  0.9900  0.4189 -1.9313
  828SOL    HW2 5023   9.742   3.017   8.225  0.8004  0.4005 -0.2137
  829SOL     OW 5024   0.666   4.572   8.111  0.1240  0.0916 -0.2104
  829SOL    HW1 5025   0.751   4.557   8.152  0.4918  0.4461 -0.8306
  829SOL    HW2 5026   0.609   4.505   8.148  0.9778 -0.8975 -0.6572
  830SOL     OW 5027   0.433   1.182   9.389 -0.2127  0.1467  0.2715
  830SOL    HW1 5028   0.448   1.253   9.327 -0.7765  0.1253  0.1144
  830SOL    HW2 5029   0.342   1.191   9.416 -0.8035 -1.5257 -1.0579
  831SOL     OW 5030   5.632   8.835   7.903 -0.2761 -0.0765 -0.2943
  831SOL    HW1 5031   5.627   8.885   7.985 -2.4545 -2.1043  0.8916
  831SOL    HW2 5032   5.725   8.833   7.882  0.0716  2.5626  0.8122
  832SOL     OW 5033   7.380   5.028   7.451  0.2712 -1.0043  0.1746
  832SOL    HW1 5034   7.428   4.950   7.481  0.3960 -0.9115  0.2190
  832SOL    HW2 5035   7.341   5.002   7.368 -1.6969 -1.8977  1.3403
  833SOL     OW 5036   1.897   1.983   5.764 -0.0624 -0.5299  0.2331
  833SOL    HW1 5037   1.846   1.919   5.814 -0.5645 -0.6612 -0.4345
  833SOL    HW2 5038   1.856   2.068   5.784 -0.4343 -0.6132 -0.1515
  834SOL     OW 5039   0.650   0.832   7.244  0.6622  0.6804  0.3269
  834SOL    HW1 5040   0.578   0.886   7.276 -1.2234 -0.8864 -1.1347
  834SOL    HW2 5041   0.673   0.775   7.317 -2.3630 -1.6118 -0.4429
  835SOL     OW 5042   2.809   1.791   6.056 -0.0060  0.5698 -0.4668
  835SOL    HW1 5043   2.893   1.830   6.082 -0.5445  1.7436 -0.4353
  835SOL    HW2 5044   2.824   1.759   5.967  1.3799 -2.0348  0.6493
  836SOL     OW 5045   3.340   6.778   4.263  0.6888  0.6287 -0.4448
  836SOL    HW1 5046   3.387   6.715   4.207  0.6345  1.7618 -1.7944
  836SOL    HW2 5047   3.288   6.830   4.202 -0.4390  0.9985  0.8129
  837SOL     OW 5048   9.683   7.945   8.017 -0.6169  0.2258 -0.0933
  837SOL    HW1 5049   9.678   7.850   8.029 -0.0665  0.3451  1.1454
  837SOL    HW2 5050   9.644   7.981   8.097 -1.6314  1.0502 -0.9368
  838SOL     OW 5051   1.703   6.181   8.369  0.0833  0.0276  0.1438
  838SOL    HW1 5052   1.791   6.188   8.333 -0.5248 -4.5591 -2.6430
  838SOL    HW2 5053   1.648   6.233   8.311  0.3623 -0.3828 -0.4821
  839SOL     OW 5054   0.009   5.183   9.064  0.7939  0.7509  0.4730
  839SOL    HW1 5055   0.031   5.090   9.064  4.0689  1.4542  1.7690
  839SOL    HW2 5056  -0.046   5.195   9.141 -1.4720 -0.4712 -0.9122
  840SOL     OW 5057   4.567   6.086   1.106  0.2071 -0.3963 -0.2337
  840SOL    HW1 5058   4.584   6.033   1.183 -2.4471 -1.0875 -0.0670
  840SOL    HW2 5059   4.652   6.123   1.083  1.6598 -2.8164  1.0427
  841SOL     OW 5060   8.009   0.723   2.507 -0.1544 -0.8815 -0.0694
  841SOL    HW1 5061   8.058   0.778   2.446 -0.2908 -0.6795  0.0019
  841SOL    HW2 5062   8.048   0.742   2.593  0.6744 -1.8821 -0.2173
  842SOL     OW 5063   8.178   8.539   7.368 -0.5438  0.8461  0.4879
  842SOL    HW1 5064   8.206   8.520   7.278  0.0173 -0.9790  1.0256
  842SOL    HW2 5065   8.216   8.625   7.387 -1.2962  1.6009 -1.2725
  843SOL     OW 5066  10.069   3.448   4.762  0.0764  0.2313  0.1016
  843SOL    HW1 5067  10.132   3.423   4.829 -0.1350  1.7815  0.8972
  843SOL    HW2 5068  10.034   3.365   4.729  0.0443 -0.5395  2.0501
  844SOL     OW 5069   8.132   0.363   9.862  0.0414  0.1657 -0.0008
  844SOL    HW1 5070   8.224   0.348   9.886  0.0745 -0.6227 -0.6135
  844SOL    HW2 5071   8.128   0.343   9.769 -0.5982  0.9325 -0.1482
  845SOL     OW 5072   4.652   8.263   5.048 -0.3068  0.3721  0.4079
  845SOL    HW1 5073   4.568   8.270   5.093 -0.4725 -0.8529  0.2830
  845SOL    HW2 5074   4.679   8.354   5.034 -1.2408  0.7666  1.1300
  846SOL     OW 5075   1.648   3.876  10.124 -0.0662  0.3592 -0.0086
  846SOL    HW1 5076   1.554   3.858  10.114  0.2617 -0.9715 -0.6469
  846SOL    HW2 5077   1.682   3.801  10.172  0.6200  1.0139  0.5411
  847SOL     OW 5078   9.152   2.821   2.872 -0.1017  0.0020  0.2081
  847SOL    HW1 5079   9.158   2.906   2.830 -2.9701  0.5295  0.7217
  847SOL    HW2 5080   9.146   2.840   2.966 -0.2020 -0.7688  0.3692
  848SOL     OW 5081   2.894   4.003   1.344 -0.2463  0.0254  0.2876
  848SOL    HW1 5082   2.982   3.965   1.339 -0.2223  0.0614  0.4201
  848SOL    HW2 5083   2.839   3.932   1.377 -0.2814 -0.0216  0.1269
  849SOL     OW 5084   5.841   3.172   5.619  0.5304  0.2815 -0.0970
  849SOL    HW1 5085   5.779   3.189   5.548 -0.2956  1.7118  0.9303
  849SOL    HW2 5086   5.927   3.172   5.577  0.0459  1.0872 -1.1118
  850SOL     OW 5087   6.907   5.793   9.019 -0.1044  0.1189  0.4091
  850SOL    HW1 5088   6.921   5.777   9.112  0.1038 -0.3982  0.2880
  850SOL    HW2 5089   6.972   5.738   8.975 -1.0948 -0.6621 -0.0839
  851SOL     OW 5090   6.121   3.010   6.387 -0.0346 -0.0552  0.0456
  851SOL    HW1 5091   6.033   3.045   6.374  0.3895  1.0996  0.2586
  851SOL    HW2 5092   6.116   2.920   6.353 -0.4568  1.0004 -2.8270
  852SOL     OW 5093   2.187   7.667   7.746  0.1313 -0.0895 -0.7006
  852SOL    HW1 5094   2.155   7.595   7.801  2.1389  0.5249  1.3432
  852SOL    HW2 5095   2.282   7.664   7.755  0.2030  3.6811  0.6262
  853SOL     OW 5096   5.198   8.197   3.643  0.3180 -0.1519 -0.5486
  853SOL    HW1 5097   5.142   8.266   3.679  2.7434  1.5077  0.2108
  853SOL    HW2 5098   5.221   8.227   3.555  0.7840 -0.3303 -0.4924
  854SOL     OW 5099   3.476   4.429   6.494  0.0898 -0.4240  0.7791
  854SOL    HW1 5100   3.568   4.426   6.468  0.2647 -1.0815  1.4670
  854SOL    HW2 5101   3.455   4.522   6.498  0.0973 -0.2893 -1.5683
  855SOL     OW 5102   4.912   1.130   0.590  0.1817 -0.5047 -0.2711
  855SOL    HW1 5103   4.908   1.218   0.553  0.5510 -0.4069 -0.0786
  855SOL    HW2 5104   4.883   1.073   0.519 -0.0963 -0.2245 -0.3829
  856SOL     OW 5105   2.579   7.721   7.052  0.1468  0.3428 -0.7649
  856SOL    HW1 5106   2.602   7.641   7.099 -1.9872  0.8243  1.1876
  856SOL    HW2 5107   2.565   7.693   6.962  1.9434 -1.0312 -0.6275
  857SOL     OW 5108   5.173   2.514   4.170 -0.1839 -0.3421  0.4807
  857SOL    HW1 5109   5.087   2.541   4.202  0.3066  0.7293  0.9001
  857SOL    HW2 5110   5.235   2.562   4.224  0.6791 -0.5843 -0.2802
  858SOL     OW 5111   6.948   3.661   6.491  0.3798 -0.3920 -0.5104
  858SOL    HW1 5112   6.917   3.749   6.470  0.9148 -0.2485 -0.6949
  858SOL    HW2 5113   6.900   3.637   6.571  0.1187  0.0033 -0.5478
  859SOL     OW 5114   8.174   4.693   9.861  0.5404 -0.5443  0.3190
  859SOL    HW1 5115   8.203   4.605   9.838  1.8473 -0.4465  1.5285
  859SOL    HW2 5116   8.137   4.684   9.949 -0.3265 -0.0901  0.0050
  860SOL     OW 5117   4.218   1.767   2.278  0.0111  0.0275  0.0839
  860SOL    HW1 5118   4.258   1.741   2.195 -1.1806 -0.8063 -0.2343
  860SOL    HW2 5119   4.208   1.862   2.271 -1.4774 -0.2232 -1.3507
  861SOL     OW 5120   2.438   3.337   6.272  0.1321  0.7511 -0.2501
  861SOL    HW1 5121   2.401   3.282   6.203  1.2147 -0.5019  0.1626
  861SOL    HW2 5122   2.526   3.303   6.286  0.3870  1.8152  0.8676
  862SOL     OW 5123   1.076   2.342  10.164 -0.2782  0.0655  0.0050
  862SOL    HW1 5124   1.062   2.422  10.215 -1.4185  0.7367 -1.3120
  862SOL    HW2 5125   1.132   2.371  10.091  0.8136 -0.7399  0.5223
  863SOL     OW 5126   5.775   1.765   4.426 -0.1558 -0.0580 -0.7787
  863SOL    HW1 5127   5.858   1.771   4.379  0.1889 -0.6963 -0.2674
  863SOL    HW2 5128   5.748   1.856   4.439  0.9900  0.1875 -0.0470
  864SOL     OW 5129   3.990   6.588   5.781 -0.0572  0.0283 -0.1557
  864SOL    HW1 5130   3.918   6.541   5.740 -0.1613 -0.9149  1.0598
  864SOL    HW2 5131   3.952   6.671   5.809  0.0717  0.7692 -2.1300
  865SOL     OW 5132   1.867   7.267   1.168 -0.6861 -0.2295  0.4373
  865SOL    HW1 5133   1.879   7.249   1.261  1.7673 -0.6860  0.0609
  865SOL    HW2 5134   1.844   7.360   1.164  1.1543  0.2725  1.3666
  866SOL     OW 5135   1.208   1.587   2.394 -0.5701  0.1076 -0.1389
  866SOL    HW1 5136   1.283   1.638   2.365  0.5564 -0.3900  1.8567
  866SOL    HW2 5137   1.149   1.651   2.434  0.0179  0.1236  0.7177
  867SOL     OW 5138   2.243   0.150   9.041 -0.7074  0.5246  0.0793
  867SOL    HW1 5139   2.250   0.104   9.124  0.4500  1.0536  0.2835
  867SOL    HW2 5140   2.175   0.215   9.055  1.2315  2.3378  1.4639
  868SOL     OW 5141   1.401   1.005   9.813  0.0195  0.7465 -0.1228
  868SOL    HW1 5142   1.419   1.082   9.865  1.9506 -0.2610  0.7114
  868SOL    HW2 5143   1.467   1.006   9.744  0.1254 -0.2207 -0.0428
  869SOL     OW 5144   4.009  10.077   8.579 -0.0262  0.3860 -0.2404
  869SOL    HW1 5145   4.057  10.159   8.566  0.6060  0.3999  2.0084
  869SOL    HW2 5146   4.052  10.036   8.653  0.2444 -2.4422 -1.9078
  870SOL     OW 5147   4.245   0.706   4.886  0.1947 -0.4847 -0.3576
  870SOL    HW1 5148   4.150   0.707   4.903  0.1039  0.6300 -0.8961
  870SOL    HW2 5149   4.283   0.751   4.961  0.1747  0.4108 -0.8867
  871SOL     OW 5150   8.013   9.656   2.004  0.1492 -0.1425  0.3495
  871SOL    HW1 5151   8.050   9.682   2.089 -3.0891  0.3416  1.7033
  871SOL    HW2 5152   7.978   9.569   2.019  0.2811 -0.3874 -0.7359
  872SOL     OW 5153   6.598   0.853   0.776  0.2270 -0.3911 -0.4825
  872SOL    HW1 5154   6.516   0.833   0.731  0.1047  1.7458 -1.2644
  872SOL    HW2 5155   6.663   0.858   0.706  0.4749  0.6891 -0.1837
  873SOL     OW 5156   9.935   2.964   8.328  0.1482  0.2438 -0.1863
  873SOL    HW1 5157   9.939   2.922   8.414 -0.3478 -1.9563 -1.2115
  873SOL    HW2 5158   9.995   2.915   8.273 -0.5897  0.7409 -1.4765
  874SOL     OW 5159   3.182   3.995   3.359  0.0029 -0.5051 -0.1530
  874SOL    HW1 5160   3.175   3.980   3.454 -1.4175 -0.3283 -0.2160
  874SOL    HW2 5161   3.111   3.943   3.322 -1.3212  1.7434 -0.8567
  875SOL     OW 5162   4.790   3.059   0.789 -0.4882  0.2597 -0.1522
  875SOL    HW1 5163   4.785   3.108   0.871 -0.5236 -0.8137  0.4970
  875SOL    HW2 5164   4.854   3.106   0.737  1.1675 -0.2690  1.3394
  876SOL     OW 5165   3.759   6.669   1.498 -0.2058  0.5155 -0.1491
  876SOL    HW1 5166   3.807   6.714   1.429 -0.0020 -0.3777 -0.5847
  876SOL    HW2 5167   3.714   6.740   1.545  1.8836  1.4163  0.5558
  877SOL     OW 5168   1.224   1.359   8.714 -0.2685  0.0296 -0.6841
  877SOL    HW1 5169   1.292   1.292   8.712 -0.2137  0.0505  0.2056
  877SOL    HW2 5170   1.149   1.320   8.668 -0.8890 -1.3678  1.4723
  878SOL     OW 5171   3.735   6.214   2.859 -0.0199 -0.0395  0.0624
  878SOL    HW1 5172   3.806   6.275   2.881  0.0422 -0.3659  0.7812
  878SOL    HW2 5173   3.780   6.134   2.833 -0.1008 -1.0678  2.8472
  879SOL     OW 5174   4.567   3.626   4.474  1.0755  0.0269  0.3882
  879SOL    HW1 5175   4.497   3.563   4.494 -0.0540  1.9168  2.5241
  879SOL    HW2 5176   4.625   3.578   4.415 -0.5820 -2.5033  0.7213
  880SOL     OW 5177   3.414   5.536   0.513 -0.1543 -0.5118  0.5017
  880SOL    HW1 5178   3.445   5.489   0.435 -1.5994 -1.4982  0.5036
  880SOL    HW2 5179   3.481   5.601   0.529 -1.0011  1.4087 -3.0900
  881SOL     OW 5180   3.537   8.751   3.862 -0.2090 -0.0329 -0.4170
  881SOL    HW1 5181   3.487   8.825   3.897 -1.2220 -0.4738 -0.8926
  881SOL    HW2 5182   3.479   8.675   3.877  0.9667 -0.7874  0.4183
  882SOL     OW 5183   5.690   8.954   7.605  0.0158  0.5256 -0.5476
  882SOL    HW1 5184   5.599   8.984   7.601 -0.3077 -0.2941  0.5562
  882SOL    HW2 5185   5.737   9.027   7.645 -0.3486  0.5141 -0.0965
  883SOL     OW 5186   3.657   4.895   1.712 -0.2348  0.1892 -0.0938
  883SOL    HW1 5187   3.663   4.950   1.634  0.8638  0.5235  0.2156
  883SOL    HW2 5188   3.626   4.954   1.781  0.5871  0.3318  0.1529
  884SOL     OW 5189  10.177  10.203   1.234  0.5516  0.7669 -0.2351
  884SOL    HW1 5190  10.233  10.154   1.294 -0.6241  1.0293  1.1046
  884SOL    HW2 5191  10.219  10.192   1.149  2.1309  0.2017  0.5791
  885SOL     OW 5192   4.217   7.382   3.794  0.3816  0.3685  0.3415
  885SOL    HW1 5193   4.311   7.402   3.797  0.5387  0.0061 -1.8202
  885SOL    HW2 5194   4.186   7.426   3.715 -1.0106 -0.6518  0.3135
  886SOL     OW 5195   9.978   3.347   3.217 -0.0424  0.4318 -0.1926
  886SOL    HW1 5196  10.067   3.350   3.252 -0.2695  0.6809  0.3563
  886SOL    HW2 5197   9.968   3.430   3.170  1.2382 -1.0524 -3.2321
  887SOL     OW 5198   2.762   0.790   9.226 -0.0715 -0.3338  0.0013
  887SOL    HW1 5199   2.676   0.821   9.252  0.3622 -0.1900  1.3222
  887SOL    HW2 5200   2.823   0.836   9.284  0.7596 -1.7456  0.2660
  888SOL     OW 5201   1.703   0.011   0.353 -0.2040  0.1836  0.0562
  888SOL    HW1 5202   1.687  -0.027   0.266  0.8549  1.5049 -0.7326
  888SOL    HW2 5203   1.692   0.106   0.340 -2.6382  0.2057  1.9522
  889SOL     OW 5204   2.318   7.150   7.528  0.2295  0.6175 -0.6483
  889SOL    HW1 5205   2.269   7.190   7.600 -1.4277  1.4376 -2.2015
  889SOL    HW2 5206   2.399   7.119   7.569 -0.4183  1.5911  1.4511
  890SOL     OW 5207   3.570   7.179   2.877  0.5972  0.3193 -0.3559
  890SOL    HW1 5208   3.565   7.272   2.899  0.8665  0.8869 -2.5664
  890SOL    HW2 5209   3.620   7.139   2.949  0.8378  1.9447  0.3898
  891SOL     OW 5210   5.669   4.109   6.333 -0.3666 -0.1802  0.1322
  891SOL    HW1 5211   5.674   4.152   6.418  0.1479 -1.5642  0.8112
  891SOL    HW2 5212   5.575   4.112   6.311 -0.1338  2.8286 -0.6728
  892SOL     OW 5213   3.194   6.212   6.604 -0.2538  0.3181 -0.9240
  892SOL    HW1 5214   3.215   6.220   6.697  1.8959  1.0644 -1.4432
  892SOL    HW2 5215   3.151   6.294   6.581  1.7480  1.3083 -1.2048
  893SOL     OW 5216   3.440   0.444   8.746 -0.4395  0.0437 -0.0037
  893SOL    HW1 5217   3.414   0.503   8.674  1.2413 -0.5542 -1.1228
  893SOL    HW2 5218   3.521   0.483   8.780 -1.2832  0.3759  1.6501
  894SOL     OW 5219   8.906   5.209   7.874  0.1055 -0.4415  0.0629
  894SOL    HW1 5220   8.837   5.143   7.886  1.1096 -2.1177 -2.8406
  894SOL    HW2 5221   8.859   5.291   7.863 -1.2891 -1.0488  1.2988
  895SOL     OW 5222   5.474   5.190   1.735 -0.1668  0.9828 -0.4150
  895SOL    HW1 5223   5.403   5.127   1.724  0.2397  0.2409  1.0000
  895SOL    HW2 5224   5.495   5.186   1.829 -1.6733  4.8850  0.1935
  896SOL     OW 5225   6.816   5.496   3.722 -0.3043 -0.4079 -0.5205
  896SOL    HW1 5226   6.763   5.520   3.798 -1.7406 -2.2040 -0.9321
  896SOL    HW2 5227   6.897   5.546   3.733 -1.1219  0.5664  1.3522
  897SOL     OW 5228   6.015   6.914   5.357  0.2963  0.4200 -0.0412
  897SOL    HW1 5229   6.072   6.873   5.421 -1.1167  0.1190  1.0432
  897SOL    HW2 5230   6.012   6.853   5.284  2.3867  1.0336 -0.6900
  898SOL     OW 5231   0.040   3.655   5.723  0.8745 -0.1208 -0.7909
  898SOL    HW1 5232  -0.017   3.581   5.743  1.0891 -0.7468 -2.4754
  898SOL    HW2 5233   0.107   3.652   5.792 -0.4600 -0.0440  0.5328
  899SOL     OW 5234   9.888   7.347   5.256  0.0430  0.2948  0.4463
  899SOL    HW1 5235   9.941   7.268   5.244  2.5772  2.0402 -0.5270
  899SOL    HW2 5236   9.837   7.354   5.176 -2.2683 -1.7696  1.6702
  900SOL     OW 5237   8.694   5.097   6.653  0.2236 -0.2931  0.2627
  900SOL    HW1 5238   8.704   5.096   6.749 -2.2896  0.2113  0.5530
  900SOL    HW2 5239   8.615   5.148   6.638  2.2805  2.2666 -2.2819
  901SOL     OW 5240   5.707   5.287   3.377  0.1470  0.2891  0.0312
  901SOL    HW1 5241   5.793   5.247   3.361  0.3400  0.5947  0.2797
  901SOL    HW2 5242   5.708   5.367   3.325  0.0261  0.3079  0.0583
  902SOL     OW 5243   5.002   8.523   0.727 -0.2314 -0.3194 -0.2974
  902SOL    HW1 5244   5.082   8.572   0.749 -1.3063  1.3132  0.0430
  902SOL    HW2 5245   5.033   8.435   0.709  1.6276  0.2066  0.1686
  903SOL     OW 5246   1.803   9.165   2.909 -0.7976  0.0082  0.3539
  903SOL    HW1 5247   1.853   9.246   2.896 -0.2885 -0.6236 -1.7194
  903SOL    HW2 5248   1.715   9.196   2.933 -1.0990  1.2519 -2.1467
  904SOL     OW 5249   4.913   2.771   9.686 -0.0884  0.1217  0.2663
  904SOL    HW1 5250   4.839   2.736   9.636  0.2280 -1.7868  1.0788
  904SOL    HW2 5251   4.975   2.803   9.620 -1.2808  1.0119 -0.4348
  905SOL     OW 5252   8.912   7.801   9.788 -0.0308  0.0226  0.4428
  905SOL    HW1 5253   8.986   7.789   9.729 -0.3833 -2.3741  0.4448
  905SOL    HW2 5254   8.919   7.729   9.850 -2.8735 -0.8057 -0.1362
  906SOL     OW 5255   5.024   4.954   7.134 -0.0228  0.1907  0.1537
  906SOL    HW1 5256   5.054   4.919   7.050  0.2323  0.7800  0.0019
  906SOL    HW2 5257   5.073   5.035   7.146  1.4417 -0.9073  1.8317
  907SOL     OW 5258   5.435   2.794   3.994  0.3726  0.5889 -0.4094
  907SOL    HW1 5259   5.523   2.818   4.023  0.8813  0.4114 -1.7972
  907SOL    HW2 5260   5.388   2.776   4.076  1.5212  1.0084  0.3615
  908SOL     OW 5261   9.624   4.556   9.971 -0.2717  0.2591 -0.4459
  908SOL    HW1 5262   9.632   4.481  10.030 -0.4309 -0.0620 -0.8237
  908SOL    HW2 5263   9.534   4.550   9.937 -0.8067  1.5258  0.7193
  909SOL     OW 5264   6.381   2.684   0.115 -0.0957  0.1293 -0.3239
  909SOL    HW1 5265   6.415   2.694   0.204 -0.8420 -0.4808  0.0363
  909SOL    HW2 5266   6.459   2.688   0.059  0.4730 -0.3048  0.4217
  910SOL     OW 5267   6.546   8.404   3.673 -0.0128  0.2726 -0.0599
  910SOL    HW1 5268   6.553   8.335   3.608  1.3435 -0.3263  0.7035
  910SOL    HW2 5269   6.455   8.434   3.667 -0.6620 -1.6893 -0.2839
  911SOL     OW 5270   0.929   2.638   5.686 -0.2712 -0.3352  0.3492
  911SOL    HW1 5271   0.977   2.696   5.627 -0.7164 -0.7933 -0.4830
  911SOL    HW2 5272   0.906   2.563   5.631 -2.1947  0.0108  0.6611
  912SOL     OW 5273   9.098   7.193   8.046  0.0317 -0.1991  0.0053
  912SOL    HW1 5274   9.064   7.109   8.077  1.4689 -1.7548 -2.5337
  912SOL    HW2 5275   9.098   7.248   8.124 -3.2094 -1.7673  1.2254
  913SOL     OW 5276   5.267   6.947   8.233  0.2052  0.0066  0.4508
  913SOL    HW1 5277   5.257   6.954   8.138 -1.6374  1.2953  0.7026
  913SOL    HW2 5278   5.316   7.026   8.257 -1.1369  0.7460  0.7924
  914SOL     OW 5279   8.238   6.013   6.451 -0.5187  0.7525 -0.0186
  914SOL    HW1 5280   8.288   6.094   6.442  0.9813 -0.1566  0.0863
  914SOL    HW2 5281   8.249   5.969   6.367  0.2257 -0.2190  0.5801
  915SOL     OW 5282   2.612   4.267   3.744 -0.7975 -0.0851  0.3204
  915SOL    HW1 5283   2.564   4.346   3.718 -3.6715 -2.4986 -2.1308
  915SOL    HW2 5284   2.666   4.247   3.667  1.7231  0.7457  1.8271
  916SOL     OW 5285   5.185   0.202   0.958 -0.6067 -0.6663 -0.0097
  916SOL    HW1 5286   5.261   0.252   0.928 -1.3759  1.0249  0.7853
  916SOL    HW2 5287   5.208   0.111   0.940  1.1510 -0.1008 -0.7837
  917SOL     OW 5288   8.835   7.323   5.327  0.1381 -0.1799 -0.5074
  917SOL    HW1 5289   8.765   7.278   5.280 -1.3318  1.6074 -0.1119
  917SOL    HW2 5290   8.911   7.318   5.269  0.2098 -3.6028 -0.2296
  918SOL     OW 5291   1.195   6.607   0.940  0.4354 -0.2690 -0.2217
  918SOL    HW1 5292   1.158   6.689   0.973  0.2375 -0.4987  0.1398
  918SOL    HW2 5293   1.285   6.629   0.917  0.2386  0.1643 -0.5779
  919SOL     OW 5294   7.927   9.190   8.858 -0.0606 -0.0382  0.0951
  919SOL    HW1 5295   7.880   9.244   8.922  0.3921 -0.5235  0.8409
  919SOL    HW2 5296   7.995   9.146   8.909  0.6986  0.0456 -0.8293
  920SOL     OW 5297   7.428   3.373   5.617  0.3412  0.2331  0.9909
  920SOL    HW1 5298   7.366   3.306   5.590  0.4229  0.9084 -0.9889
  920SOL    HW2 5299   7.405   3.393   5.707 -1.1248 -0.8338  0.8664
  921SOL     OW 5300   0.375   8.714   4.260  0.2847  0.4379  0.1542
  921SOL    HW1 5301   0.421   8.797   4.259  1.0030  0.0434 -1.7841
  921SOL    HW2 5302   0.388   8.678   4.173  0.7679 -2.1475  1.2425
  922SOL     OW 5303   3.815   9.046   9.481  0.1827 -0.3183  0.0493
  922SOL    HW1 5304   3.805   8.993   9.561  0.5839 -1.6091 -0.7489
  922SOL    HW2 5305   3.778   9.131   9.505  2.5463  0.1379  2.4467
  923SOL     OW 5306   9.920   9.766   9.992  1.1043 -0.0717 -0.4465
  923SOL    HW1 5307   9.975   9.732  10.063 -0.1175  0.1918  0.6465
  923SOL    HW2 5308   9.846   9.808  10.037 -0.2129 -0.8002 -1.8917
  924SOL     OW 5309   1.348   8.254   2.598 -0.2660 -0.5495  0.5307
  924SOL    HW1 5310   1.292   8.178   2.586 -0.5578  0.0063 -1.8496
  924SOL    HW2 5311   1.385   8.271   2.511 -1.4669  3.0030  0.6458
  925SOL     OW 5312   3.616   9.615   1.002 -0.2111 -0.2228  0.3507
  925SOL    HW1 5313   3.648   9.558   0.933 -0.6035  0.3417 -0.3135
  925SOL    HW2 5314   3.695   9.647   1.047  0.1100  0.3269 -0.5909
  926SOL     OW 5315   4.052   6.302   0.776 -0.6030  0.3698  0.1522
  926SOL    HW1 5316   4.065   6.317   0.870 -2.1051 -1.0036  0.6113
  926SOL    HW2 5317   4.000   6.377   0.747 -3.6557 -1.2024  1.3219
  927SOL     OW 5318   3.996   1.741   2.920  0.1064 -0.3241 -0.4105
  927SOL    HW1 5319   4.084   1.716   2.895  0.7965  1.0900  0.5369
  927SOL    HW2 5320   3.952   1.760   2.837  0.0250 -3.0487 -1.0408
  928SOL     OW 5321   9.070   8.601   8.307  0.1362 -0.2251 -0.3997
  928SOL    HW1 5322   9.042   8.683   8.346 -0.2372 -0.5278 -0.0369
  928SOL    HW2 5323   8.993   8.544   8.311  0.1079 -0.2735 -1.5307
  929SOL     OW 5324   5.946   4.457   9.880 -0.1720  0.3173 -0.0064
  929SOL    HW1 5325   5.924   4.521   9.813  1.0456  0.6291 -0.1165
  929SOL    HW2 5326   5.999   4.392   9.836  0.7749  0.6103  0.6874
  930SOL     OW 5327   8.387   7.418   4.131  0.2732  0.7203 -0.4728
  930SOL    HW1 5328   8.356   7.338   4.174 -0.3347  0.1150 -1.9900
  930SOL    HW2 5329   8.482   7.415   4.139  0.2577 -0.2054 -0.6095
  931SOL     OW 5330   3.047   2.609   2.641 -0.4027 -0.3329  0.2134
  931SOL    HW1 5331   3.002   2.665   2.578  0.2227  0.4416  0.4453
  931SOL    HW2 5332   3.008   2.631   2.725 -1.1094 -1.2353  0.1217
  932SOL     OW 5333   8.885   2.108   2.225  0.5528  0.5715 -0.1037
  932SOL    HW1 5334   8.872   2.013   2.229  0.2692  0.6658  1.3939
  932SOL    HW2 5335   8.914   2.124   2.135 -1.5070 -0.6820 -1.0297
  933SOL     OW 5336   1.867   7.235   3.248  0.1024 -0.6195  0.0348
  933SOL    HW1 5337   1.792   7.262   3.195 -1.0495 -0.9479  1.4647
  933SOL    HW2 5338   1.837   7.244   3.339  1.8625 -0.5684  0.6353
  934SOL     OW 5339   7.528   2.851   0.368  0.6823  0.2965  0.7314
  934SOL    HW1 5340   7.576   2.774   0.337 -1.6767 -1.0767  0.3686
  934SOL    HW2 5341   7.551   2.859   0.460  0.8433 -0.9071  0.7939
  935SOL     OW 5342  10.166   6.810   0.267  0.3148  0.6069 -0.8071
  935SOL    HW1 5343  10.225   6.816   0.342  1.5045 -1.0796 -1.5703
  935SOL    HW2 5344  10.157   6.900   0.236  1.9243  0.9858 -0.2346
  936SOL     OW 5345   9.636   9.600   9.357 -0.2121  0.0523 -0.1036
  936SOL    HW1 5346   9.552   9.571   9.392 -1.5149  2.0371 -1.4478
  936SOL    HW2 5347   9.619   9.689   9.326  2.0978  0.0665 -1.4216
  937SOL     OW 5348   4.065   3.794   3.921  0.2678 -0.0195 -0.1427
  937SOL    HW1 5349   4.133   3.774   3.985 -0.1119 -0.1209  0.2285
  937SOL    HW2 5350   4.073   3.724   3.856  0.5703  0.0127 -0.1392
  938SOL     OW 5351   3.385   4.541   1.860 -0.4114 -0.1305 -0.1991
  938SOL    HW1 5352   3.337   4.622   1.877  0.5707  0.4055  0.0698
  938SOL    HW2 5353   3.318   4.477   1.837 -1.2381  0.6294  0.0980
  939SOL     OW 5354   5.042   0.587   6.574  0.3815 -0.0564 -0.5840
  939SOL    HW1 5355   5.097   0.537   6.635  1.1780  1.6821  0.1476
  939SOL    HW2 5356   4.976   0.629   6.630  0.0652  0.1697 -1.1262
  940SOL     OW 5357   9.453   6.647   9.736  0.1683  0.1104 -0.2460
  940SOL    HW1 5358   9.546   6.626   9.746  1.1413  2.7809 -3.0111
  940SOL    HW2 5359   9.416   6.573   9.688  1.6128  0.4821 -1.9863
  941SOL     OW 5360   4.498   9.614   2.246 -0.2777  0.5369  0.1026
  941SOL    HW1 5361   4.444   9.558   2.302  0.4208  0.6369  0.8835
  941SOL    HW2 5362   4.466   9.596   2.158 -0.5913 -0.5112  0.4117
  942SOL     OW 5363   3.088   9.793   4.664  0.7025 -0.8033 -0.0177
  942SOL    HW1 5364   3.105   9.874   4.713  0.4849 -1.1313  0.6151
  942SOL    HW2 5365   3.096   9.818   4.572  0.1088  0.0675  0.1551
  943SOL     OW 5366   1.000   9.715   3.756  0.6516  0.1010 -0.0362
  943SOL    HW1 5367   0.961   9.649   3.700 -1.6810  0.8005  0.7337
  943SOL    HW2 5368   1.073   9.749   3.704 -0.9912  0.2108 -2.3610
  944SOL     OW 5369   6.787   6.283   6.901 -0.2951 -0.2637 -0.3219
  944SOL    HW1 5370   6.708   6.236   6.872 -0.4567 -0.7626  0.8891
  944SOL    HW2 5371   6.773   6.297   6.995  0.9556 -0.1311 -0.1503
  945SOL     OW 5372   0.108   0.666   6.859  1.0163 -0.8386  0.0885
  945SOL    HW1 5373   0.096   0.612   6.781  3.3335 -1.5432  0.1706
  945SOL    HW2 5374   0.130   0.604   6.928 -1.4995 -0.2659  1.4417
  946SOL     OW 5375   4.599   1.403   6.264 -0.3439 -0.4659  0.0278
  946SOL    HW1 5376   4.613   1.310   6.281 -0.6970 -1.0341 -2.4858
  946SOL    HW2 5377   4.654   1.422   6.188 -0.1632  1.4117  0.6012
  947SOL     OW 5378   6.792   1.851   4.580 -0.2254  0.8358  0.1692
  947SOL    HW1 5379   6.825   1.828   4.493 -2.9290  1.1641 -1.0122
  947SOL    HW2 5380   6.699   1.827   4.577 -0.6177  1.9093  2.5841
  948SOL     OW 5381   3.989   1.852   7.899 -0.1696  0.2107 -0.6684
  948SOL    HW1 5382   3.977   1.785   7.831  1.5162 -0.1114 -0.6564
  948SOL    HW2 5383   3.930   1.923   7.873 -2.3158 -1.4360 -0.4445
  949SOL     OW 5384   3.562   1.174   7.160 -0.1839  0.4799 -0.3893
  949SOL    HW1 5385   3.569   1.090   7.115 -0.9798  0.9133 -1.3309
  949SOL    HW2 5386   3.474   1.206   7.139  0.3938  1.9138 -0.6693
  950SOL     OW 5387   3.367   6.795   2.555 -0.0908  0.4369  0.2388
  950SOL    HW1 5388   3.361   6.865   2.620  1.0549  1.8959 -1.1716
  950SOL    HW2 5389   3.454   6.758   2.566  0.3042  1.0347 -0.7866
  951SOL     OW 5390   6.200   7.434   8.641  0.4584 -0.3830  0.4285
  951SOL    HW1 5391   6.135   7.382   8.594  0.8606 -0.9599  0.5108
  951SOL    HW2 5392   6.245   7.371   8.699  1.4697 -0.0994 -0.0327
  952SOL     OW 5393   3.414   7.230   4.410  0.0567  0.5171  0.1144
  952SOL    HW1 5394   3.447   7.186   4.331 -0.4002  0.2593  0.0657
  952SOL    HW2 5395   3.320   7.241   4.394  0.4362  3.0528 -0.6142
  953SOL     OW 5396   1.809   6.938   2.706 -0.2850 -0.5181 -0.2105
  953SOL    HW1 5397   1.748   7.009   2.725 -0.7928 -0.8936 -0.4324
  953SOL    HW2 5398   1.802   6.879   2.781  0.1278 -0.3422 -0.0318
  954SOL     OW 5399   1.710   5.008   4.383  0.6269 -0.0318  0.5590
  954SOL    HW1 5400   1.653   5.082   4.363 -1.5871 -1.1293  2.5017
  954SOL    HW2 5401   1.745   5.028   4.470  0.0224 -1.2562  1.0887
  955SOL     OW 5402   5.323   2.818   0.560 -0.1869 -0.5978  0.0950
  955SOL    HW1 5403   5.268   2.869   0.501  0.3345  2.1029  1.8641
  955SOL    HW2 5404   5.269   2.804   0.638  0.9305  0.4532  1.0891
  956SOL     OW 5405   2.608   8.291   3.085 -0.1698  0.2180  0.1045
  956SOL    HW1 5406   2.658   8.356   3.135  0.6174 -0.2055 -0.1187
  956SOL    HW2 5407   2.517   8.312   3.102  0.0905  0.7125  0.9024
  957SOL     OW 5408   6.761   2.086   8.992  0.6227  0.4561  0.7153
  957SOL    HW1 5409   6.843   2.104   9.038  0.6955 -0.0293  0.7796
  957SOL    HW2 5410   6.693   2.128   9.046  0.8470  1.0074  0.5701
  958SOL     OW 5411   2.223   1.885   4.028  0.3817  0.3765  0.1774
  958SOL    HW1 5412   2.302   1.842   4.061  0.5868  0.9085  0.3944
  958SOL    HW2 5413   2.255   1.945   3.960  0.1336  0.3792  0.0647
  959SOL     OW 5414   5.009   3.753   3.601  0.1138  0.0960  0.5631
  959SOL    HW1 5415   5.078   3.793   3.547 -1.2913  0.1156 -1.2477
  959SOL    HW2 5416   5.040   3.764   3.691  2.7335 -0.3798 -0.2473
  960SOL     OW 5417   2.976   1.070   9.238 -0.1749  0.4479  0.0010
  960SOL    HW1 5418   3.011   1.148   9.195  0.2948 -1.6395 -3.6205
  960SOL    HW2 5419   2.893   1.099   9.276  0.6219  2.9918 -0.0734
  961SOL     OW 5420   8.431   4.254   0.039 -0.5316 -0.3186  0.2682
  961SOL    HW1 5421   8.497   4.194   0.005 -0.9934 -0.0166 -1.1917
  961SOL    HW2 5422   8.348   4.225   0.001 -1.3108 -0.8484  2.2874
  962SOL     OW 5423   0.147   0.223   0.722 -0.1933 -0.3475  0.0841
  962SOL    HW1 5424   0.242   0.213   0.714 -0.1454  0.1182  0.0533
  962SOL    HW2 5425   0.128   0.308   0.681 -0.8445 -1.2358 -1.4968
  963SOL     OW 5426   4.230   0.528   1.596  0.1888  0.0102  0.0103
  963SOL    HW1 5427   4.162   0.507   1.661  0.1435  1.4045  0.4264
  963SOL    HW2 5428   4.197   0.490   1.514 -0.3968 -0.5929  0.5204
  964SOL     OW 5429   9.232   8.902   3.811  0.0387  0.0193 -0.1777
  964SOL    HW1 5430   9.311   8.956   3.801 -0.2683  0.7893  1.3246
  964SOL    HW2 5431   9.160   8.963   3.796 -0.3067 -0.0219  1.2211
  965SOL     OW 5432   3.015   9.354   8.786  0.1185 -0.1971 -0.0530
  965SOL    HW1 5433   3.012   9.408   8.865 -2.5317 -1.6505  0.8881
  965SOL    HW2 5434   3.090   9.296   8.799 -2.9575 -3.5695  3.5649
  966SOL     OW 5435   8.558   1.743   6.959 -0.5542 -0.1495 -0.4990
  966SOL    HW1 5436   8.645   1.781   6.957 -0.4158 -0.2341  1.7517
  966SOL    HW2 5437   8.562   1.669   6.898  2.0590 -2.3414  2.1563
  967SOL     OW 5438   4.046   0.440   1.776  0.1734  0.2524  0.0093
  967SOL    HW1 5439   3.970   0.401   1.733  0.9607 -0.1790 -1.0077
  967SOL    HW2 5440   4.073   0.375   1.841  0.6832 -0.3533 -0.7859
  968SOL     OW 5441   1.271   1.672   9.070  0.0573  0.2316  0.1462
  968SOL    HW1 5442   1.267   1.609   9.142 -0.8181  0.3304  0.1875
  968SOL    HW2 5443   1.364   1.681   9.051  0.1921 -1.2317  0.0094
  969SOL     OW 5444   7.048   6.343   1.714  0.2329 -0.0943  0.6368
  969SOL    HW1 5445   7.088   6.279   1.773 -0.2234 -0.1386  0.9037
  969SOL    HW2 5446   7.100   6.422   1.727  0.1783 -0.1217  1.0527
  970SOL     OW 5447   1.910   6.197   9.398  0.4455 -0.0633  0.1054
  970SOL    HW1 5448   1.847   6.171   9.330  1.0230  2.6988 -1.5445
  970SOL    HW2 5449   1.858   6.244   9.463  0.5880  1.2239 -0.6931
  971SOL     OW 5450   8.088   2.920   7.539 -0.1234 -0.1080  0.4354
  971SOL    HW1 5451   8.039   2.909   7.457 -0.9664 -3.6580  1.3176
  971SOL    HW2 5452   8.171   2.874   7.523 -0.0862 -0.3824  1.3871
  972SOL     OW 5453   6.461   7.556   7.366  0.1594 -0.5859  0.0255
  972SOL    HW1 5454   6.368   7.553   7.343 -0.2200  1.8252  1.1706
  972SOL    HW2 5455   6.462   7.578   7.459  1.8975  2.1584 -0.5928
  973SOL     OW 5456   3.684   9.791   8.719 -0.3482  0.0137 -0.6229
  973SOL    HW1 5457   3.661   9.707   8.679  1.3461  0.0711 -1.7601
  973SOL    HW2 5458   3.613   9.808   8.780 -1.1827 -1.8093 -1.0401
  974SOL     OW 5459  10.151   9.881   3.519 -0.3120  0.0589  0.5596
  974SOL    HW1 5460  10.172   9.958   3.466 -1.5080 -0.5611 -0.8334
  974SOL    HW2 5461  10.218   9.817   3.496 -0.2935  0.1011  0.4957
  975SOL     OW 5462   4.624   6.817  10.149 -0.4138 -0.3040 -0.2431
  975SOL    HW1 5463   4.585   6.883  10.091 -0.3648 -1.5049 -1.6690
  975SOL    HW2 5464   4.680   6.765  10.091  0.1330 -1.1221  1.0164
  976SOL     OW 5465   6.233   6.893   3.446  0.2403  0.4106 -0.5727
  976SOL    HW1 5466   6.264   6.957   3.382  1.2290  1.7981  1.2506
  976SOL    HW2 5467   6.293   6.902   3.520 -2.5837  0.9569  1.7661
  977SOL     OW 5468   8.070   9.545   8.417  0.2279  0.3490 -0.2346
  977SOL    HW1 5469   8.074   9.474   8.352 -1.2341  0.9386 -1.0060
  977SOL    HW2 5470   8.161   9.565   8.437  0.7006  0.1452 -2.1056
  978SOL     OW 5471   3.264   9.351   7.155  0.2873 -0.3068 -0.2564
  978SOL    HW1 5472   3.180   9.313   7.180 -0.2993 -0.2703 -2.0515
  978SOL    HW2 5473   3.261   9.354   7.059  2.2093 -0.0080 -0.3321
  979SOL     OW 5474   0.811   8.161   6.742  0.7077 -0.6794 -1.0078
  979SOL    HW1 5475   0.744   8.144   6.808  1.8920 -0.1375  0.3576
  979SOL    HW2 5476   0.763   8.196   6.667 -0.6133 -0.9473 -0.2876
  980SOL     OW 5477   4.748   2.589   5.248 -0.1537  0.0486  0.0122
  980SOL    HW1 5478   4.797   2.508   5.264  1.0341  1.1363  2.1149
  980SOL    HW2 5479   4.805   2.658   5.281 -2.1385  1.5560  0.3790
  981SOL     OW 5480   1.878   1.194   6.903  0.0992 -0.1514  1.3051
  981SOL    HW1 5481   1.900   1.107   6.937 -1.8061 -0.6480  1.3511
  981SOL    HW2 5482   1.943   1.252   6.943  1.6996 -1.6123  0.8835
  982SOL     OW 5483   0.058   7.376  10.067 -0.6806 -0.7187 -0.0765
  982SOL    HW1 5484   0.012   7.388   9.984 -0.9911 -1.7615 -0.0654
  982SOL    HW2 5485   0.013   7.303  10.109 -0.3413 -0.3852  0.8820
  983SOL     OW 5486   4.003   6.337   2.811 -0.4704 -0.4212 -0.1043
  983SOL    HW1 5487   4.054   6.382   2.744  1.2818 -0.9001  0.8874
  983SOL    HW2 5488   3.992   6.403   2.880  1.3700 -1.2153  0.9765
  984SOL     OW 5489   6.580   1.607   1.416 -0.0625 -0.1224 -0.0974
  984SOL    HW1 5490   6.658   1.621   1.470 -0.2212 -1.2713  0.4569
  984SOL    HW2 5491   6.596   1.659   1.337  1.0891 -0.0252  0.1860
  985SOL     OW 5492   4.070   5.948   9.819  0.1352  0.1079  0.1636
  985SOL    HW1 5493   4.040   5.988   9.901  0.5537  0.7256  0.0158
  985SOL    HW2 5494   4.146   5.895   9.845 -0.1375 -0.2346  0.2797
  986SOL     OW 5495   1.535   1.513   1.460 -0.0668  0.2297 -0.2471
  986SOL    HW1 5496   1.560   1.448   1.526 -0.2800  0.5099  0.1126
  986SOL    HW2 5497   1.506   1.589   1.511 -0.1083  0.4950 -0.6646
  987SOL     OW 5498   9.801   0.637   9.740  0.6634  0.4941  0.5584
  987SOL    HW1 5499   9.733   0.657   9.804  0.3106  0.2278  0.2745
  987SOL    HW2 5500   9.805   0.541   9.739  1.7629  0.5262  1.3188
  988SOL     OW 5501   3.641   1.698   6.997 -0.0168 -0.5260 -0.5097
  988SOL    HW1 5502   3.590   1.779   6.996  0.2243 -0.2739  2.0488
  988SOL    HW2 5503   3.680   1.692   6.910 -1.4204  1.2139 -1.2841
  989SOL     OW 5504   0.927   8.736   7.386 -0.1687 -0.3698 -0.3218
  989SOL    HW1 5505   0.868   8.674   7.342 -3.2219  0.3949  2.4944
  989SOL    HW2 5506   0.890   8.822   7.366  2.1536  0.3980 -1.5008
  990SOL     OW 5507   6.121   9.069   1.783 -0.1953  0.3221  0.5446
  990SOL    HW1 5508   6.133   8.995   1.843  0.0467 -0.5822 -0.6082
  990SOL    HW2 5509   6.089   9.139   1.839  1.0202 -0.1940  1.9231
  991SOL     OW 5510   8.806   3.943   0.594  0.4604  0.2693 -0.3402
  991SOL    HW1 5511   8.890   3.898   0.590 -0.7666 -2.0042 -2.1668
  991SOL    HW2 5512   8.745   3.883   0.551 -1.9266  2.2518  0.1578
  992SOL     OW 5513   0.278   7.190   8.001 -0.0566  0.1739  0.4121
  992SOL    HW1 5514   0.328   7.108   7.994  0.8610  0.7818 -0.2198
  992SOL    HW2 5515   0.343   7.255   8.027 -0.7838  0.7114  0.8836
  993SOL     OW 5516   1.676   0.568   0.151  0.1044 -0.3163 -0.0209
  993SOL    HW1 5517   1.654   0.656   0.119  1.3505 -0.5515 -1.5804
  993SOL    HW2 5518   1.752   0.581   0.207  0.3682 -0.4043 -0.3543
  994SOL     OW 5519   9.987   6.627   0.043 -0.4984 -0.0282  0.0721
  994SOL    HW1 5520   9.921   6.631   0.113 -0.4057 -1.8384  0.2754
  994SOL    HW2 5521  10.011   6.535   0.038  3.0262  0.7576  0.9571
  995SOL     OW 5522   2.601   4.366   0.734  0.8565 -0.2234 -0.7149
  995SOL    HW1 5523   2.530   4.425   0.706  1.0240  0.7951  0.9361
  995SOL    HW2 5524   2.561   4.311   0.801  0.9655 -1.3626 -1.5714
  996SOL     OW 5525   8.294   2.146   1.560 -0.4801  0.6737 -0.1540
  996SOL    HW1 5526   8.380   2.141   1.602 -0.8416 -0.9722  0.4372
  996SOL    HW2 5527   8.311   2.136   1.467 -0.1294 -0.6574  0.0566
  997SOL     OW 5528   3.551   3.257   1.140  0.5688 -0.1295 -0.4948
  997SOL    HW1 5529   3.513   3.186   1.090  0.5287 -0.2816 -0.2499
  997SOL    HW2 5530   3.631   3.220   1.177  1.6241  0.5582 -2.0382
  998SOL     OW 5531   4.315   0.930   6.353  0.6911 -0.1933 -0.0456
  998SOL    HW1 5532   4.297   0.847   6.396 -1.2172 -0.6230 -1.5945
  998SOL    HW2 5533   4.363   0.982   6.418  1.9002 -2.4783  0.9380
  999SOL     OW 5534   9.759   4.051   0.486  0.2488 -0.3165  0.4853
  999SOL    HW1 5535   9.683   4.089   0.443  0.1605 -2.7193 -1.6372
  999SOL    HW2 5536   9.789   4.118   0.548 -2.3183  1.4639 -0.1422
 1000SOL     OW 5537   3.689   5.544   3.146 -0.4028 -0.1020 -0.2053
 1000SOL    HW1 5538   3.709   5.637   3.156  0.2244 -0.3346  0.7823
 1000SOL    HW2 5539   3.627   5.526   3.217  1.8531 -1.1179  1.5756
 1001SOL     OW 5540   6.153   9.910   9.093 -0.3720 -0.0628 -0.0375
 1001SOL    HW1 5541   6.143   9.941   9.183  1.2736 -0.8818  0.4525
 1001SOL    HW2 5542   6.248   9.907   9.080 -0.5998 -0.2802 -1.6823
 1002SOL     OW 5543   3.415   4.314   1.485 -0.1602  0.6373  0.7718
 1002SOL    HW1 5544   3.496   4.348   1.446 -1.6050  2.4498 -0.7361
 1002SOL    HW2 5545   3.350   4.382   1.469 -2.1799 -1.1178  1.2571
 1003SOL     OW 5546   7.567   6.558   3.589  0.2669  0.0321 -0.6447
 1003SOL    HW1 5547   7.488   6.529   3.542  0.3849  0.9923 -1.4423
 1003SOL    HW2 5548   7.595   6.637   3.543 -0.0979  1.4936  1.5652
 1004SOL     OW 5549   6.963   7.643   1.469 -0.4440  0.1879 -0.1026
 1004SOL    HW1 5550   6.988   7.683   1.552 -0.8144 -2.2366  1.2271
 1004SOL    HW2 5551   6.869   7.629   1.477  0.2811 -4.6881  1.2264
 1005SOL     OW 5552   7.819   2.323   9.784 -0.2749  0.0075 -0.1309
 1005SOL    HW1 5553   7.861   2.407   9.766 -1.9874  1.8300  3.9207
 1005SOL    HW2 5554   7.891   2.265   9.809  0.6479  0.9091 -0.6473
 1006SOL     OW 5555   4.997   5.661   8.155 -0.1911 -0.0682 -0.5846
 1006SOL    HW1 5556   4.993   5.566   8.143  1.5534 -0.4702  1.4900
 1006SOL    HW2 5557   5.042   5.694   8.078  0.6052 -1.1356 -0.5855
 1007SOL     OW 5558   6.296   1.657   3.852 -0.3514  0.1266 -0.1845
 1007SOL    HW1 5559   6.233   1.684   3.786 -2.0292  0.1813  1.4125
 1007SOL    HW2 5560   6.296   1.728   3.916  1.1021 -0.0137 -0.0090
 1008SOL     OW 5561   1.451   8.768   6.652  0.8429  0.2302 -0.1720
 1008SOL    HW1 5562   1.392   8.692   6.656  0.7729  0.2614 -0.6036
 1008SOL    HW2 5563   1.395   8.839   6.620  0.8573  0.5141  0.4294
 1009SOL     OW 5564   5.274   3.311   7.543 -0.5922 -0.4604  0.1683
 1009SOL    HW1 5565   5.229   3.239   7.586 -0.1777  0.3104  1.9515
 1009SOL    HW2 5566   5.246   3.389   7.591  1.1636  0.2398  0.1212
 1010SOL     OW 5567   7.345   8.926   0.979  0.6286  0.1628  0.3538
 1010SOL    HW1 5568   7.292   8.979   0.920 -0.9067 -1.0899  0.5774
 1010SOL    HW2 5569   7.406   8.879   0.921  1.8656  1.9678  0.1403
 1011SOL     OW 5570   4.839   3.862   1.722 -0.6717  0.2900 -0.2403
 1011SOL    HW1 5571   4.865   3.884   1.811 -0.8661 -1.0401  0.1648
 1011SOL    HW2 5572   4.908   3.897   1.667  0.7096 -1.0121  0.6272
 1012SOL     OW 5573   5.569   2.967   2.352 -0.3163  0.7361 -0.2665
 1012SOL    HW1 5574   5.547   2.986   2.443  0.7705  0.9864 -0.0460
 1012SOL    HW2 5575   5.486   2.943   2.311 -0.5577 -0.9471  1.1792
 1013SOL     OW 5576   7.662   2.216   4.683  0.4138  0.2379  0.1863
 1013SOL    HW1 5577   7.737   2.273   4.700  1.5792 -1.1782 -0.0643
 1013SOL    HW2 5578   7.690   2.129   4.714 -1.3191 -0.2079  0.5760
 1014SOL     OW 5579   4.539   4.662   6.917  0.2707  0.5003 -0.0775
 1014SOL    HW1 5580   4.559   4.749   6.883 -2.0245  0.2546 -2.2530
 1014SOL    HW2 5581   4.468   4.631   6.861  0.1257 -2.2234  1.5411
 1015SOL     OW 5582   4.300   5.412   0.587  0.3152  0.0066  0.2515
 1015SOL    HW1 5583   4.216   5.390   0.629 -0.3814 -0.7959 -1.5073
 1015SOL    HW2 5584   4.332   5.488   0.636 -2.5335  1.7473 -0.4170
 1016SOL     OW 5585   9.338   7.897   4.300  0.0835  0.0230 -0.1354
 1016SOL    HW1 5586   9.273   7.955   4.259  0.4965 -0.1749 -1.0871
 1016SOL    HW2 5587   9.289   7.849   4.367  0.0693  2.6523  1.8301
 1017SOL     OW 5588   1.869   6.046   7.798 -0.3097 -0.4292 -0.0997
 1017SOL    HW1 5589   1.811   6.036   7.873 -0.1117  2.0378  0.4048
 1017SOL    HW2 5590   1.851   6.134   7.765  1.3447 -0.5855 -1.4713
 1018SOL     OW 5591   4.131   1.239   8.185 -0.0679  0.1254 -0.4973
 1018SOL    HW1 5592   4.224   1.232   8.161 -0.2723  0.5863 -1.4611
 1018SOL    HW2 5593   4.114   1.333   8.185 -0.4740  0.0527 -0.0487
 1019SOL     OW 5594   1.382   4.171   5.146 -0.5469  0.4809 -0.0233
 1019SOL    HW1 5595   1.429   4.101   5.101 -0.8363  0.2885 -0.0238
 1019SOL    HW2 5596   1.416   4.251   5.106 -1.6478  0.2687 -1.4065
 1020SOL     OW 5597  10.097   6.199   2.333  0.1363  0.6083  0.8872
 1020SOL    HW1 5598  10.022   6.243   2.375 -0.5671 -0.2027  0.5062
 1020SOL    HW2 5599  10.074   6.196   2.240  0.1045 -0.6556  0.9184
 1021SOL     OW 5600   4.961   6.409   3.385  0.0355 -0.3670 -0.0364
 1021SOL    HW1 5601   4.914   6.327   3.370  0.4635 -0.3972 -1.2485
 1021SOL    HW2 5602   5.050   6.391   3.355  0.6416 -0.0589  1.4861
 1022SOL     OW 5603   0.493  10.178   6.954 -0.0485 -1.1606  0.1152
 1022SOL    HW1 5604   0.571  10.208   7.000 -0.8126 -0.8575  1.2208
 1022SOL    HW2 5605   0.503  10.211   6.865 -0.7441  2.1845  1.2132
 1023SOL     OW 5606   7.768   0.202   0.744  0.0443 -0.0600  0.0051
 1023SOL    HW1 5607   7.762   0.268   0.813  2.6671  0.1475  0.1021
 1023SOL    HW2 5608   7.804   0.125   0.788 -3.6200 -1.8847  0.0471
 1024SOL     OW 5609   3.832   6.131   4.177  0.4728 -0.2963 -0.0286
 1024SOL    HW1 5610   3.828   6.045   4.218  3.1467 -0.6185 -0.4069
 1024SOL    HW2 5611   3.841   6.192   4.251  0.8273 -0.5127  0.1051
 1025SOL     OW 5612   8.718   4.832   7.581  0.3461 -0.3654 -0.3802
 1025SOL    HW1 5613   8.682   4.745   7.600  1.5585 -0.4351  1.7615
 1025SOL    HW2 5614   8.789   4.817   7.519 -0.6405 -0.6839 -1.4405
 1026SOL     OW 5615   7.042   9.987   0.107 -0.2500  0.2370  0.6665
 1026SOL    HW1 5616   7.033  10.066   0.053  0.0117  1.2589  2.0980
 1026SOL    HW2 5617   7.127   9.997   0.150 -0.3866 -0.6535  1.1532
 1027SOL     OW 5618   3.006   8.426   8.131 -0.1522  0.9231  0.2278
 1027SOL    HW1 5619   2.937   8.393   8.188 -0.3603  0.7915 -0.1026
 1027SOL    HW2 5620   3.086   8.387   8.167 -0.2976  0.7401  0.3587
 1028SOL     OW 5621   5.153   0.302   7.000  0.4759 -0.2386 -0.3920
 1028SOL    HW1 5622   5.135   0.231   7.061  0.6696  0.1412  0.1136
 1028SOL    HW2 5623   5.249   0.304   6.994  0.5268  0.7774  0.5594
 1029SOL     OW 5624   1.857   8.968   9.319 -0.0349  0.2249  0.4184
 1029SOL    HW1 5625   1.811   9.052   9.314 -0.9557 -0.2989 -0.0338
 1029SOL    HW2 5626   1.811   8.912   9.256  1.0752 -0.3826  0.1350
 1030SOL     OW 5627   0.473   7.161   6.152 -0.5531  0.4169  0.2087
 1030SOL    HW1 5628   0.407   7.190   6.214 -0.6623  1.2037 -0.2689
 1030SOL    HW2 5629   0.553   7.206   6.180 -0.6781  1.0358 -0.4127
 1031SOL     OW 5630   8.160   6.861   7.913 -0.3680  0.8309  0.4941
 1031SOL    HW1 5631   8.132   6.952   7.902 -1.6352  0.3496 -0.3509
 1031SOL    HW2 5632   8.112   6.830   7.990  1.7483  1.5232  2.1348
 1032SOL     OW 5633   7.647   0.438   5.347  0.1450  0.4040  0.2999
 1032SOL    HW1 5634   7.736   0.467   5.369  0.2009  0.1201  0.4527
 1032SOL    HW2 5635   7.593   0.517   5.355  0.4443  0.6580 -0.1481
 1033SOL     OW 5636   0.410   9.035   3.975 -0.3436 -0.2247 -0.2143
 1033SOL    HW1 5637   0.483   9.034   3.913 -1.5352  0.7360 -1.6742
 1033SOL    HW2 5638   0.340   8.985   3.931 -1.8973  2.1750 -0.5616
 1034SOL     OW 5639   1.034  10.020   2.229 -0.0693  0.4733  0.6374
 1034SOL    HW1 5640   0.995  10.105   2.210 -0.1952  0.1458 -0.6234
 1034SOL    HW2 5641   1.059   9.985   2.143 -0.9451 -1.2012  1.0431
 1035SOL     OW 5642   0.572   0.895  10.168 -0.1616 -0.1199  0.2099
 1035SOL    HW1 5643   0.640   0.917  10.105  0.7574 -0.7219  0.9724
 1035SOL    HW2 5644   0.611   0.914  10.253 -1.3111  0.4923  0.6198
 1036SOL     OW 5645   2.934   6.483   5.336 -0.5930 -0.5765  0.6684
 1036SOL    HW1 5646   2.892   6.445   5.413 -0.5382 -1.2933  0.3497
 1036SOL    HW2 5647   2.942   6.410   5.274 -1.1192  0.1045 -0.2213
 1037SOL     OW 5648   1.974   7.607   0.303  0.4184  0.5043 -0.0001
 1037SOL    HW1 5649   1.972   7.530   0.246  3.1016  0.3340  0.0380
 1037SOL    HW2 5650   1.932   7.676   0.253  0.2654 -0.3454 -1.0548
 1038SOL     OW 5651   2.968   7.390   0.561  0.2801 -0.5644  0.3859
 1038SOL    HW1 5652   3.059   7.377   0.588  0.5000  0.1897  0.0004
 1038SOL    HW2 5653   2.973   7.423   0.472 -0.3703 -0.4705  0.3775
 1039SOL     OW 5654   0.574  10.168   1.299 -0.3503  0.7516 -0.2059
 1039SOL    HW1 5655   0.601  10.159   1.390  1.5678  0.8633 -0.7421
 1039SOL    HW2 5656   0.553  10.078   1.272 -3.0252  0.9886  0.9379
 1040SOL     OW 5657   6.257   6.150   4.348 -0.1709  0.3745  0.8723
 1040SOL    HW1 5658   6.278   6.228   4.400 -0.1872  0.3235  0.9543
 1040SOL    HW2 5659   6.325   6.087   4.372 -0.3467  0.2521  1.0455
 1041SOL     OW 5660   7.341   3.728   8.668  0.2378  0.3948 -0.5654
 1041SOL    HW1 5661   7.306   3.759   8.585  2.1692  0.5934 -1.3379
 1041SOL    HW2 5662   7.264   3.706   8.720 -1.0073  0.7152 -2.2324
 1042SOL     OW 5663   0.026   7.202   3.130  0.3401 -0.4296 -0.0987
 1042SOL    HW1 5664  -0.068   7.202   3.142  0.5391  0.7097  1.6540
 1042SOL    HW2 5665   0.039   7.179   3.038 -1.5583 -2.3772  0.0823
 1043SOL     OW 5666   6.335   2.872   6.499 -0.0268  0.5206  0.8043
 1043SOL    HW1 5667   6.278   2.932   6.451 -0.6525 -1.6038 -1.2053
 1043SOL    HW2 5668   6.329   2.789   6.451  0.4704 -1.2914  3.7586
 1044SOL     OW 5669  10.006   6.708   4.433 -0.2312 -0.3711 -0.3886
 1044SOL    HW1 5670   9.939   6.743   4.375 -0.0263  0.4696 -0.1222
 1044SOL    HW2 5671  10.068   6.663   4.375 -0.2077  0.1747 -0.7879
 1045SOL     OW 5672   1.097   5.255   0.565  0.0142  0.4698 -0.5045
 1045SOL    HW1 5673   1.053   5.267   0.481  0.8114  0.0477 -0.9891
 1045SOL    HW2 5674   1.182   5.216   0.543  1.1900  2.4517  0.2874
 1046SOL     OW 5675   7.082   4.193   8.153  0.0522 -0.0717  0.3240
 1046SOL    HW1 5676   7.055   4.120   8.097  2.4152 -1.3895  0.8192
 1046SOL    HW2 5677   7.160   4.229   8.109 -0.4367  1.4795  0.6711
 1047SOL     OW 5678   4.469   0.026   9.807  0.1724  0.1087 -0.1613
 1047SOL    HW1 5679   4.552   0.066   9.784  0.0123  0.6516  0.2012
 1047SOL    HW2 5680   4.493  -0.055   9.852  0.5277  1.0260  1.3379
 1048SOL     OW 5681   8.717   0.904   1.527  0.2738 -0.5125 -0.2852
 1048SOL    HW1 5682   8.718   0.815   1.560  1.2119 -0.0960  0.8238
 1048SOL    HW2 5683   8.779   0.903   1.454 -1.2650 -1.2508 -1.6340
 1049SOL     OW 5684   8.857   0.595   3.615 -0.4221  0.0072 -0.0519
 1049SOL    HW1 5685   8.834   0.502   3.620  0.9020 -0.4005 -1.1289
 1049SOL    HW2 5686   8.789   0.633   3.559 -1.1942 -0.2141  0.7105
 1050SOL     OW 5687   1.021   3.148   3.268 -0.2678  0.0956 -0.2575
 1050SOL    HW1 5688   1.116   3.159   3.266 -0.1756 -0.6252  0.0611
 1050SOL    HW2 5689   0.986   3.228   3.228  0.4652  0.4383 -0.2050
 1051SOL     OW 5690   8.615   4.196   4.213 -0.8726  0.0378 -0.1257
 1051SOL    HW1 5691   8.673   4.197   4.137 -1.1460 -1.0376 -0.3597
 1051SOL    HW2 5692   8.657   4.254   4.277  0.6973 -1.0817 -0.1174
 1052SOL     OW 5693   7.835   5.587   4.283 -0.3815  0.0740  0.2056
 1052SOL    HW1 5694   7.838   5.535   4.202  0.7994 -1.0562  0.9642
 1052SOL    HW2 5695   7.879   5.669   4.260 -0.0295 -0.2494 -0.2999
 1053SOL     OW 5696   6.481   6.938   4.514  0.2318 -0.4266  0.4938
 1053SOL    HW1 5697   6.449   6.874   4.578  2.6688 -1.9280  0.2536
 1053SOL    HW2 5698   6.520   7.008   4.568 -0.9352  0.0852  0.7041
 1054SOL     OW 5699   5.507   7.430   6.199 -0.2884  0.1370 -0.5282
 1054SOL    HW1 5700   5.518   7.355   6.140  1.6693 -0.2150  0.2493
 1054SOL    HW2 5701   5.422   7.415   6.241 -0.4791 -0.9967 -1.2914
 1055SOL     OW 5702   4.650   8.616   0.108 -0.4572  0.5265  0.3275
 1055SOL    HW1 5703   4.691   8.671   0.175 -0.3498  1.7927 -0.7532
 1055SOL    HW2 5704   4.559   8.608   0.135 -0.5956  1.6871  0.2220
 1056SOL     OW 5705   7.255   5.672   8.165 -0.0135  0.0841  0.1527
 1056SOL    HW1 5706   7.287   5.620   8.240 -0.9173  0.4208  0.7872
 1056SOL    HW2 5707   7.312   5.647   8.093  1.0639 -0.0339  1.0303
 1057SOL     OW 5708   1.420   8.716   1.335  0.0497 -0.1525 -0.3054
 1057SOL    HW1 5709   1.401   8.701   1.427 -0.6171 -1.1020 -0.5954
 1057SOL    HW2 5710   1.468   8.799   1.334  0.3388 -0.2949  0.9216
 1058SOL     OW 5711   0.040   3.845   3.360 -0.5936 -0.2459 -0.5130
 1058SOL    HW1 5712   0.125   3.888   3.370 -0.0299 -1.4832  0.0830
 1058SOL    HW2 5713  -0.023   3.905   3.400  0.0403  0.4990 -0.6288
 1059SOL     OW 5714   5.310   0.401   8.734 -0.0264  0.2744  0.0761
 1059SOL    HW1 5715   5.240   0.336   8.737 -0.1247  0.3983  0.4229
 1059SOL    HW2 5716   5.327   0.414   8.640 -1.3045  1.1420 -0.0440
 1060SOL     OW 5717   5.898   3.208   3.652 -0.2038 -0.0554  0.6158
 1060SOL    HW1 5718   5.856   3.198   3.737 -2.1491 -0.9926 -0.4259
 1060SOL    HW2 5719   5.828   3.193   3.589  1.8405 -2.3964 -1.1812
 1061SOL     OW 5720   3.562   4.684   9.837  0.6143 -0.3215  0.2863
 1061SOL    HW1 5721   3.612   4.667   9.757  2.6632  0.3938  1.3659
 1061SOL    HW2 5722   3.584   4.611   9.895  0.7150  0.1871  0.8999
 1062SOL     OW 5723   1.169   0.609   5.359  0.5760  0.2130 -0.3189
 1062SOL    HW1 5724   1.159   0.687   5.413 -0.5112 -0.7536  0.8979
 1062SOL    HW2 5725   1.080   0.586   5.332  0.8576 -0.7162 -0.4842
 1063SOL     OW 5726   1.728   6.941   9.046 -0.4732  0.4128 -0.0608
 1063SOL    HW1 5727   1.722   6.979   9.133 -3.0504  1.8102 -0.7729
 1063SOL    HW2 5728   1.643   6.960   9.006  0.3853 -0.8423 -2.6088
 1064SOL     OW 5729   8.140   7.993   2.799  0.2085  0.0321 -0.1801
 1064SOL    HW1 5730   8.140   8.088   2.799 -0.7591  0.0406 -0.4987
 1064SOL    HW2 5731   8.214   7.968   2.744  1.2072  0.5821  0.8782
 1065SOL     OW 5732   6.277   1.702   2.520 -0.6267 -0.4371  0.1742
 1065SOL    HW1 5733   6.331   1.773   2.555  0.2631 -0.5132 -1.0461
 1065SOL    HW2 5734   6.334   1.626   2.516 -1.0907 -0.7751 -0.1822
 1066SOL     OW 5735   2.114   7.795   0.814 -0.0733 -0.3639  0.5807
 1066SOL    HW1 5736   2.129   7.792   0.909 -0.2520 -2.3062  0.5746
 1066SOL    HW2 5737   2.025   7.832   0.806  0.1503  0.3143  1.1330
 1067SOL     OW 5738   5.145   6.004   8.912 -0.2978  0.0406 -0.5784
 1067SOL    HW1 5739   5.179   6.093   8.899 -1.1325  0.3545 -0.6901
 1067SOL    HW2 5740   5.221   5.947   8.901  0.7869  0.8875  2.0960
 1068SOL     OW 5741   6.057   0.305   0.557  0.4611 -0.1612  0.1341
 1068SOL    HW1 5742   6.131   0.362   0.538  0.6781 -0.4758  0.0408
 1068SOL    HW2 5743   6.022   0.338   0.640  1.8259 -1.1453  1.1175
 1069SOL     OW 5744   0.964   4.094   7.330  0.0114 -0.3809  0.0463
 1069SOL    HW1 5745   0.918   4.013   7.351 -0.2826  0.0557  1.1387
 1069SOL    HW2 5746   0.909   4.138   7.266  1.1291 -1.9465 -2.0236
 1070SOL     OW 5747   5.395   4.862   0.968 -0.1989  0.4672  0.2391
 1070SOL    HW1 5748   5.484   4.881   0.997 -0.2978  1.0126  0.1764
 1070SOL    HW2 5749   5.352   4.826   1.045 -0.4039  1.7247  0.7176
 1071SOL     OW 5750   5.356   6.738   4.049 -0.7895  0.3013 -0.0886
 1071SOL    HW1 5751   5.434   6.683   4.044 -1.1895 -0.4361  1.6651
 1071SOL    HW2 5752   5.303   6.710   3.975  0.4326  0.5541 -1.0868
 1072SOL     OW 5753   4.247   0.896   9.355  0.4292  0.2386 -0.5923
 1072SOL    HW1 5754   4.215   0.829   9.294 -0.3211  0.2660 -0.2375
 1072SOL    HW2 5755   4.167   0.935   9.391  0.8707 -0.4608  1.1620
 1073SOL     OW 5756   7.940   1.135   1.933  0.6509 -0.0739  0.0706
 1073SOL    HW1 5757   7.928   1.130   2.027  1.4158  0.1380  0.1819
 1073SOL    HW2 5758   8.028   1.101   1.918  0.7771  0.4968 -0.4987
 1074SOL     OW 5759   5.061  10.068   7.067  0.0825 -0.3292  0.1903
 1074SOL    HW1 5760   5.101  10.101   6.986  0.1503  2.3883  1.2634
 1074SOL    HW2 5761   5.125  10.005   7.101  1.4178  0.6947 -0.3798
 1075SOL     OW 5762   4.953  10.030   9.282 -0.2999  0.3233 -0.1945
 1075SOL    HW1 5763   4.943  10.118   9.317 -2.2074  0.8050 -1.8482
 1075SOL    HW2 5764   4.864  10.000   9.265  0.3747 -1.4915 -0.6844
 1076SOL     OW 5765   4.140   8.037   6.125  0.1813 -0.1945  0.1209
 1076SOL    HW1 5766   4.223   8.068   6.163  0.4377  0.1551 -0.7194
 1076SOL    HW2 5767   4.166   7.989   6.047 -0.3896 -0.3916  0.0545
 1077SOL     OW 5768   3.970   8.429   5.380 -0.1832  0.1840  0.0559
 1077SOL    HW1 5769   3.935   8.354   5.333 -0.6052  1.1366 -1.1605
 1077SOL    HW2 5770   3.976   8.399   5.471  0.4395 -1.5947 -0.5463
 1078SOL     OW 5771   0.886   4.061   4.859  0.7427 -0.3250 -0.0533
 1078SOL    HW1 5772   0.852   4.094   4.775 -1.1747 -0.2371  0.7235
 1078SOL    HW2 5773   0.939   3.985   4.835  0.5179 -0.0823 -1.3816
 1079SOL     OW 5774   2.724   3.701   6.761  0.6718 -0.2514 -0.0141
 1079SOL    HW1 5775   2.755   3.642   6.830 -2.3781 -1.1124  0.7174
 1079SOL    HW2 5776   2.644   3.739   6.796  1.2682  2.4897 -1.4791
 1080SOL     OW 5777   3.305   2.625   6.072  0.5442  0.2016 -0.2593
 1080SOL    HW1 5778   3.387   2.658   6.035  0.0895  1.0475 -0.5284
 1080SOL    HW2 5779   3.291   2.679   6.150  1.0974 -1.0556  0.7281
 1081SOL     OW 5780   7.857   9.771   3.434  0.2838  0.2576 -0.0290
 1081SOL    HW1 5781   7.917   9.779   3.360 -1.5987  1.6544 -1.4505
 1081SOL    HW2 5782   7.801   9.697   3.411  1.2027 -0.8433  1.1541
 1082SOL     OW 5783   6.450   2.087   6.283 -0.8814 -0.4626  0.5207
 1082SOL    HW1 5784   6.460   2.030   6.206  1.9727  1.3544 -0.5670
 1082SOL    HW2 5785   6.387   2.154   6.255  0.9544  0.8104 -0.6832
 1083SOL     OW 5786   6.505   4.544   8.493 -0.0666 -0.0286  0.1718
 1083SOL    HW1 5787   6.439   4.483   8.529 -1.5668  1.4332 -0.0390
 1083SOL    HW2 5788   6.470   4.568   8.407  1.7415 -0.7520 -0.7823
 1084SOL     OW 5789   5.962   8.602   2.375 -0.1904 -0.0868  0.1590
 1084SOL    HW1 5790   5.978   8.691   2.343  1.0380 -0.1281  0.6515
 1084SOL    HW2 5791   6.048   8.560   2.374 -0.9431 -1.6485 -1.2007
 1085SOL     OW 5792   7.169   7.493   0.803  0.4023 -0.6302  0.2080
 1085SOL    HW1 5793   7.117   7.503   0.883  0.0303  2.5189 -0.3283
 1085SOL    HW2 5794   7.253   7.459   0.832 -0.1781 -0.7435  1.7799
 1086SOL     OW 5795   9.080  10.064   4.710 -0.1492 -0.0297  0.0361
 1086SOL    HW1 5796   9.106  10.155   4.695 -1.6032  0.6386  1.4627
 1086SOL    HW2 5797   9.152  10.013   4.673  0.8332  1.6855 -0.5221
 1087SOL     OW 5798   3.765   3.428   1.369  0.1983 -0.0941 -0.2244
 1087SOL    HW1 5799   3.689   3.372   1.385 -2.1050  2.9079 -0.4161
 1087SOL    HW2 5800   3.832   3.393   1.428 -2.0801 -1.2775  1.7872
 1088SOL     OW 5801   3.453   7.499   8.231 -0.5272  0.1984 -0.2448
 1088SOL    HW1 5802   3.462   7.440   8.155 -0.6188 -0.8032  0.5108
 1088SOL    HW2 5803   3.457   7.441   8.307 -1.4178  1.0785  0.4914
 1089SOL     OW 5804   9.834   1.371   4.478  0.5432 -0.1148  0.1716
 1089SOL    HW1 5805   9.864   1.462   4.482  0.3502 -0.0188 -0.6105
 1089SOL    HW2 5806   9.744   1.374   4.509  0.3137  0.0634 -0.5068
 1090SOL     OW 5807   3.201   8.431   2.873  0.2569 -0.4508  0.9545
 1090SOL    HW1 5808   3.205   8.366   2.803 -0.3227 -1.0699  1.4870
 1090SOL    HW2 5809   3.184   8.380   2.952  2.0661  0.1225  1.7277
 1091SOL     OW 5810   0.662   3.204   8.763 -0.1623  0.4503 -0.2960
 1091SOL    HW1 5811   0.736   3.262   8.781  0.4206 -0.1019 -0.8966
 1091SOL    HW2 5812   0.588   3.245   8.808  0.2065  1.7524 -0.8635
 1092SOL     OW 5813   6.936   4.181   1.341  0.3700 -0.4670  0.0446
 1092SOL    HW1 5814   6.947   4.235   1.419  1.4461  1.4081 -1.3538
 1092SOL    HW2 5815   6.864   4.223   1.293 -0.1938 -1.5208 -0.0413
 1093SOL     OW 5816   4.576   5.676   3.546 -0.1258 -0.6917 -0.1461
 1093SOL    HW1 5817   4.670   5.680   3.562  0.0984 -0.0810 -1.5395
 1093SOL    HW2 5818   4.563   5.590   3.505  0.1760  0.1427 -2.0395
 1094SOL     OW 5819   0.272   9.403   2.222 -0.7455  0.3968 -0.1067
 1094SOL    HW1 5820   0.211   9.388   2.150 -0.3979  1.0068 -0.5344
 1094SOL    HW2 5821   0.352   9.433   2.179 -0.4497  0.4994  0.5152
 1095SOL     OW 5822   7.410   6.127  10.145 -0.7594 -0.5627 -0.4260
 1095SOL    HW1 5823   7.384   6.059  10.082 -1.1046 -0.1653 -0.7157
 1095SOL    HW2 5824   7.505   6.130  10.139 -0.9042  1.0706 -2.6315
 1096SOL     OW 5825   5.812   3.092   6.374 -0.5434  0.2731  0.1185
 1096SOL    HW1 5826   5.827   3.109   6.467 -0.9539  1.6200 -0.0506
 1096SOL    HW2 5827   5.768   3.007   6.372 -1.4387  0.6921  1.2228
 1097SOL     OW 5828   0.281   0.115   7.053  0.0096 -0.0670  0.1002
 1097SOL    HW1 5829   0.200   0.066   7.067 -0.0244  0.2976  1.2269
 1097SOL    HW2 5830   0.341   0.051   7.013 -0.6492 -0.4934 -0.2103
 1098SOL     OW 5831   4.405   1.278   8.337 -0.0145  0.2549 -0.4620
 1098SOL    HW1 5832   4.417   1.338   8.410  2.6437  1.2285 -1.6489
 1098SOL    HW2 5833   4.407   1.191   8.377  0.8800  0.7931  0.6925
 1099SOL     OW 5834   5.716   6.636   2.030  0.2327 -0.5419 -0.1089
 1099SOL    HW1 5835   5.678   6.668   2.112  0.5064 -0.6697  0.0688
 1099SOL    HW2 5836   5.663   6.560   2.007  1.8227 -2.1215  1.3600
 1100SOL     OW 5837   6.151   8.292   3.824 -0.4169  0.0770  0.4977
 1100SOL    HW1 5838   6.155   8.253   3.911  0.2418  0.1418  0.4989
 1100SOL    HW2 5839   6.171   8.220   3.764 -3.4466 -0.5813  0.2238
 1101SOL     OW 5840   1.367   4.409   7.531 -0.2792 -0.0268  0.0625
 1101SOL    HW1 5841   1.377   4.426   7.625 -1.4949  1.6461 -0.0839
 1101SOL    HW2 5842   1.383   4.494   7.490 -2.6998 -0.0376 -1.0026
 1102SOL     OW 5843   7.354   4.287   9.330  0.0073 -0.4321 -0.3416
 1102SOL    HW1 5844   7.355   4.354   9.262 -1.3841 -2.1670 -2.1441
 1102SOL    HW2 5845   7.333   4.333   9.411 -0.7415  1.3097 -1.5188
 1103SOL     OW 5846   3.134   4.161   4.873  0.2136 -0.0346  0.4678
 1103SOL    HW1 5847   3.171   4.234   4.922  2.2207  0.0409 -1.1346
 1103SOL    HW2 5848   3.196   4.089   4.887  0.7525 -0.0467 -1.8476
 1104SOL     OW 5849   2.537   4.907   8.479 -0.4535  0.3979  0.0675
 1104SOL    HW1 5850   2.613   4.884   8.532  0.4793  0.9735 -1.0116
 1104SOL    HW2 5851   2.469   4.845   8.508  0.3551 -0.0013  1.1616
 1105SOL     OW 5852   6.496   1.553   8.811  0.4457 -0.1106  0.1312
 1105SOL    HW1 5853   6.510   1.571   8.904  0.4656 -0.5718  0.2226
 1105SOL    HW2 5854   6.556   1.480   8.792  1.7606  1.1466 -0.6796
 1106SOL     OW 5855   7.293   0.352   8.634  0.3641 -0.4206  0.2644
 1106SOL    HW1 5856   7.331   0.394   8.712 -0.4943 -0.6525  0.8115
 1106SOL    HW2 5857   7.291   0.259   8.656  2.6041 -0.8333 -1.0917
 1107SOL     OW 5858   0.537   2.353   6.574  0.0645 -0.5706  0.2210
 1107SOL    HW1 5859   0.592   2.423   6.610 -2.7926  0.8756  1.9390
 1107SOL    HW2 5860   0.577   2.273   6.606  1.3070  0.4424  1.2875
 1108SOL     OW 5861   3.175   4.098   6.575 -0.0107 -1.1555 -0.2466
 1108SOL    HW1 5862   3.213   4.165   6.518 -1.5414 -0.4626 -0.4734
 1108SOL    HW2 5863   3.250   4.058   6.618  0.8351  1.9893  1.3395
 1109SOL     OW 5864   3.626   7.350   5.219  0.1110  0.1009 -0.7235
 1109SOL    HW1 5865   3.693   7.285   5.243 -0.8692 -0.6176  0.1260
 1109SOL    HW2 5866   3.563   7.301   5.166 -0.6876  0.3312  0.0029
 1110SOL     OW 5867   2.639   7.093   8.138 -0.6554  0.1202 -0.0598
 1110SOL    HW1 5868   2.731   7.105   8.113 -0.1434 -0.1257  1.6286
 1110SOL    HW2 5869   2.628   6.999   8.144 -1.3415  0.1082 -1.3700
 1111SOL     OW 5870   8.577   8.957   2.238  0.0811 -0.0605  0.3496
 1111SOL    HW1 5871   8.487   8.991   2.233 -0.2968 -1.0911 -0.1191
 1111SOL    HW2 5872   8.627   9.014   2.180 -0.5457 -0.2872 -0.4348
 1112SOL     OW 5873   3.285   0.548   3.868 -0.3007  0.4175  0.4837
 1112SOL    HW1 5874   3.357   0.486   3.880 -1.2929 -0.6453  1.0493
 1112SOL    HW2 5875   3.219   0.521   3.932 -1.6212  0.7279 -0.7220
 1113SOL     OW 5876   5.382   8.726   5.719 -0.0484  0.0115  0.0255
 1113SOL    HW1 5877   5.344   8.750   5.635  2.2082  2.4506 -0.3852
 1113SOL    HW2 5878   5.390   8.631   5.716 -1.0474 -0.0300 -2.0296
 1114SOL     OW 5879   9.783   3.884   5.842  0.5558 -0.6937 -0.1914
 1114SOL    HW1 5880   9.750   3.844   5.923  0.0709  0.7088  0.3230
 1114SOL    HW2 5881   9.810   3.972   5.868  2.0827 -0.8485 -1.1996
 1115SOL     OW 5882   1.957   8.038   7.893 -0.3284 -0.1799  0.3137
 1115SOL    HW1 5883   1.906   8.109   7.852  0.2388  0.0395 -0.0190
 1115SOL    HW2 5884   1.900   8.005   7.963 -0.4230  0.9044  0.7645
 1116SOL     OW 5885   5.937   0.829   7.572  0.5874 -0.4068 -0.5843
 1116SOL    HW1 5886   5.966   0.861   7.486 -0.6002  1.0435 -0.4599
 1116SOL    HW2 5887   5.937   0.906   7.628 -1.6267 -0.7190 -0.0864
 1117SOL     OW 5888   9.029   3.381   0.024 -0.3486  0.2032  0.3515
 1117SOL    HW1 5889   9.094   3.424  -0.032 -0.1007 -0.4654  0.1105
 1117SOL    HW2 5890   8.980   3.325  -0.037  0.5378 -1.2463  0.9555
 1118SOL     OW 5891   2.171  10.188   1.264  0.2044  0.7238  0.1096
 1118SOL    HW1 5892   2.135  10.131   1.195  0.2100  0.4943  0.2967
 1118SOL    HW2 5893   2.224  10.252   1.216  1.2373 -0.2011 -0.0051
 1119SOL     OW 5894   3.111   0.866   1.945  0.3767  0.1281 -0.4378
 1119SOL    HW1 5895   3.122   0.929   1.874  2.1216 -0.7787 -1.0065
 1119SOL    HW2 5896   3.199   0.831   1.959  0.2465  1.0160  2.8738
 1120SOL     OW 5897   7.949   3.123   6.792 -0.1963  0.1572  0.0228
 1120SOL    HW1 5898   8.020   3.105   6.853  0.9965 -2.3473 -2.0159
 1120SOL    HW2 5899   7.976   3.203   6.747 -0.4828  1.2925  1.8130
 1121SOL     OW 5900   7.572   7.625   1.977 -0.0102  0.3330  0.1127
 1121SOL    HW1 5901   7.538   7.561   1.914  0.6429 -1.4996  1.5503
 1121SOL    HW2 5902   7.662   7.642   1.949  0.1610 -0.2097  0.3165
 1122SOL     OW 5903   8.917   3.266   0.246  0.3489 -0.1418  0.2168
 1122SOL    HW1 5904   8.830   3.239   0.218  0.9725 -2.6504  0.5797
 1122SOL    HW2 5905   8.963   3.288   0.165 -0.0776 -0.5393 -0.1335
 1123SOL     OW 5906   2.674   6.833   0.226 -0.0578  0.2436 -0.6535
 1123SOL    HW1 5907   2.678   6.892   0.151 -0.2603  0.8427 -0.2035
 1123SOL    HW2 5908   2.588   6.849   0.265  0.4817  0.7678  0.3601
 1124SOL     OW 5909   7.258   6.766   7.815  0.7833 -0.7796 -0.1914
 1124SOL    HW1 5910   7.220   6.803   7.736 -2.7369 -2.5170  0.5751
 1124SOL    HW2 5911   7.247   6.834   7.881 -1.4217 -1.3969  0.1070
 1125SOL     OW 5912   4.577   9.087   2.468  0.3104 -0.2971  0.6531
 1125SOL    HW1 5913   4.491   9.058   2.441  0.7180 -0.9617  0.0479
 1125SOL    HW2 5914   4.638   9.029   2.421  1.1840  2.4783 -1.8570
 1126SOL     OW 5915   6.096   4.370   1.841  0.5040  0.1322  0.2618
 1126SOL    HW1 5916   6.014   4.376   1.889  0.9536 -0.1138  1.0771
 1126SOL    HW2 5917   6.103   4.278   1.816  0.2914  0.2508 -0.2446
 1127SOL     OW 5918   3.338   9.847   7.951 -0.0923 -0.1582 -0.2537
 1127SOL    HW1 5919   3.290   9.833   7.869  0.2458 -2.2388 -0.1176
 1127SOL    HW2 5920   3.430   9.834   7.927  0.1837  1.1922  0.0483
 1128SOL     OW 5921   0.683   3.245   1.270 -0.0757  0.4194  0.0268
 1128SOL    HW1 5922   0.762   3.194   1.252  1.0192  2.3761 -0.8945
 1128SOL    HW2 5923   0.628   3.231   1.193  0.1333  0.4804 -0.1341
 1129SOL     OW 5924   3.185   4.129   4.034 -0.6059  0.2992  0.5403
 1129SOL    HW1 5925   3.165   4.082   4.115  0.7207  1.5633  1.6224
 1129SOL    HW2 5926   3.099   4.146   3.994 -1.2242 -0.8806  1.3476
 1130SOL     OW 5927   6.633   1.189   3.355 -0.2365 -0.0676 -0.1459
 1130SOL    HW1 5928   6.630   1.137   3.435  0.4585 -0.0308 -0.0916
 1130SOL    HW2 5929   6.692   1.141   3.297  0.4538  0.6832 -0.0735
 1131SOL     OW 5930   4.098   5.267   9.263  0.6046  0.1664 -0.0784
 1131SOL    HW1 5931   4.077   5.204   9.332 -1.8941  2.2416  1.1181
 1131SOL    HW2 5932   4.192   5.283   9.274  0.4506 -0.2841  2.2232
 1132SOL     OW 5933   4.934   6.720   2.994 -0.8343 -0.1513  0.0924
 1132SOL    HW1 5934   4.865   6.699   3.057 -1.4125  0.2841 -0.3982
 1132SOL    HW2 5935   4.914   6.666   2.918 -0.6665  0.0233 -0.0758
 1133SOL     OW 5936   0.641   0.215   9.813  0.3104  0.1802  0.1951
 1133SOL    HW1 5937   0.666   0.179   9.898 -1.3602  0.4068  0.8107
 1133SOL    HW2 5938   0.575   0.282   9.834 -2.2168 -1.7219 -1.4406
 1134SOL     OW 5939   8.231   0.506   0.191 -0.1708  0.0257  0.2389
 1134SOL    HW1 5940   8.163   0.462   0.141 -0.2504  0.1348  0.2527
 1134SOL    HW2 5941   8.312   0.463   0.163  0.1394  2.1326 -2.2286
 1135SOL     OW 5942   2.077   9.073   8.802  0.1696 -0.4957  0.2061
 1135SOL    HW1 5943   1.982   9.063   8.798  0.2014 -2.5538  2.7222
 1135SOL    HW2 5944   2.104   9.094   8.713 -2.5091 -1.1307 -0.7821
 1136SOL     OW 5945   6.134   8.678   3.982  0.3440  0.3730  0.0629
 1136SOL    HW1 5946   6.066   8.619   3.949  1.4338 -0.1058 -1.3969
 1136SOL    HW2 5947   6.190   8.623   4.036  0.6172  0.3703 -0.2248
 1137SOL     OW 5948   3.636   2.466   2.365 -0.2984  0.8526  0.2463
 1137SOL    HW1 5949   3.678   2.429   2.443  0.2817 -0.0241 -0.4632
 1137SOL    HW2 5950   3.708   2.500   2.313 -0.8441  3.1757  0.9599
 1138SOL     OW 5951   1.527   9.632  10.151 -0.1290  0.5479  0.3724
 1138SOL    HW1 5952   1.450   9.662  10.200 -0.4142  1.7174 -0.7760
 1138SOL    HW2 5953   1.596   9.627  10.217 -1.0941 -0.1769  1.3501
 1139SOL     OW 5954   3.042   8.489   1.685 -0.3986 -0.0090 -0.6483
 1139SOL    HW1 5955   3.030   8.424   1.616 -0.0882  1.1290 -1.7810
 1139SOL    HW2 5956   3.084   8.563   1.642  0.4498  0.4437  0.9148
 1140SOL     OW 5957   8.880   6.744   9.929 -0.3817 -0.5532 -0.4051
 1140SOL    HW1 5958   8.951   6.760   9.991  0.8517 -1.3527 -1.5773
 1140SOL    HW2 5959   8.848   6.656   9.950  1.3797 -1.6540 -2.1447
 1141SOL     OW 5960   9.664   0.077   5.419  0.5236  0.3157  0.0036
 1141SOL    HW1 5961   9.572   0.051   5.415  0.3908  0.2628  2.5865
 1141SOL    HW2 5962   9.692   0.082   5.327 -1.8205 -0.4501 -0.7789
 1142SOL     OW 5963   0.855   5.759   8.696  0.4517  0.0163 -0.0479
 1142SOL    HW1 5964   0.875   5.751   8.790 -1.1405 -0.1627  0.2845
 1142SOL    HW2 5965   0.760   5.751   8.691  0.6655 -1.5687 -1.8598
 1143SOL     OW 5966   6.054   6.330   2.723 -0.5063 -0.6826  0.6951
 1143SOL    HW1 5967   6.083   6.359   2.636 -0.8481 -0.4879  0.6459
 1143SOL    HW2 5968   6.004   6.404   2.758 -1.4163 -1.2194  0.5529
 1144SOL     OW 5969   0.381   5.635   7.929 -0.5864 -0.4442 -0.1931
 1144SOL    HW1 5970   0.341   5.566   7.876 -1.8393  0.1275  0.0087
 1144SOL    HW2 5971   0.308   5.690   7.956  0.1045 -0.4528  1.7454
 1145SOL     OW 5972   6.103   1.498   0.592  0.3074 -0.0128 -0.0668
 1145SOL    HW1 5973   6.180   1.551   0.569 -0.7428  2.3418  1.6120
 1145SOL    HW2 5974   6.040   1.517   0.522 -1.0634  3.2081  1.9346
 1146SOL     OW 5975   5.569   7.668   9.979 -0.2902 -0.4921  0.1627
 1146SOL    HW1 5976   5.585   7.579   9.948  0.3882 -0.6041  0.8263
 1146SOL    HW2 5977   5.568   7.661  10.075  2.5943  0.6562  0.3440
 1147SOL     OW 5978   4.490   4.885   9.866  0.0694 -0.3456 -0.1789
 1147SOL    HW1 5979   4.466   4.961   9.919 -2.1110  1.1975 -3.2277
 1147SOL    HW2 5980   4.584   4.894   9.851  0.2294  0.5281  1.2771
 1148SOL     OW 5981   9.973   7.076   5.247  0.4640 -0.2576  0.0770
 1148SOL    HW1 5982   9.916   7.005   5.277  0.7148 -0.3924  0.2362
 1148SOL    HW2 5983  10.049   7.072   5.306  0.1246  0.6387  0.5828
 1149SOL     OW 5984   5.582   8.511   7.326  0.1229 -0.2633 -0.3669
 1149SOL    HW1 5985   5.575   8.587   7.269 -0.4329 -0.7759 -0.9786
 1149SOL    HW2 5986   5.604   8.547   7.412  1.8149  0.4470 -1.0884
 1150SOL     OW 5987   8.007   6.913   5.906 -1.0682  0.4207  0.1843
 1150SOL    HW1 5988   7.973   7.001   5.921  0.8092  1.1754  0.1875
 1150SOL    HW2 5989   7.970   6.886   5.822 -2.4799  0.7893  0.6813
 1151SOL     OW 5990   8.914   4.256   4.927 -0.3353  0.1973  0.0000
 1151SOL    HW1 5991   8.900   4.180   4.983 -0.5009 -0.9269 -1.5329
 1151SOL    HW2 5992   8.888   4.331   4.981 -0.0048 -0.8073  1.5821
 1152SOL     OW 5993   2.398   8.421   2.106 -0.3732  0.7392 -0.2924
 1152SOL    HW1 5994   2.379   8.328   2.119  0.7540  0.7306  1.5859
 1152SOL    HW2 5995   2.312   8.462   2.095 -0.8621 -0.5552 -1.4677
 1153SOL     OW 5996   7.708   4.770   5.951 -0.1261  0.4395 -0.4033
 1153SOL    HW1 5997   7.727   4.681   5.981 -1.8111  0.6183  1.2657
 1153SOL    HW2 5998   7.679   4.759   5.861 -0.8333 -0.7811 -0.0367
 1154SOL     OW 5999   9.832   1.759   5.957  0.3548  0.1583 -0.2416
 1154SOL    HW1 6000   9.837   1.838   6.010  1.7041  0.2754 -0.5463
 1154SOL    HW2 6001   9.753   1.770   5.905  0.5078  1.2681 -0.2373
 1155SOL     OW 6002   3.194   2.813   4.632  0.7004 -0.1321  0.7862
 1155SOL    HW1 6003   3.242   2.786   4.554 -0.3605  2.9714 -1.0182
 1155SOL    HW2 6004   3.261   2.832   4.697  1.5941 -2.6450  0.6553
 1156SOL     OW 6005   7.289   2.748   5.344  0.7035 -0.5898 -0.1111
 1156SOL    HW1 6006   7.220   2.810   5.366  2.9363  0.9150  3.1186
 1156SOL    HW2 6007   7.350   2.798   5.290  1.3204 -0.6405  0.5251
 1157SOL     OW 6008   1.971   4.783   7.541 -0.0779  0.3222 -0.0125
 1157SOL    HW1 6009   2.017   4.815   7.619 -0.7146  2.6033 -0.5398
 1157SOL    HW2 6010   2.024   4.710   7.511  1.5104  0.9561  1.1632
 1158SOL     OW 6011   8.212   0.671   1.726 -0.2675 -0.2374 -0.9762
 1158SOL    HW1 6012   8.161   0.752   1.732 -0.2655 -0.3893  1.7946
 1158SOL    HW2 6013   8.275   0.688   1.656  0.8143  2.8105  0.6607
 1159SOL     OW 6014   8.011   5.826   2.488 -0.6832 -0.1999 -0.2451
 1159SOL    HW1 6015   7.927   5.792   2.458 -1.1493  1.2682 -0.6534
 1159SOL    HW2 6016   7.987   5.903   2.541  0.4481  0.9216 -1.3310
 1160SOL     OW 6017   2.825   4.717   2.459  0.7464  0.1214  0.0784
 1160SOL    HW1 6018   2.822   4.728   2.554  1.0803  1.2560 -0.0370
 1160SOL    HW2 6019   2.759   4.779   2.426  2.0792  1.2206 -0.5455
 1161SOL     OW 6020   3.217   2.375   9.959 -0.1947  0.1365  0.1633
 1161SOL    HW1 6021   3.299   2.326   9.955  0.2489  0.9015 -0.1100
 1161SOL    HW2 6022   3.203   2.391  10.052 -0.6594 -1.0451  0.3007
 1162SOL     OW 6023   5.922   7.699  10.081  0.0666 -0.5813  0.1822
 1162SOL    HW1 6024   5.964   7.615  10.060  1.7556  0.3080 -0.0598
 1162SOL    HW2 6025   5.892   7.689  10.171  1.3326 -1.0298  0.5674
 1163SOL     OW 6026   0.017   2.779   8.413 -0.1084  0.0043  0.6499
 1163SOL    HW1 6027   0.027   2.842   8.342  0.8790  1.2931  1.9177
 1163SOL    HW2 6028  -0.057   2.724   8.386  1.0384 -0.3264 -1.9591
 1164SOL     OW 6029   0.099   5.538   2.923  0.2435  0.3994  0.0835
 1164SOL    HW1 6030   0.107   5.489   3.005 -0.1911  0.5865  0.2428
 1164SOL    HW2 6031   0.070   5.625   2.950 -0.8087  0.1856 -0.3422
 1165SOL     OW 6032   7.445   3.996   8.951 -0.0250  0.3810  0.2584
 1165SOL    HW1 6033   7.497   4.001   8.870  1.2116  0.5382  1.0542
 1165SOL    HW2 6034   7.474   4.070   9.003 -0.9925  0.4095  0.7638
 1166SOL     OW 6035   5.562   7.040   0.625  0.5375 -0.4022 -0.0379
 1166SOL    HW1 6036   5.500   7.039   0.553 -1.6120 -0.6274  1.7696
 1166SOL    HW2 6037   5.534   7.113   0.680  1.2647 -1.1248  1.3160
 1167SOL     OW 6038   5.224   5.319   6.873 -0.3887  0.0040  0.5109
 1167SOL    HW1 6039   5.289   5.293   6.807 -0.7350  0.0253  0.1523
 1167SOL    HW2 6040   5.237   5.413   6.884  1.5807 -0.4782  2.5981
 1168SOL     OW 6041   2.916   4.335   7.963  0.0371  0.0513 -0.4742
 1168SOL    HW1 6042   2.916   4.251   7.917 -0.1628 -1.0332  1.4204
 1168SOL    HW2 6043   2.869   4.317   8.044 -0.5989  2.1876 -0.3473
 1169SOL     OW 6044   3.516   4.695   5.527  0.2819  0.0849  0.0372
 1169SOL    HW1 6045   3.564   4.778   5.536  0.6135 -0.0162 -0.7070
 1169SOL    HW2 6046   3.550   4.640   5.597 -0.2470  0.7205  0.8040
 1170SOL     OW 6047   8.799   8.242   2.185  0.4221 -0.2736  0.6688
 1170SOL    HW1 6048   8.793   8.201   2.271 -0.9160  0.6099  1.0032
 1170SOL    HW2 6049   8.887   8.280   2.183  0.7441 -0.9650  1.3320
 1171SOL     OW 6050   1.293   8.045   5.033 -0.0592 -0.0115  0.2417
 1171SOL    HW1 6051   1.270   7.955   5.056 -0.4458 -0.1223 -0.5761
 1171SOL    HW2 6052   1.254   8.098   5.103  1.1722 -0.5581  1.3716
 1172SOL     OW 6053   8.736   4.867   9.521 -0.5685  0.3860  0.6213
 1172SOL    HW1 6054   8.679   4.832   9.590  0.5043  1.7941  2.2629
 1172SOL    HW2 6055   8.700   4.831   9.440 -1.1936 -2.2055  1.9898
 1173SOL     OW 6056   9.145   5.357   2.372 -0.2479  0.2661  0.2431
 1173SOL    HW1 6057   9.111   5.286   2.318  0.7718  0.3493 -0.5172
 1173SOL    HW2 6058   9.093   5.353   2.452  0.1498 -1.6788  0.4314
 1174SOL     OW 6059   0.666   6.149   5.205  0.1498  0.0362  0.4017
 1174SOL    HW1 6060   0.660   6.155   5.110 -1.1989 -0.0288  0.4739
 1174SOL    HW2 6061   0.591   6.199   5.237 -0.7879 -1.9343  1.3805
 1175SOL     OW 6062   0.840   2.685   4.652 -0.0684  0.4107 -0.6334
 1175SOL    HW1 6063   0.749   2.657   4.648  0.1224 -0.1348 -1.2010
 1175SOL    HW2 6064   0.845   2.760   4.594 -0.6071  1.7326  0.9826
 1176SOL     OW 6065   5.809   4.919   1.929 -0.1439 -0.1531 -0.1471
 1176SOL    HW1 6066   5.750   4.983   1.889  1.3579 -0.0709 -2.2577
 1176SOL    HW2 6067   5.826   4.954   2.017  2.6663  3.7458 -2.0946
 1177SOL     OW 6068   5.942   2.158   7.832 -0.1434 -0.5649 -0.6315
 1177SOL    HW1 6069   5.972   2.248   7.844 -1.7865  0.1213 -1.5108
 1177SOL    HW2 6070   5.958   2.116   7.917  0.2408  0.6747 -0.0819
 1178SOL     OW 6071   6.329   1.773   9.607  0.3373  0.0693 -0.1085
 1178SOL    HW1 6072   6.353   1.845   9.548 -0.3087  0.6708  0.3543
 1178SOL    HW2 6073   6.412   1.734   9.632  0.6695  0.3691 -0.7237
 1179SOL     OW 6074   7.093   3.568   1.566 -0.8949 -0.1249  0.0500
 1179SOL    HW1 6075   7.164   3.518   1.606 -0.2788 -0.0494 -0.9125
 1179SOL    HW2 6076   7.102   3.657   1.602 -0.3118 -0.0414 -0.2996
 1180SOL     OW 6077   8.555   2.683  10.016 -0.6784  0.4956  0.1131
 1180SOL    HW1 6078   8.617   2.690   9.943 -0.9258 -1.3209 -0.3075
 1180SOL    HW2 6079   8.497   2.611   9.990 -0.8960 -0.0329  2.0088
 1181SOL     OW 6080   5.488   5.226   6.772 -0.2511 -0.2508  0.6309
 1181SOL    HW1 6081   5.470   5.137   6.742  0.8931 -0.7149  1.2939
 1181SOL    HW2 6082   5.552   5.260   6.710 -1.3709  0.4558 -0.1659
 1182SOL     OW 6083   2.422   1.897   6.992  0.0838  0.8666 -0.5010
 1182SOL    HW1 6084   2.336   1.924   6.958  0.8551  0.5525 -2.7970
 1182SOL    HW2 6085   2.431   1.806   6.963  2.1602  1.6111 -2.3429
 1183SOL     OW 6086   1.609   2.842   7.252 -0.2000  0.0952  0.0778
 1183SOL    HW1 6087   1.601   2.798   7.168 -1.4282  0.5297 -0.0444
 1183SOL    HW2 6088   1.592   2.773   7.317 -3.4507  0.6126 -0.1419
 1184SOL     OW 6089   6.964   1.912   2.148 -0.9232 -0.3224  0.1399
 1184SOL    HW1 6090   6.988   1.874   2.063  1.7037 -0.5842  0.9421
 1184SOL    HW2 6091   6.988   2.004   2.140 -1.4755 -0.1679  0.2997
 1185SOL     OW 6092   4.331   0.450   4.994  0.0986 -0.0734 -0.0207
 1185SOL    HW1 6093   4.402   0.436   4.931  0.8229  0.7895  0.6032
 1185SOL    HW2 6094   4.311   0.543   4.987 -1.0071 -0.3229 -0.2176
 1186SOL     OW 6095   5.498   2.026   8.089 -0.1333 -0.1552  0.8549
 1186SOL    HW1 6096   5.486   2.010   7.995  1.0571  0.3372  0.6055
 1186SOL    HW2 6097   5.410   2.024   8.125 -0.3911 -3.5262  0.2566
 1187SOL     OW 6098  10.018   6.138   8.985  0.2108 -0.0775  0.1155
 1187SOL    HW1 6099  10.012   6.046   8.961 -0.5796  0.1906 -0.7633
 1187SOL    HW2 6100  10.038   6.137   9.079  0.5617 -1.1353  0.0380
 1188SOL     OW 6101   6.485   8.683   0.380 -0.3314 -0.1948 -0.1308
 1188SOL    HW1 6102   6.459   8.772   0.356  0.8831 -0.5428 -3.0183
 1188SOL    HW2 6103   6.496   8.638   0.296  0.1007 -2.7766  1.2461
 1189SOL     OW 6104   4.113  10.186   2.855 -0.0698 -0.2783  0.3159
 1189SOL    HW1 6105   4.185  10.229   2.902  0.4767 -0.7956 -0.0455
 1189SOL    HW2 6106   4.153  10.154   2.774 -0.9577  0.3942 -0.3959
 1190SOL     OW 6107   7.594   1.343   7.882  0.0688 -0.1559 -0.1332
 1190SOL    HW1 6108   7.615   1.362   7.973  1.7698 -2.7916  0.0699
 1190SOL    HW2 6109   7.539   1.416   7.854 -0.2706  0.8069  2.9213
 1191SOL     OW 6110   0.362   4.799   4.727 -0.2424  0.4163 -0.1464
 1191SOL    HW1 6111   0.366   4.822   4.634 -0.7374  0.2247 -0.2192
 1191SOL    HW2 6112   0.402   4.712   4.732 -1.5856 -0.2313 -0.4195
 1192SOL     OW 6113   8.957   8.793   7.372 -0.6713 -0.1290 -0.2700
 1192SOL    HW1 6114   8.914   8.876   7.349 -0.4273  0.8835  2.6900
 1192SOL    HW2 6115   8.893   8.748   7.428 -0.6782 -1.8214 -1.6007
 1193SOL     OW 6116   2.226   4.595   0.870  0.0023 -0.2317 -0.6658
 1193SOL    HW1 6117   2.253   4.561   0.785  0.6822  0.0896 -0.5822
 1193SOL    HW2 6118   2.296   4.654   0.896  0.3518 -1.1662  0.6151
 1194SOL     OW 6119   6.037   2.179   0.926 -0.5640 -0.1439  0.2991
 1194SOL    HW1 6120   5.987   2.107   0.887 -1.7205  1.6854 -1.6951
 1194SOL    HW2 6121   5.994   2.197   1.009 -0.1807 -1.8231  0.8807
 1195SOL     OW 6122   0.363   7.602   1.767 -0.3010 -0.1003  0.4676
 1195SOL    HW1 6123   0.328   7.674   1.714 -2.1895 -0.7994  0.7281
 1195SOL    HW2 6124   0.363   7.527   1.707 -1.6538 -0.6936  1.1931
 1196SOL     OW 6125   1.227   7.040   5.448 -0.1344 -0.0790 -0.3298
 1196SOL    HW1 6126   1.310   7.084   5.464 -0.0691 -0.4517  0.3683
 1196SOL    HW2 6127   1.212   7.051   5.354 -0.3059  1.7414 -0.1103
 1197SOL     OW 6128   6.033   0.278   8.046  0.0296 -0.1024  0.3675
 1197SOL    HW1 6129   6.120   0.289   8.007 -0.8837 -0.8637 -2.0033
 1197SOL    HW2 6130   5.982   0.353   8.013 -0.8878 -1.0067 -0.3143
 1198SOL     OW 6131   2.588   1.998   2.987  0.3867 -0.2345 -0.1336
 1198SOL    HW1 6132   2.496   1.974   3.003  0.4208 -0.0398  0.3449
 1198SOL    HW2 6133   2.631   1.985   3.071  1.1423 -1.8725 -0.7592
 1199SOL     OW 6134   2.827   6.110   6.693  0.3143  0.2935 -0.5930
 1199SOL    HW1 6135   2.856   6.126   6.783 -2.1165 -1.6266  0.6012
 1199SOL    HW2 6136   2.787   6.192   6.666  0.3360  0.6375  0.3931
 1200SOL     OW 6137   2.893   3.794   6.562  0.3840 -0.5761  0.0888
 1200SOL    HW1 6138   2.828   3.780   6.630  1.0490 -0.1083  0.8362
 1200SOL    HW2 6139   2.860   3.869   6.511 -0.4689 -1.3776 -0.5595
 1201SOL     OW 6140   7.819   7.841   4.878 -0.0341  0.6739  0.2580
 1201SOL    HW1 6141   7.872   7.763   4.858 -1.6154  0.3040 -2.6882
 1201SOL    HW2 6142   7.732   7.807   4.897  0.2978  1.4262  3.4758
 1202SOL     OW 6143   7.119   2.814   0.041  0.0073  0.0845  0.8407
 1202SOL    HW1 6144   7.034   2.845   0.009 -1.2101 -3.4389  0.3981
 1202SOL    HW2 6145   7.175   2.815  -0.036 -0.6020 -0.6664  0.3741
 1203SOL     OW 6146   5.419   1.003   7.435  0.2972 -0.5526 -0.6365
 1203SOL    HW1 6147   5.489   1.043   7.486  0.1797 -0.0538 -0.8611
 1203SOL    HW2 6148   5.441   0.910   7.432  0.0532 -0.6641  0.7330
 1204SOL     OW 6149   9.598   2.705   6.371  0.1640 -0.1627  0.3300
 1204SOL    HW1 6150   9.586   2.715   6.276  2.5032  2.0966  0.2240
 1204SOL    HW2 6151   9.671   2.644   6.380 -1.2515 -1.8423  0.7506
 1205SOL     OW 6152   5.108   7.896   1.955 -0.0601 -0.1455  0.7289
 1205SOL    HW1 6153   5.136   7.806   1.973 -0.5235 -0.5044 -0.2892
 1205SOL    HW2 6154   5.013   7.894   1.967  0.0121  0.3931  1.4269
 1206SOL     OW 6155   2.492   8.796   2.621  0.4792  0.5852 -0.3464
 1206SOL    HW1 6156   2.466   8.782   2.712  0.9481  0.3028 -0.2557
 1206SOL    HW2 6157   2.566   8.737   2.608 -1.1762 -1.2736 -1.6716
 1207SOL     OW 6158   0.995   1.603   5.229  0.6466 -0.3284  0.2696
 1207SOL    HW1 6159   1.000   1.685   5.279  1.1888 -0.2741  0.1229
 1207SOL    HW2 6160   1.024   1.627   5.141 -1.8323 -0.0628 -0.5182
 1208SOL     OW 6161   2.308   4.464   9.441  0.2925  0.0122 -0.2306
 1208SOL    HW1 6162   2.267   4.414   9.511 -0.1242  0.6453 -0.0160
 1208SOL    HW2 6163   2.371   4.404   9.402  0.9576 -0.1406  1.0687
 1209SOL     OW 6164   7.895   5.715   6.980 -0.3710  0.1713  0.1595
 1209SOL    HW1 6165   7.849   5.683   7.058 -1.5171 -1.3688 -1.1114
 1209SOL    HW2 6166   7.827   5.759   6.929 -0.0680 -0.6228 -0.9345
 1210SOL     OW 6167   5.516   8.758   8.818 -0.4008 -0.4081 -0.4346
 1210SOL    HW1 6168   5.449   8.690   8.823  0.1404 -0.9205 -0.0740
 1210SOL    HW2 6169   5.537   8.777   8.910 -0.8744  0.5706 -0.5204
 1211SOL     OW 6170   6.873   3.949   8.710 -0.0815 -0.0449 -0.5903
 1211SOL    HW1 6171   6.841   3.946   8.620 -0.3525  0.8174 -0.5272
 1211SOL    HW2 6172   6.808   3.899   8.760  0.8389 -1.7953 -1.0801
 1212SOL     OW 6173   8.088   3.042   3.642  0.0834  0.6356  0.6355
 1212SOL    HW1 6174   8.171   3.086   3.628  1.0316 -1.0767  0.7241
 1212SOL    HW2 6175   8.111   2.949   3.653 -1.7570  0.2339  1.3510
 1213SOL     OW 6176  10.185   1.010  10.052 -0.3173  0.1833  0.0941
 1213SOL    HW1 6177  10.239   1.078  10.092  0.2402 -0.0896 -0.2044
 1213SOL    HW2 6178  10.095   1.036  10.073 -0.0781  0.6843  0.5045
 1214SOL     OW 6179   0.489   9.954   0.651 -0.2612  0.1544 -0.2203
 1214SOL    HW1 6180   0.458   9.878   0.600 -2.0724  1.6669 -1.4331
 1214SOL    HW2 6181   0.429   9.958   0.726  1.0563 -0.7755  0.8894
 1215SOL     OW 6182   1.441   1.529   4.126  0.3025  0.2689 -0.3933
 1215SOL    HW1 6183   1.347   1.524   4.137  0.4096  0.3680  0.6165
 1215SOL    HW2 6184   1.467   1.605   4.178  1.2140 -1.0835  1.1335
 1216SOL     OW 6185   0.102   6.301   0.751 -0.7761 -0.2188 -0.1047
 1216SOL    HW1 6186   0.104   6.207   0.765 -0.2906 -0.2416 -0.3476
 1216SOL    HW2 6187   0.191   6.324   0.724 -0.0889  0.7365  2.7765
 1217SOL     OW 6188   3.640   0.905   9.473  0.3131 -0.2043 -0.0747
 1217SOL    HW1 6189   3.567   0.932   9.418 -0.4449  0.7601  1.3755
 1217SOL    HW2 6190   3.665   0.819   9.440 -1.0788 -0.2640 -0.9837
 1218SOL     OW 6191   7.850   3.586   1.574 -0.3023 -0.1855  0.4009
 1218SOL    HW1 6192   7.839   3.680   1.584  1.8461  0.2854 -1.3091
 1218SOL    HW2 6193   7.942   3.570   1.596 -0.6927 -1.9091  0.8692
 1219SOL     OW 6194   9.102   9.002   6.742 -0.1349  0.2355  0.2459
 1219SOL    HW1 6195   9.180   9.055   6.733  1.0586 -0.9943  2.8085
 1219SOL    HW2 6196   9.055   9.041   6.815 -0.8438 -0.3312  0.0992
 1220SOL     OW 6197   2.415   2.036   6.188 -0.4788 -0.2105 -0.3916
 1220SOL    HW1 6198   2.480   2.104   6.173  1.0917 -1.7820 -0.8769
 1220SOL    HW2 6199   2.413   2.025   6.283  0.8981 -0.9960 -0.4315
 1221SOL     OW 6200   4.372   9.458   0.808  0.3956  0.4752  0.2696
 1221SOL    HW1 6201   4.371   9.379   0.861 -2.7437  1.1235  1.3296
 1221SOL    HW2 6202   4.459   9.496   0.822  0.7877 -1.0990  2.3491
 1222SOL     OW 6203   9.369   2.056   9.672  0.2068  0.4441  0.3919
 1222SOL    HW1 6204   9.343   2.147   9.658  0.0599  0.6594  1.9196
 1222SOL    HW2 6205   9.303   2.021   9.732  1.2229 -0.1580  1.1857
 1223SOL     OW 6206   3.898   3.122   2.613  0.0692 -0.3413  0.3374
 1223SOL    HW1 6207   3.879   3.143   2.522 -0.4403 -0.9324  0.3033
 1223SOL    HW2 6208   3.928   3.031   2.611  0.0718 -0.3530  0.7590
 1224SOL     OW 6209   6.229   6.622   0.260  0.7797 -0.1556  0.1313
 1224SOL    HW1 6210   6.282   6.590   0.187 -0.5572 -0.4523 -0.7365
 1224SOL    HW2 6211   6.148   6.652   0.219  0.0239 -0.2767  1.5036
 1225SOL     OW 6212   5.109   4.085   0.072 -0.0374 -0.3334  0.3894
 1225SOL    HW1 6213   5.171   4.013   0.079  1.8135  1.2444  0.6054
 1225SOL    HW2 6214   5.148   4.156   0.123 -2.0977  0.6498  0.6589
 1226SOL     OW 6215   2.438   6.353   6.079  0.4559 -0.2013 -0.3457
 1226SOL    HW1 6216   2.419   6.447   6.074 -3.7157 -0.8943  0.3200
 1226SOL    HW2 6217   2.455   6.338   6.172 -1.4153 -0.4682 -0.0205
 1227SOL     OW 6218   5.207   0.652   8.039  0.3592 -0.2813 -0.2749
 1227SOL    HW1 6219   5.135   0.640   8.100 -1.1805  3.3732 -1.2524
 1227SOL    HW2 6220   5.246   0.736   8.063  1.9978 -0.4694 -2.0661
 1228SOL     OW 6221   0.488   3.342   0.156  0.4254  0.5429  0.0214
 1228SOL    HW1 6222   0.436   3.281   0.208  0.4247  0.4096 -0.1368
 1228SOL    HW2 6223   0.579   3.315   0.170  0.5387  1.5144  1.2538
 1229SOL     OW 6224   7.687   5.954   1.366  0.3507 -0.0614  0.0186
 1229SOL    HW1 6225   7.614   5.912   1.412 -0.0508  0.3573 -0.2230
 1229SOL    HW2 6226   7.655   5.964   1.276  1.8045 -2.4986 -0.7856
 1230SOL     OW 6227   7.709   5.131   8.140 -0.0682  0.1277 -0.0647
 1230SOL    HW1 6228   7.790   5.183   8.147 -0.2720  0.7929 -2.1366
 1230SOL    HW2 6229   7.737   5.050   8.097 -0.3531 -0.0253  0.0411
 1231SOL     OW 6230   3.881   1.094   0.622  0.2778 -0.5531  0.1031
 1231SOL    HW1 6231   3.856   1.068   0.534 -0.3231 -1.5639  0.5682
 1231SOL    HW2 6232   3.904   1.187   0.614 -1.5082 -0.1605 -0.7675
 1232SOL     OW 6233   6.501   0.564   8.055 -0.1246  0.4818 -0.1213
 1232SOL    HW1 6234   6.549   0.509   8.117  1.4709  1.1717 -0.7238
 1232SOL    HW2 6235   6.530   0.534   7.969 -2.2217 -0.3754 -0.5733
 1233SOL     OW 6236   7.222   4.551   9.801 -0.0821 -0.3404  0.1717
 1233SOL    HW1 6237   7.139   4.562   9.848 -0.5397 -0.9500 -0.4823
 1233SOL    HW2 6238   7.283   4.519   9.867 -0.9614 -2.1086  0.1366
 1234SOL     OW 6239   6.567   9.661   5.760  0.5533  0.0051  0.4065
 1234SOL    HW1 6240   6.589   9.597   5.692 -3.2508 -0.3469 -0.6286
 1234SOL    HW2 6241   6.523   9.609   5.827  0.5773  1.0038  1.2074
 1235SOL     OW 6242   1.697   5.173   5.521 -0.5741 -0.4026 -0.0883
 1235SOL    HW1 6243   1.641   5.098   5.541  1.1668 -1.4261  1.1076
 1235SOL    HW2 6244   1.711   5.168   5.426 -2.2462 -0.3003 -0.3529
 1236SOL     OW 6245   8.419   1.905   0.699  0.0941 -0.4558  0.1138
 1236SOL    HW1 6246   8.452   1.945   0.780  0.2483 -1.3827  0.5195
 1236SOL    HW2 6247   8.371   1.975   0.656  0.6340  0.2602  0.6521
 1237SOL     OW 6248   2.136   4.894   2.253 -0.0046  0.2334 -0.0762
 1237SOL    HW1 6249   2.200   4.953   2.213  0.8686  0.1577  1.1400
 1237SOL    HW2 6250   2.076   4.871   2.183  1.3486  0.2767 -1.2661
 1238SOL     OW 6251   5.111   3.563   5.118 -0.3154 -0.8962  0.3313
 1238SOL    HW1 6252   5.128   3.593   5.207 -1.2980 -1.8212  0.8387
 1238SOL    HW2 6253   5.022   3.594   5.099 -0.5247 -1.6458  0.0759
 1239SOL     OW 6254   4.976   1.447   6.672  0.1810  0.4953  0.3376
 1239SOL    HW1 6255   5.028   1.370   6.647 -0.6761 -0.5427  1.6974
 1239SOL    HW2 6256   4.901   1.445   6.612  1.3361  1.6478 -1.2143
 1240SOL     OW 6257   2.292   9.519   4.413 -0.1956 -0.4383  0.0594
 1240SOL    HW1 6258   2.359   9.565   4.363 -1.0764  0.9804  0.1686
 1240SOL    HW2 6259   2.327   9.430   4.424  1.4920  0.1868 -0.1780
 1241SOL     OW 6260   7.405   9.204   4.823  0.5265 -0.4119  0.3095
 1241SOL    HW1 6261   7.428   9.112   4.829 -1.6194 -0.9631  0.5269
 1241SOL    HW2 6262   7.347   9.219   4.897  0.0410  0.8566 -0.3140
 1242SOL     OW 6263   8.931   6.499   2.152 -0.3295  0.3108  0.2349
 1242SOL    HW1 6264   8.939   6.544   2.236  0.0196  0.6904  0.0013
 1242SOL    HW2 6265   8.941   6.407   2.173  2.1182  0.5797  0.2930
 1243SOL     OW 6266   7.473   6.481  10.147  0.8541 -0.5719 -0.6694
 1243SOL    HW1 6267   7.384   6.446  10.153  0.1766  0.8250 -2.1573
 1243SOL    HW2 6268   7.527   6.415  10.190 -1.2260 -0.0199  3.0188
 1244SOL     OW 6269   2.793   2.404   6.110 -0.8144 -0.2389 -0.1570
 1244SOL    HW1 6270   2.801   2.426   6.203  4.1283 -0.3747 -0.3924
 1244SOL    HW2 6271   2.745   2.478   6.073  0.3594  1.6925  1.9549
 1245SOL     OW 6272   9.100   1.906   7.152  0.3710  0.4953  0.2511
 1245SOL    HW1 6273   9.076   1.965   7.080  0.9355 -0.2703 -0.5789
 1245SOL    HW2 6274   9.052   1.940   7.228 -1.0565  0.6896 -0.7249
 1246SOL     OW 6275   6.270   6.546   1.972 -0.5408 -0.4358  0.1046
 1246SOL    HW1 6276   6.293   6.538   1.879 -0.1645 -0.1043  0.1681
 1246SOL    HW2 6277   6.217   6.468   1.990 -0.2633 -0.7210 -0.2832
 1247SOL     OW 6278   7.914   4.923   8.296  0.0353 -0.4481 -1.1194
 1247SOL    HW1 6279   7.892   4.964   8.212  0.2882 -1.1115 -1.5148
 1247SOL    HW2 6280   8.009   4.915   8.294  0.0813 -0.0123 -0.5564
 1248SOL     OW 6281   8.858   8.952   3.901 -0.0758  0.0435  0.1163
 1248SOL    HW1 6282   8.911   9.006   3.842  1.1611 -0.0694  1.0909
 1248SOL    HW2 6283   8.843   9.008   3.978  0.9164 -0.8514  0.9833
 1249SOL     OW 6284   8.163   0.583   2.002  0.5559 -0.1082 -0.5429
 1249SOL    HW1 6285   8.190   0.620   1.918 -0.7302  0.1195 -0.8791
 1249SOL    HW2 6286   8.157   0.658   2.061 -1.6700  0.2088 -1.1207
 1250SOL     OW 6287   6.189   9.304   5.625 -0.3823 -0.2597 -0.0159
 1250SOL    HW1 6288   6.270   9.348   5.600 -1.5668  0.2636 -3.1158
 1250SOL    HW2 6289   6.180   9.233   5.561 -2.3596 -0.3329  0.3336
 1251SOL     OW 6290   7.852   6.959   4.200 -0.2638 -0.9347 -0.2375
 1251SOL    HW1 6291   7.907   6.997   4.269 -0.1888 -1.3416 -0.0704
 1251SOL    HW2 6292   7.909   6.897   4.156 -0.0925 -0.1479 -1.1414
 1252SOL     OW 6293   7.246   4.921   4.882 -0.4003  0.7436  0.1599
 1252SOL    HW1 6294   7.178   4.988   4.877  0.0609  1.1463 -0.7470
 1252SOL    HW2 6295   7.237   4.872   4.800 -1.0007 -0.5752  0.9795
 1253SOL     OW 6296   4.188   5.727   8.573  0.2772 -0.3697  0.4473
 1253SOL    HW1 6297   4.138   5.782   8.513  0.3035  0.3174  1.0563
 1253SOL    HW2 6298   4.208   5.648   8.522  2.0101  1.0468 -1.1299
 1254SOL     OW 6299   2.472   9.842   6.756  0.1941  0.1057 -0.2861
 1254SOL    HW1 6300   2.467   9.898   6.679  0.2640 -1.7676 -1.6597
 1254SOL    HW2 6301   2.389   9.856   6.801 -0.2204  0.5290 -1.1728
 1255SOL     OW 6302   1.367   1.723   7.896 -0.4521  0.8893 -0.3767
 1255SOL    HW1 6303   1.293   1.751   7.843 -0.9951  1.1395  0.5071
 1255SOL    HW2 6304   1.345   1.751   7.985  0.2724  0.1331  0.0475
 1256SOL     OW 6305   1.433   8.560   4.925 -0.1525  0.1689  0.0649
 1256SOL    HW1 6306   1.379   8.618   4.978 -2.3163 -0.6496 -1.2222
 1256SOL    HW2 6307   1.477   8.504   4.989 -2.5804 -0.6688  1.0239
 1257SOL     OW 6308   9.800   7.295   9.518  0.1331  0.3425 -0.3657
 1257SOL    HW1 6309   9.838   7.377   9.487  0.6746 -0.6599 -2.3921
 1257SOL    HW2 6310   9.709   7.297   9.488 -0.4543  1.1200  1.3915
 1258SOL     OW 6311   3.215   6.954   4.116  0.0598  0.2757  1.4836
 1258SOL    HW1 6312   3.128   6.971   4.151  0.0920  0.8560  1.2825
 1258SOL    HW2 6313   3.217   7.002   4.033  0.8084  0.7979  1.8039
 1259SOL     OW 6314   0.374   7.980   1.122 -0.8496 -0.0461  0.1652
 1259SOL    HW1 6315   0.338   8.008   1.038  1.5193 -0.6767 -1.0802
 1259SOL    HW2 6316   0.388   7.885   1.113  1.8173  0.2896  0.3210
 1260SOL     OW 6317   8.309   1.041   8.304 -0.0988 -0.1833 -0.3443
 1260SOL    HW1 6318   8.320   1.097   8.228  1.4198  0.8110  0.5810
 1260SOL    HW2 6319   8.360   1.084   8.373 -0.5597 -1.6340  0.9266
 1261SOL     OW 6320   6.617   7.968   4.332 -0.3455  0.7960 -0.8705
 1261SOL    HW1 6321   6.531   7.937   4.304  0.4069  0.7720 -3.2904
 1261SOL    HW2 6322   6.639   7.912   4.407 -2.1050  0.3057 -0.6899
 1262SOL     OW 6323   7.320   3.038   2.329  0.1619  0.3337 -0.4945
 1262SOL    HW1 6324   7.296   3.032   2.422  0.1573 -0.7554 -0.5549
 1262SOL    HW2 6325   7.390   3.103   2.327  0.1044  0.4313  0.2670
 1263SOL     OW 6326   3.909   7.130   2.814  0.1845 -0.4219  0.1871
 1263SOL    HW1 6327   3.840   7.180   2.770  1.3590  1.7992  0.7981
 1263SOL    HW2 6328   3.864   7.084   2.885 -0.7950  0.4009  0.1120
 1264SOL     OW 6329   0.629   6.837   2.799  0.1248 -0.6792  0.0796
 1264SOL    HW1 6330   0.664   6.813   2.713  0.1062  0.2628 -0.1983
 1264SOL    HW2 6331   0.671   6.776   2.860  1.1771 -0.4780 -0.4244
 1265SOL     OW 6332   9.432   9.551   5.773  0.3806 -0.8633 -0.7558
 1265SOL    HW1 6333   9.371   9.616   5.808  0.5422 -0.8254 -0.5429
 1265SOL    HW2 6334   9.481   9.521   5.849  1.4059 -0.0728 -1.0912
 1266SOL     OW 6335   0.263   6.837   5.982 -0.6280 -0.2772  0.2932
 1266SOL    HW1 6336   0.355   6.863   5.979 -0.4557 -0.9355 -0.4856
 1266SOL    HW2 6337   0.221   6.889   5.913 -0.7560 -0.2848  0.3661
 1267SOL     OW 6338   9.169   2.010   5.585 -0.2286 -0.5031  1.1536
 1267SOL    HW1 6339   9.193   2.065   5.511  2.0598  0.0474  2.2635
 1267SOL    HW2 6340   9.076   2.028   5.599  0.1075  1.9225  0.5076
 1268SOL     OW 6341   1.991   6.876   7.056  0.1211  0.1793  0.0076
 1268SOL    HW1 6342   1.913   6.931   7.063  0.6139  0.9560 -0.6801
 1268SOL    HW2 6343   1.994   6.849   6.964  1.5647  1.4801 -0.3446
 1269SOL     OW 6344   1.720  10.192   3.073  0.2173 -0.1539  0.2332
 1269SOL    HW1 6345   1.740  10.284   3.090 -2.8499  0.6646 -0.2229
 1269SOL    HW2 6346   1.669  10.164   3.150 -0.6288 -0.8546 -0.5690
 1270SOL     OW 6347   5.502   7.969   0.806  0.0753 -0.3457 -0.0452
 1270SOL    HW1 6348   5.550   7.987   0.725  1.1015  1.0667  0.8440
 1270SOL    HW2 6349   5.483   8.056   0.842 -3.6571 -0.8362 -0.6093
 1271SOL     OW 6350  10.024   2.317   9.928  0.0696  0.1435 -0.0239
 1271SOL    HW1 6351  10.044   2.336  10.020 -0.2286  2.7553 -0.4564
 1271SOL    HW2 6352  10.099   2.267   9.896  1.8434  2.2548  0.7203
 1272SOL     OW 6353  10.110   8.021   2.001  0.1940 -0.5066 -0.1350
 1272SOL    HW1 6354  10.130   8.023   2.094 -0.1832 -1.0635 -0.0357
 1272SOL    HW2 6355  10.016   8.001   1.998  0.3876 -1.3578 -0.6468
 1273SOL     OW 6356   4.761   5.492   1.641  0.0434 -0.4913  0.0699
 1273SOL    HW1 6357   4.852   5.474   1.666  0.5455  2.1308  0.2844
 1273SOL    HW2 6358   4.726   5.541   1.716 -0.0442  2.7944 -2.0245
 1274SOL     OW 6359   9.433   3.648   1.830 -0.5533 -0.2158  0.3574
 1274SOL    HW1 6360   9.355   3.611   1.788  0.2689 -1.2745 -0.2622
 1274SOL    HW2 6361   9.506   3.618   1.776  0.2158  1.6752  0.3035
 1275SOL     OW 6362   4.162   4.623   1.411  0.0033 -0.0844 -0.1429
 1275SOL    HW1 6363   4.138   4.665   1.329  0.1426  2.0822  0.8887
 1275SOL    HW2 6364   4.096   4.556   1.425  0.5618 -1.1783 -2.5257
 1276SOL     OW 6365   5.452   0.313   6.303  0.0078  0.2410 -0.3348
 1276SOL    HW1 6366   5.497   0.384   6.257 -0.6390  2.1009  1.8156
 1276SOL    HW2 6367   5.363   0.345   6.315 -0.6633 -1.5125 -0.5272
 1277SOL     OW 6368   4.248   0.380   9.329  0.2409  0.3443 -0.1207
 1277SOL    HW1 6369   4.230   0.313   9.263 -0.4526  1.4974 -1.1167
 1277SOL    HW2 6370   4.342   0.397   9.321  0.4517 -0.5840  0.2365
 1278SOL     OW 6371   0.022   1.481   4.982  0.4606  0.0202  0.6883
 1278SOL    HW1 6372  -0.047   1.443   4.927 -1.3870  1.3658  1.9887
 1278SOL    HW2 6373   0.100   1.430   4.962 -0.5190 -0.4852 -2.0581
 1279SOL     OW 6374   3.421   0.838   4.532 -0.1251 -0.0001 -0.3758
 1279SOL    HW1 6375   3.386   0.780   4.600 -0.2055  1.8309  1.1693
 1279SOL    HW2 6376   3.355   0.906   4.522  1.3453  1.5278  0.0365
 1280SOL     OW 6377   7.601   3.968   0.339  0.2327  0.6043  0.2828
 1280SOL    HW1 6378   7.678   3.969   0.282  0.1984  0.6570  0.2359
 1280SOL    HW2 6379   7.543   3.902   0.300 -0.3041  1.4842 -0.4476
 1281SOL     OW 6380   9.479   8.165   6.467 -0.1841 -0.1748 -0.3534
 1281SOL    HW1 6381   9.535   8.140   6.394 -1.2606 -0.6454 -1.0424
 1281SOL    HW2 6382   9.399   8.113   6.455 -0.7246  0.3894  0.6641
 1282SOL     OW 6383   3.732   9.562   2.449 -0.1852 -0.3751 -0.6040
 1282SOL    HW1 6384   3.696   9.479   2.417  2.6787 -2.6390  1.7945
 1282SOL    HW2 6385   3.805   9.581   2.391 -0.3180  0.0405 -0.6369
 1283SOL     OW 6386   8.220   3.775   3.685  0.3541  0.2217 -0.0452
 1283SOL    HW1 6387   8.167   3.705   3.724  0.4156 -0.2384 -0.7566
 1283SOL    HW2 6388   8.238   3.743   3.596 -0.8750  1.8036 -0.8868
 1284SOL     OW 6389   4.421   6.309   6.104 -0.4648 -0.4896  0.1087
 1284SOL    HW1 6390   4.438   6.358   6.184  1.7241 -0.7302 -0.1893
 1284SOL    HW2 6391   4.406   6.377   6.037  1.3514 -0.2219 -0.0461
 1285SOL     OW 6392   5.515   8.898   7.116 -0.0096 -0.1014 -0.0956
 1285SOL    HW1 6393   5.531   8.990   7.097 -2.6594  0.6363  0.9567
 1285SOL    HW2 6394   5.499   8.895   7.211  0.7143 -1.7351 -0.0115
 1286SOL     OW 6395   1.076   7.441   6.928 -0.2751 -0.2258  0.4532
 1286SOL    HW1 6396   1.163   7.478   6.943 -1.1940  1.8014  0.9621
 1286SOL    HW2 6397   1.070   7.433   6.833  0.2070  0.2978  0.3737
 1287SOL     OW 6398   5.232   6.605   7.476 -0.1110 -0.3835  0.6487
 1287SOL    HW1 6399   5.139   6.626   7.487  0.1517 -0.7700  4.0499
 1287SOL    HW2 6400   5.234   6.510   7.464 -0.0866 -0.4768  1.4027
 1288SOL     OW 6401   7.797   7.398   7.410  0.4207  0.1838 -0.6762
 1288SOL    HW1 6402   7.863   7.468   7.406  1.3498 -0.7591 -2.4999
 1288SOL    HW2 6403   7.809   7.349   7.329 -1.7948 -0.6953 -0.5090
 1289SOL     OW 6404   9.999   3.137   7.327  0.3216  0.1276 -0.0531
 1289SOL    HW1 6405  10.011   3.105   7.417  1.8224 -0.6769 -0.5265
 1289SOL    HW2 6406  10.020   3.230   7.333  1.8291 -0.2083  0.1765
 1290SOL     OW 6407   3.061   1.541   9.270 -0.5064 -0.2602  0.1901
 1290SOL    HW1 6408   2.982   1.552   9.323 -0.7784 -1.1837 -0.0234
 1290SOL    HW2 6409   3.050   1.605   9.199 -0.5880  0.3059  0.7021
 1291SOL     OW 6410   2.182   4.040   5.587  0.2387 -0.3387  0.6217
 1291SOL    HW1 6411   2.212   4.098   5.516 -0.1208 -0.1485  0.6229
 1291SOL    HW2 6412   2.241   4.058   5.660  0.6811 -0.6139  0.3371
 1292SOL     OW 6413   1.784   4.251   1.029 -0.2703  0.2757  0.5843
 1292SOL    HW1 6414   1.707   4.301   1.001 -0.9460 -0.1283  1.6975
 1292SOL    HW2 6415   1.752   4.195   1.099  0.8208 -0.6517  0.3485
 1293SOL     OW 6416   2.632   9.109   8.876 -0.5336  0.1167 -0.4553
 1293SOL    HW1 6417   2.538   9.107   8.895 -0.1169  0.9636  1.8258
 1293SOL    HW2 6418   2.637   9.116   8.780 -2.7996  0.8722 -0.5468
 1294SOL     OW 6419   2.770   6.958   9.694  0.1428 -1.1216 -0.1298
 1294SOL    HW1 6420   2.764   6.886   9.631 -2.0654 -0.2670 -0.9520
 1294SOL    HW2 6421   2.801   7.032   9.642 -1.3059 -0.5174 -0.1612
 1295SOL     OW 6422   0.704   5.209   1.363 -0.5387 -0.2162  0.0074
 1295SOL    HW1 6423   0.661   5.128   1.336 -0.3805 -0.6586  1.0396
 1295SOL    HW2 6424   0.703   5.206   1.459  0.7312  0.3234  0.0529
 1296SOL     OW 6425   8.803   0.158   1.134 -0.6772 -0.3996  0.0054
 1296SOL    HW1 6426   8.885   0.195   1.102 -0.5876 -1.0519 -0.5206
 1296SOL    HW2 6427   8.776   0.217   1.205 -0.4802  0.5962 -0.7389
 1297SOL     OW 6428   2.297   7.708   1.820 -0.3477  0.0438  0.0282
 1297SOL    HW1 6429   2.385   7.672   1.814  0.0529  1.1642 -1.0732
 1297SOL    HW2 6430   2.273   7.698   1.912  0.9309 -0.2760  0.3277
 1298SOL     OW 6431   6.785   3.758   1.619 -0.0686 -0.2011 -0.4037
 1298SOL    HW1 6432   6.694   3.770   1.647 -0.6484 -2.5519 -1.2057
 1298SOL    HW2 6433   6.786   3.784   1.527 -0.3109 -1.7239 -0.8503
 1299SOL     OW 6434   0.804   8.771   0.286  0.8887 -0.1241  0.2986
 1299SOL    HW1 6435   0.871   8.729   0.339  0.2336 -1.1429  0.3269
 1299SOL    HW2 6436   0.760   8.831   0.346  0.0756 -1.3493  0.9470
 1300SOL     OW 6437   8.752   8.365   4.901 -0.0942 -0.2220 -0.2232
 1300SOL    HW1 6438   8.695   8.341   4.828  1.3234 -1.5109 -0.9493
 1300SOL    HW2 6439   8.747   8.291   4.961  2.0749 -1.1314 -1.1003
 1301SOL     OW 6440   1.412   3.989   1.929  0.2820 -0.1993 -0.5218
 1301SOL    HW1 6441   1.372   3.905   1.903  1.2569 -0.3012 -1.7410
 1301SOL    HW2 6442   1.473   4.009   1.858 -0.6388  2.0264 -0.7216
 1302SOL     OW 6443   2.052   8.989   3.496 -0.3140 -0.2697 -0.4638
 1302SOL    HW1 6444   1.971   9.012   3.541 -0.9355  0.1114 -1.7241
 1302SOL    HW2 6445   2.060   8.894   3.507 -1.9999 -0.6305 -1.9812
 1303SOL     OW 6446   3.525   1.392   7.727  0.3948 -0.0234  0.4008
 1303SOL    HW1 6447   3.570   1.408   7.810 -2.8739  1.6116  1.9236
 1303SOL    HW2 6448   3.563   1.456   7.667  0.2044  1.2293  1.6018
 1304SOL     OW 6449   4.767   2.858   1.578  0.5275 -0.2653 -0.1294
 1304SOL    HW1 6450   4.704   2.786   1.566  0.7794 -0.4358 -0.4521
 1304SOL    HW2 6451   4.761   2.879   1.671 -0.6809  0.3488 -0.3364
 1305SOL     OW 6452   7.129   3.585   7.360  0.5801 -0.4021 -0.8924
 1305SOL    HW1 6453   7.111   3.492   7.346  1.1780 -0.6851  0.1880
 1305SOL    HW2 6454   7.181   3.611   7.283 -1.5035 -0.3758 -2.3585
 1306SOL     OW 6455   3.817   6.361   5.560 -0.3811  0.0027 -0.1900
 1306SOL    HW1 6456   3.735   6.407   5.542 -1.1865 -2.2645 -2.4725
 1306SOL    HW2 6457   3.798   6.305   5.635 -0.9147 -0.4601 -0.6675
 1307SOL     OW 6458   3.320   9.695   8.632  0.5304  0.3131  0.2482
 1307SOL    HW1 6459   3.347   9.761   8.568 -0.7150  0.4979 -0.1048
 1307SOL    HW2 6460   3.356   9.726   8.715  0.8299  0.8989 -0.0922
 1308SOL     OW 6461   6.095   9.917   5.178  0.0917  0.2507  0.4952
 1308SOL    HW1 6462   6.188   9.896   5.178  0.2556  0.8794 -1.5422
 1308SOL    HW2 6463   6.060   9.874   5.100 -1.5203 -0.6754  1.6691
 1309SOL     OW 6464   6.333   6.461   6.393  0.3239 -0.1629  0.2205
 1309SOL    HW1 6465   6.394   6.401   6.435 -0.9554 -0.6841  1.3902
 1309SOL    HW2 6466   6.343   6.444   6.299  0.7453 -1.4410  0.4917
 1310SOL     OW 6467   6.931   1.421   3.558  0.1140  0.4654 -0.5176
 1310SOL    HW1 6468   6.898   1.332   3.565 -0.7516  0.7994 -0.2761
 1310SOL    HW2 6469   6.926   1.441   3.464  0.0572  0.3568 -0.5379
 1311SOL     OW 6470   1.357   1.996   2.841 -0.3853 -0.0131  0.2471
 1311SOL    HW1 6471   1.387   1.932   2.776 -0.5238  0.4560 -0.2789
 1311SOL    HW2 6472   1.296   1.947   2.896 -0.3699 -0.3773 -0.0590
 1312SOL     OW 6473   6.908   4.618   6.281  0.1584  0.0161  0.0603
 1312SOL    HW1 6474   6.910   4.695   6.224  0.1933 -0.1394 -0.1489
 1312SOL    HW2 6475   6.815   4.602   6.296  0.0466 -1.4003 -1.9395
 1313SOL     OW 6476   1.400   4.360   7.156 -0.0455 -0.1541 -0.1084
 1313SOL    HW1 6477   1.472   4.296   7.159 -0.5018 -0.6504  0.4037
 1313SOL    HW2 6478   1.331   4.320   7.210 -1.1596 -0.2405 -1.5880
 1314SOL     OW 6479   2.213   5.434   2.370  0.6957  0.0112  0.1639
 1314SOL    HW1 6480   2.287   5.384   2.406  0.4358 -0.6097 -0.1532
 1314SOL    HW2 6481   2.251   5.480   2.295  1.4665  2.0603  1.7602
 1315SOL     OW 6482   8.959   7.917  10.167  0.1347  0.0479 -0.0045
 1315SOL    HW1 6483   8.896   7.985  10.143 -0.1497 -0.6732 -1.3555
 1315SOL    HW2 6484   9.026   7.921  10.099  0.2339 -0.8563  0.0268
 1316SOL     OW 6485  10.032   3.499   9.124  0.2392  0.1262 -0.2234
 1316SOL    HW1 6486  10.000   3.579   9.083  2.5425  0.9172 -0.5860
 1316SOL    HW2 6487  10.000   3.428   9.069 -0.5728  0.8904 -0.7362
 1317SOL     OW 6488   7.962   7.551   4.582 -0.3682 -0.6682  0.1368
 1317SOL    HW1 6489   7.953   7.456   4.590  0.1044 -0.9435 -2.3552
 1317SOL    HW2 6490   8.022   7.575   4.652  1.4304 -2.5340 -0.7285
 1318SOL     OW 6491   0.992   4.380   6.063 -0.4116  0.1053  0.4357
 1318SOL    HW1 6492   1.045   4.399   5.986 -0.7271  0.4040  0.2903
 1318SOL    HW2 6493   1.021   4.293   6.091 -0.4035 -0.0727 -0.1079
 1319SOL     OW 6494   6.680   5.995  10.165  0.4387 -0.2473  0.1045
 1319SOL    HW1 6495   6.742   5.941  10.213  0.6494  1.7588  2.2037
 1319SOL    HW2 6496   6.729   6.075  10.145 -1.1603  0.9744  0.9647
 1320SOL     OW 6497   7.138   1.404   9.991 -0.7066 -0.6636 -0.2218
 1320SOL    HW1 6498   7.175   1.318  10.009 -0.8626 -0.7722 -0.4236
 1320SOL    HW2 6499   7.165   1.423   9.901  0.9195  0.3095  0.4447
 1321SOL     OW 6500   2.389   9.927   8.254 -0.1407 -0.0165  0.1882
 1321SOL    HW1 6501   2.442   9.918   8.175  1.4871 -0.4743  1.3219
 1321SOL    HW2 6502   2.348  10.013   8.245  0.0684 -0.0407 -1.1294
 1322SOL     OW 6503   6.323   0.444   3.618 -0.2013 -0.2590 -0.0999
 1322SOL    HW1 6504   6.246   0.391   3.598 -0.5138  0.5885 -1.1549
 1322SOL    HW2 6505   6.384   0.382   3.659 -2.3123 -0.4448  2.9203
 1323SOL     OW 6506   6.829   4.780   5.410  0.0619  0.0340  0.0900
 1323SOL    HW1 6507   6.849   4.869   5.384  1.4516 -0.3183 -0.0914
 1323SOL    HW2 6508   6.772   4.746   5.340  0.1692  0.5114 -0.2295
 1324SOL     OW 6509   3.165   1.644   8.363  0.1228  0.3516  0.1362
 1324SOL    HW1 6510   3.091   1.620   8.308 -0.7611  2.4837  0.3146
 1324SOL    HW2 6511   3.238   1.591   8.332 -1.3213 -1.2868 -0.4862
 1325SOL     OW 6512   3.941   9.322   7.038 -0.2705 -0.0858  0.0032
 1325SOL    HW1 6513   3.985   9.408   7.041 -0.0914 -0.1586 -0.4403
 1325SOL    HW2 6514   3.912   9.307   7.128  0.1825  0.1906  0.2005
 1326SOL     OW 6515   2.147   9.997   8.851 -0.1115 -0.1732 -0.0127
 1326SOL    HW1 6516   2.229  10.046   8.837 -0.6538  0.9947  0.8495
 1326SOL    HW2 6517   2.109  10.036   8.930 -1.6052 -0.5692 -0.5270
 1327SOL     OW 6518   9.433   2.536   3.212  0.3373 -0.3360 -0.3778
 1327SOL    HW1 6519   9.518   2.555   3.251  1.0510  0.1471 -2.1534
 1327SOL    HW2 6520   9.373   2.595   3.258  1.2064  0.3914 -0.1593
 1328SOL     OW 6521   2.436   2.772   2.376 -0.2691  0.1281  0.2000
 1328SOL    HW1 6522   2.360   2.719   2.354  1.1887 -1.3324 -1.5291
 1328SOL    HW2 6523   2.476   2.729   2.452  0.1829 -0.5379 -0.4044
 1329SOL     OW 6524   2.292   5.657   7.254  0.0345 -0.0562 -0.5959
 1329SOL    HW1 6525   2.346   5.618   7.185 -1.1481  1.5913 -2.4993
 1329SOL    HW2 6526   2.206   5.617   7.242  0.2211 -0.9975  1.0086
 1330SOL     OW 6527   0.760   6.066   9.499 -0.9142  0.6822  0.3008
 1330SOL    HW1 6528   0.792   6.119   9.426 -0.2365  0.2861  0.3073
 1330SOL    HW2 6529   0.737   5.982   9.459 -1.5134  0.8108  0.3731
 1331SOL     OW 6530   0.544   1.209   0.861  0.3474  0.0515  0.0899
 1331SOL    HW1 6531   0.572   1.290   0.817 -0.6025 -0.9620 -2.4551
 1331SOL    HW2 6532   0.521   1.238   0.949 -0.1034  2.6284 -0.7970
 1332SOL     OW 6533   4.358   2.959   6.577 -0.0325  0.1461 -0.4946
 1332SOL    HW1 6534   4.358   2.962   6.673 -0.5624 -1.0798 -0.4428
 1332SOL    HW2 6535   4.447   2.932   6.554  0.3401  1.2676 -0.3861
 1333SOL     OW 6536   3.377   2.146   2.056 -0.2034  0.1870  0.4315
 1333SOL    HW1 6537   3.392   2.217   2.120  0.9372 -1.4814  2.0731
 1333SOL    HW2 6538   3.459   2.141   2.007  0.2761 -0.9857  1.3375
 1334SOL     OW 6539   6.803   4.461   0.545  0.6158  0.4036  0.1361
 1334SOL    HW1 6540   6.760   4.537   0.583  0.4335  0.1196  0.4932
 1334SOL    HW2 6541   6.732   4.408   0.510  0.7418  0.3884 -0.0996
 1335SOL     OW 6542   4.972   1.100   5.206 -0.5661  0.1615 -0.4112
 1335SOL    HW1 6543   5.047   1.093   5.146 -0.5584 -2.0487 -0.1965
 1335SOL    HW2 6544   4.896   1.106   5.149 -0.3789  0.4019 -0.6369
 1336SOL     OW 6545   0.068   2.817   2.631 -0.2056 -0.2964 -0.0254
 1336SOL    HW1 6546   0.140   2.881   2.636 -0.2291 -0.2523 -0.2645
 1336SOL    HW2 6547   0.014   2.836   2.708 -1.6106  1.6267 -1.4564
 1337SOL     OW 6548   7.414   0.601   3.629 -0.5376  0.4216 -0.1680
 1337SOL    HW1 6549   7.508   0.619   3.637 -0.4086 -0.6547  1.0080
 1337SOL    HW2 6550   7.374   0.651   3.701 -0.6668 -0.3949  0.3430
 1338SOL     OW 6551   6.007   3.678   4.445  0.3615  0.0417  0.4813
 1338SOL    HW1 6552   5.984   3.658   4.536 -0.5220  1.7548  0.6589
 1338SOL    HW2 6553   6.101   3.660   4.440  0.2540 -0.8623  1.5058
 1339SOL     OW 6554   9.851   0.351   9.734  0.0233 -0.6931 -0.1982
 1339SOL    HW1 6555   9.923   0.290   9.750 -0.4801 -1.6438 -1.4496
 1339SOL    HW2 6556   9.796   0.345   9.811 -0.4716 -2.4724 -0.6738
 1340SOL     OW 6557   0.087   3.718   3.711 -0.1239  0.4790 -0.4373
 1340SOL    HW1 6558   0.020   3.661   3.672 -2.1431  1.9129  0.8614
 1340SOL    HW2 6559   0.064   3.722   3.804  0.5172  2.6756 -0.3476
 1341SOL     OW 6560   4.827   4.700   7.078 -0.6091 -0.2662  0.1594
 1341SOL    HW1 6561   4.877   4.726   7.155  0.6729 -1.5854 -0.2044
 1341SOL    HW2 6562   4.816   4.781   7.028  1.8815 -0.0730 -0.1526
 1342SOL     OW 6563   1.629   0.764   3.708 -0.4874  0.8163  0.3609
 1342SOL    HW1 6564   1.588   0.691   3.754  2.5415 -1.5135 -0.4016
 1342SOL    HW2 6565   1.577   0.775   3.628 -0.0652 -1.6822 -0.3209
 1343SOL     OW 6566   8.449   4.093   6.419  0.8588  0.6268  0.0813
 1343SOL    HW1 6567   8.450   4.004   6.456  1.5536  0.9606  0.8848
 1343SOL    HW2 6568   8.398   4.145   6.481 -0.1455  0.6481 -0.7512
 1344SOL     OW 6569   8.580  10.051   3.340  0.0074 -0.0499  0.5481
 1344SOL    HW1 6570   8.560   9.977   3.283  0.0228 -0.1064  0.6158
 1344SOL    HW2 6571   8.674  10.043   3.357  0.2315  0.6174 -0.3402
 1345SOL     OW 6572   4.843   2.589   1.123 -0.0804 -0.2210 -0.1357
 1345SOL    HW1 6573   4.852   2.684   1.128 -0.0186 -0.1637 -1.2058
 1345SOL    HW2 6574   4.851   2.560   1.214 -1.3557  0.8913  0.3575
 1346SOL     OW 6575   4.019   1.047   2.331 -0.3030 -0.0214 -0.0019
 1346SOL    HW1 6576   4.083   1.110   2.299 -0.2928  0.1713  0.4006
 1346SOL    HW2 6577   4.069   0.966   2.343 -0.1685  0.0814  0.1440
 1347SOL     OW 6578   6.576   2.781   1.000  0.0530  0.3048 -0.8677
 1347SOL    HW1 6579   6.496   2.787   0.948  0.5138  3.3025 -1.3521
 1347SOL    HW2 6580   6.547   2.755   1.087 -1.1829 -0.7437 -1.5784
 1348SOL     OW 6581   2.327   6.651   0.310  0.3000  0.2810 -0.2693
 1348SOL    HW1 6582   2.378   6.722   0.350  1.9021 -1.9632  1.7808
 1348SOL    HW2 6583   2.379   6.624   0.234  0.9643 -0.4021  0.4282
 1349SOL     OW 6584   3.669   0.777   5.718  0.6829  0.4542  0.4195
 1349SOL    HW1 6585   3.592   0.828   5.692  1.3168  0.3319 -1.8012
 1349SOL    HW2 6586   3.742   0.820   5.675  1.7865  0.1100  1.9026
 1350SOL     OW 6587   3.983   6.566   0.718  0.6111 -0.0026  0.2013
 1350SOL    HW1 6588   4.057   6.605   0.765  0.1995 -0.3307  1.1351
 1350SOL    HW2 6589   3.907   6.616   0.747  0.0706 -1.5274  1.4496
 1351SOL     OW 6590   6.749   7.103   0.666  0.1612 -0.1882  0.9085
 1351SOL    HW1 6591   6.793   7.018   0.675  1.1417  0.3816  1.5322
 1351SOL    HW2 6592   6.777   7.134   0.580 -0.0308 -0.3995  0.7680
 1352SOL     OW 6593   5.642   8.860   0.563 -0.1445  0.1833 -0.4640
 1352SOL    HW1 6594   5.637   8.785   0.505  0.1216  0.2063 -0.5194
 1352SOL    HW2 6595   5.735   8.882   0.565 -0.0518 -0.2720  0.5527
 1353SOL     OW 6596   6.056   8.879   2.339 -0.0894  0.1916  0.3930
 1353SOL    HW1 6597   6.026   8.969   2.341  0.9958  0.5704  0.2415
 1353SOL    HW2 6598   6.141   8.883   2.296 -0.4490 -1.0332 -0.4515
 1354SOL     OW 6599   2.209   8.219   5.971  0.7802 -0.0967  0.2053
 1354SOL    HW1 6600   2.304   8.217   5.961  0.8203  0.2973  0.4700
 1354SOL    HW2 6601   2.179   8.267   5.894  0.8812  0.6661  0.6316
 1355SOL     OW 6602   9.087   4.295   0.506 -0.2073 -0.4802  0.3239
 1355SOL    HW1 6603   9.057   4.348   0.580 -0.9751 -0.6676  0.1499
 1355SOL    HW2 6604   9.175   4.265   0.531  0.1605  0.7275  0.5008
 1356SOL     OW 6605   6.092   1.674   1.405  0.3144  0.4043 -0.1622
 1356SOL    HW1 6606   6.184   1.696   1.418 -0.0165  1.4251  0.4720
 1356SOL    HW2 6607   6.055   1.672   1.493 -0.6300  1.5704 -0.5205
 1357SOL     OW 6608   6.118   9.076   5.355  0.4348  0.3144  0.5659
 1357SOL    HW1 6609   6.100   9.010   5.423  1.7398  0.7335  1.3258
 1357SOL    HW2 6610   6.031   9.102   5.324 -0.0780 -2.6063 -0.5677
 1358SOL     OW 6611   3.096   9.080   3.117 -0.7323 -0.0786 -0.0481
 1358SOL    HW1 6612   3.128   9.112   3.033 -1.7810 -1.9744 -1.2274
 1358SOL    HW2 6613   3.165   9.021   3.148 -2.6027 -3.6082 -2.2471
 1359SOL     OW 6614   3.636   4.530   6.769  0.1025  0.2537 -0.0160
 1359SOL    HW1 6615   3.640   4.501   6.678 -0.1318  1.2305 -0.3385
 1359SOL    HW2 6616   3.682   4.462   6.818 -2.4626 -1.8881 -0.4561
 1360SOL     OW 6617   6.321   5.531   4.338 -0.3610  0.0196  0.2377
 1360SOL    HW1 6618   6.337   5.589   4.413 -1.1803 -0.3803  0.7166
 1360SOL    HW2 6619   6.252   5.575   4.288 -0.6810 -0.3265  0.3731
 1361SOL     OW 6620   2.363   0.796   3.429 -0.1249  0.0852 -0.1178
 1361SOL    HW1 6621   2.342   0.768   3.518 -1.1468  0.3733 -0.2593
 1361SOL    HW2 6622   2.336   0.888   3.426 -1.0681 -0.2038 -1.0222
 1362SOL     OW 6623   6.864   1.098   5.793 -0.2961  0.1503  0.0635
 1362SOL    HW1 6624   6.949   1.090   5.835  0.3885  0.6546 -1.2167
 1362SOL    HW2 6625   6.851   1.015   5.748 -0.8450 -0.2311  0.9123
 1363SOL     OW 6626   6.996   1.587   5.258  0.0260  0.7883  0.0636
 1363SOL    HW1 6627   7.057   1.514   5.251 -0.2979  0.6550 -1.3936
 1363SOL    HW2 6628   6.910   1.548   5.248 -0.1957  1.2594  0.1230
 1364SOL     OW 6629   8.003   2.553   7.560 -0.4229 -0.1999 -0.9959
 1364SOL    HW1 6630   7.961   2.579   7.477 -1.8856 -1.4642 -0.6872
 1364SOL    HW2 6631   7.971   2.617   7.624  1.2258  1.1751 -1.5075
 1365SOL     OW 6632   4.101   7.846   6.300  0.4783 -0.1512  0.2403
 1365SOL    HW1 6633   4.114   7.925   6.247  1.6502 -1.5823 -1.6661
 1365SOL    HW2 6634   4.035   7.796   6.253 -0.3022 -0.3080  1.4767
 1366SOL     OW 6635   2.136   7.534   2.459 -0.4219  0.4077 -0.1705
 1366SOL    HW1 6636   2.143   7.439   2.465 -0.2169  0.3303 -1.4693
 1366SOL    HW2 6637   2.132   7.563   2.550  3.4711 -0.5623  0.3947
 1367SOL     OW 6638   9.944   3.677   7.416 -0.3848 -0.1354 -0.0331
 1367SOL    HW1 6639  10.039   3.688   7.418 -0.0800 -2.2076 -1.8667
 1367SOL    HW2 6640   9.926   3.613   7.484 -0.0954 -2.0882 -1.7564
 1368SOL     OW 6641   8.692   9.993   6.306 -0.0665 -0.5354 -0.6164
 1368SOL    HW1 6642   8.691  10.089   6.308  0.1287 -0.5365 -0.4300
 1368SOL    HW2 6643   8.785   9.970   6.305 -0.1128 -0.7418  0.2166
 1369SOL     OW 6644   3.972   8.487   4.610 -0.6575 -0.4367  0.2762
 1369SOL    HW1 6645   3.878   8.499   4.600 -0.0968  2.7293 -1.6605
 1369SOL    HW2 6646   4.001   8.564   4.658  1.4889  0.5790 -2.5625
 1370SOL     OW 6647   4.337   5.061   7.748 -0.2839  0.4420 -0.1120
 1370SOL    HW1 6648   4.265   5.056   7.811  0.5257  2.2210  1.0188
 1370SOL    HW2 6649   4.333   4.979   7.699 -1.0170 -0.9563  2.1977
 1371SOL     OW 6650   0.103  10.075   7.870  0.3252  0.2655 -0.0475
 1371SOL    HW1 6651   0.074  10.152   7.919 -0.5946  0.1556 -0.4064
 1371SOL    HW2 6652   0.089  10.002   7.929  2.2021  0.4780  0.6928
 1372SOL     OW 6653   9.045   1.924   2.999  0.3911  0.3187  0.1095
 1372SOL    HW1 6654   8.973   1.866   3.024 -1.3059  2.1373 -0.3643
 1372SOL    HW2 6655   9.124   1.870   3.005 -1.1235 -2.0002 -0.2984
 1373SOL     OW 6656   2.794   9.467   2.415  0.1147  0.2196 -0.3610
 1373SOL    HW1 6657   2.765   9.547   2.459  0.7042 -0.5952  1.5706
 1373SOL    HW2 6658   2.748   9.397   2.460  2.4402 -0.8089  0.4781
 1374SOL     OW 6659   3.368   1.594   1.045 -0.0209  0.0940 -0.0479
 1374SOL    HW1 6660   3.273   1.597   1.053 -0.0861  1.3112 -1.1081
 1374SOL    HW2 6661   3.384   1.578   0.952  0.8048 -1.4312  0.3446
 1375SOL     OW 6662   5.339   1.621   0.591  0.7523 -0.1333 -0.4935
 1375SOL    HW1 6663   5.382   1.582   0.514  0.0335 -1.0650 -0.4387
 1375SOL    HW2 6664   5.338   1.550   0.656 -0.1263  0.1303 -0.2079
 1376SOL     OW 6665   5.418   9.983   3.536  0.6211  0.1974 -0.0338
 1376SOL    HW1 6666   5.491  10.024   3.490 -0.3257  0.4649 -1.3169
 1376SOL    HW2 6667   5.340  10.007   3.485 -0.5573  1.2305  2.1668
 1377SOL     OW 6668   7.909   0.462   8.129  0.5713 -0.4126  0.0592
 1377SOL    HW1 6669   7.868   0.548   8.145 -0.8987 -1.0391 -0.2298
 1377SOL    HW2 6670   7.835   0.402   8.119  1.5091 -1.1611 -2.9208
 1378SOL     OW 6671   4.439   1.007   9.196  0.2013  0.3572 -0.1480
 1378SOL    HW1 6672   4.385   0.993   9.274 -1.5173  3.3583 -0.7386
 1378SOL    HW2 6673   4.401   0.950   9.129 -0.6604  0.5779  0.1489
 1379SOL     OW 6674   2.963   9.709   2.779  0.4280  0.7986  0.5671
 1379SOL    HW1 6675   2.915   9.628   2.798  0.1561  0.2905 -2.0060
 1379SOL    HW2 6676   3.047   9.678   2.743  0.9126  1.6739  0.9407
 1380SOL     OW 6677   0.737   8.473   6.097  0.2899  0.6884 -0.1968
 1380SOL    HW1 6678   0.759   8.387   6.060  0.4903  0.0928  1.2538
 1380SOL    HW2 6679   0.655   8.497   6.055 -0.5632 -0.9168  0.4778
 1381SOL     OW 6680   8.513   8.216   2.226  0.7908  0.2551 -0.2802
 1381SOL    HW1 6681   8.496   8.132   2.269 -0.6257  0.7852  0.1989
 1381SOL    HW2 6682   8.600   8.206   2.188  1.2312 -0.9366  0.9998
 1382SOL     OW 6683   4.299   9.571   4.251  0.1668 -0.6084  0.3265
 1382SOL    HW1 6684   4.350   9.518   4.190 -0.2746  1.5828 -2.0222
 1382SOL    HW2 6685   4.363   9.633   4.288 -0.0403 -0.3596  0.2695
 1383SOL     OW 6686   0.883   3.038   7.848  0.0322 -0.1154  0.2323
 1383SOL    HW1 6687   0.963   3.074   7.809  0.2533 -0.7995  0.0407
 1383SOL    HW2 6688   0.884   2.945   7.822 -0.2937 -0.3617  1.0895
 1384SOL     OW 6689   1.968   2.973   5.641  0.0413  0.4737  0.0689
 1384SOL    HW1 6690   1.969   2.975   5.737 -0.2439  2.5702  0.0589
 1384SOL    HW2 6691   1.880   2.944   5.618 -0.2076  0.9350  0.4413
 1385SOL     OW 6692   6.875   2.792   6.507 -0.0557 -1.0740 -0.0953
 1385SOL    HW1 6693   6.941   2.811   6.440  0.2426  2.2177  1.0788
 1385SOL    HW2 6694   6.794   2.828   6.471  0.3401  1.8326  1.7710
 1386SOL     OW 6695   2.328   9.272   3.806 -0.1046  0.1693 -0.2888
 1386SOL    HW1 6696   2.368   9.213   3.742  1.2792  1.1446 -0.3335
 1386SOL    HW2 6697   2.251   9.307   3.760 -1.1361 -1.8054 -0.1491
 1387SOL     OW 6698   9.060   4.828   8.070 -0.1281  0.4832 -0.4900
 1387SOL    HW1 6699   9.000   4.851   8.141  0.0072  2.3257 -0.9471
 1387SOL    HW2 6700   9.069   4.908   8.019  3.1614  0.4079 -0.1299
 1388SOL     OW 6701   1.183   6.323   1.983  0.2898  0.2947  0.2749
 1388SOL    HW1 6702   1.265   6.298   1.942 -0.5843 -0.2228 -1.1838
 1388SOL    HW2 6703   1.116   6.269   1.940 -0.9877  1.6369  0.5118
 1389SOL     OW 6704   0.920   4.752   7.381  0.1153  0.3271 -0.0730
 1389SOL    HW1 6705   0.970   4.832   7.367  0.4422  0.1725  0.2148
 1389SOL    HW2 6706   0.829   4.781   7.387  0.0274  0.4941 -1.7516
 1390SOL     OW 6707   1.777   9.219   1.427  0.2756  0.2099  0.0651
 1390SOL    HW1 6708   1.821   9.287   1.376  1.6470 -0.1875  0.6832
 1390SOL    HW2 6709   1.805   9.236   1.517  1.5882 -1.8702  0.0728
 1391SOL     OW 6710   4.129   0.712   5.738 -0.8732 -0.0027 -0.1216
 1391SOL    HW1 6711   4.063   0.655   5.775 -0.3889 -0.2761  0.3207
 1391SOL    HW2 6712   4.118   0.795   5.785  0.4044 -0.6521  1.3654
 1392SOL     OW 6713   8.390   4.574   7.969 -0.2092 -0.4451 -0.5451
 1392SOL    HW1 6714   8.315   4.605   7.919 -0.9607  0.0419  0.8548
 1392SOL    HW2 6715   8.447   4.651   7.977 -0.3745 -0.3600 -0.1534
 1393SOL     OW 6716   4.056   5.621   1.076 -0.1282 -1.0824 -0.4612
 1393SOL    HW1 6717   4.096   5.651   1.157  0.5747  0.8136 -1.4809
 1393SOL    HW2 6718   3.972   5.666   1.072  0.5063  0.0579 -1.5126
 1394SOL     OW 6719   6.352   6.942   3.690  0.9113 -0.5145 -0.4042
 1394SOL    HW1 6720   6.415   6.880   3.727  1.9611  1.0611  0.5375
 1394SOL    HW2 6721   6.373   7.025   3.733 -1.1024  0.2800 -0.9118
 1395SOL     OW 6722   0.666   8.077   7.455 -0.4665  0.4754 -0.1948
 1395SOL    HW1 6723   0.662   7.990   7.417  3.2785 -0.5351  1.4368
 1395SOL    HW2 6724   0.715   8.129   7.390  1.8460 -0.0435  1.0829
 1396SOL     OW 6725   0.349   6.715   8.796  0.3216 -0.2275 -0.7074
 1396SOL    HW1 6726   0.318   6.805   8.795  0.7381 -0.0639  0.6279
 1396SOL    HW2 6727   0.271   6.662   8.777 -0.8150  0.1869  2.5119
 1397SOL     OW 6728   1.640   2.454   6.429  0.6473  0.9198 -0.3343
 1397SOL    HW1 6729   1.554   2.488   6.407 -0.6572 -2.0916 -0.1165
 1397SOL    HW2 6730   1.686   2.449   6.345 -1.3956 -2.6592 -1.3679
 1398SOL     OW 6731   9.193   6.397   7.798  0.1031  0.1431  0.1042
 1398SOL    HW1 6732   9.228   6.346   7.725  0.7215 -1.3763  1.4297
 1398SOL    HW2 6733   9.110   6.433   7.766 -0.2518 -1.5564 -0.9030
 1399SOL     OW 6734   6.598   0.613   4.832 -0.1550  0.3710  0.6191
 1399SOL    HW1 6735   6.580   0.641   4.922  0.8807  1.6613  0.4490
 1399SOL    HW2 6736   6.554   0.679   4.777 -1.9625 -1.1820  0.1467
 1400SOL     OW 6737   7.286   7.414   8.820 -0.7348 -0.1633  0.3584
 1400SOL    HW1 6738   7.297   7.340   8.880  0.5614  0.0431  0.3902
 1400SOL    HW2 6739   7.224   7.383   8.754 -0.3279 -1.2150  0.4671
 1401SOL     OW 6740   7.156   2.157   2.123 -0.1464  0.0778  0.0972
 1401SOL    HW1 6741   7.213   2.171   2.047  1.2230  0.3567  1.1614
 1401SOL    HW2 6742   7.215   2.127   2.192 -1.6225 -1.6862  0.6246
 1402SOL     OW 6743   3.217   9.962   1.240 -0.3287 -0.0462 -0.0870
 1402SOL    HW1 6744   3.171  10.025   1.185 -0.5404 -0.8996 -0.8915
 1402SOL    HW2 6745   3.241   9.891   1.181  0.0104 -0.6726  0.7919
 1403SOL     OW 6746   2.859   2.727   6.766  0.4045  0.0950  0.7726
 1403SOL    HW1 6747   2.765   2.714   6.756  0.7468 -2.3115  0.4275
 1403SOL    HW2 6748   2.884   2.671   6.839  1.8147 -0.5165 -0.1567
 1404SOL     OW 6749   2.935   3.395   6.926  0.4577  0.4835 -0.5634
 1404SOL    HW1 6750   2.870   3.372   6.860  0.5554 -0.0845 -0.4629
 1404SOL    HW2 6751   2.946   3.490   6.916 -0.3749  0.5852 -0.5850
 1405SOL     OW 6752   8.071   5.004   6.733 -0.0136  0.6162 -0.0554
 1405SOL    HW1 6753   8.048   5.037   6.646  1.3334  1.3831 -0.1329
 1405SOL    HW2 6754   8.090   5.083   6.784  2.6612  0.0264 -0.0749
 1406SOL     OW 6755   4.629   1.924   9.005  0.1334 -0.0597  0.4302
 1406SOL    HW1 6756   4.604   1.848   8.952  1.0932 -0.0564 -0.0305
 1406SOL    HW2 6757   4.589   1.907   9.091 -1.2509 -0.1658 -0.2159
 1407SOL     OW 6758   2.853   2.342   1.747  0.1201  0.7989  0.7365
 1407SOL    HW1 6759   2.813   2.363   1.663  1.5279  2.1405  0.3796
 1407SOL    HW2 6760   2.898   2.259   1.732 -1.1929  0.0896  0.7014
 1408SOL     OW 6761   4.884   0.783   1.918 -0.1354 -0.5689 -0.2391
 1408SOL    HW1 6762   4.837   0.745   1.845  0.7928 -1.2976 -0.4779
 1408SOL    HW2 6763   4.842   0.746   1.996 -0.3412 -0.7418 -0.4318
 1409SOL     OW 6764   7.895   2.392   0.568 -0.6448  0.2846 -0.2317
 1409SOL    HW1 6765   7.881   2.366   0.659  2.7425 -0.1587  0.2439
 1409SOL    HW2 6766   7.895   2.487   0.569  1.6526  0.3059  0.6904
 1410SOL     OW 6767   0.047   1.610   2.925 -0.4672  1.0669  0.4728
 1410SOL    HW1 6768   0.036   1.622   2.831 -1.4084  2.1797  0.7130
 1410SOL    HW2 6769   0.137   1.580   2.935 -0.4237  0.7621 -0.7992
 1411SOL     OW 6770   3.895   9.299   8.145 -0.2025 -0.0296 -0.1320
 1411SOL    HW1 6771   3.932   9.268   8.228 -0.8151 -1.8616 -0.4984
 1411SOL    HW2 6772   3.820   9.241   8.130 -1.3218  1.6002 -0.9521
 1412SOL     OW 6773   5.990   5.273   2.877  0.0505 -0.1133 -0.3786
 1412SOL    HW1 6774   6.071   5.229   2.851 -0.8692 -2.8309  1.1496
 1412SOL    HW2 6775   5.987   5.352   2.823  3.9760  0.3489 -0.0452
 1413SOL     OW 6776   1.639   1.351   3.618  0.5044 -0.3120 -0.6660
 1413SOL    HW1 6777   1.584   1.399   3.681  0.2233  0.4329 -1.4725
 1413SOL    HW2 6778   1.634   1.260   3.648  0.0866 -0.0227  0.1882
 1414SOL     OW 6779   8.275   9.396   8.257 -0.0218 -0.4609 -0.1277
 1414SOL    HW1 6780   8.369   9.414   8.255 -0.1869  0.4339 -0.3977
 1414SOL    HW2 6781   8.260   9.337   8.184  0.6472 -2.2812  1.1847
 1415SOL     OW 6782   0.735   2.280   5.837 -0.1993 -0.2345 -0.1527
 1415SOL    HW1 6783   0.752   2.275   5.931 -0.5486 -0.8039 -0.1165
 1415SOL    HW2 6784   0.722   2.374   5.820  0.6067 -0.0540  0.2280
 1416SOL     OW 6785   4.564   0.045   3.401  0.2849  0.2910 -0.3715
 1416SOL    HW1 6786   4.583   0.064   3.310 -0.0113  1.6798 -0.1474
 1416SOL    HW2 6787   4.575   0.129   3.447 -1.6614  0.0947  0.5245
 1417SOL     OW 6788   6.850   0.486   3.741 -0.1015  0.1659  0.3637
 1417SOL    HW1 6789   6.757   0.503   3.726  0.2515  0.3040 -1.8663
 1417SOL    HW2 6790   6.857   0.390   3.741 -0.1538  0.1576 -0.1963
 1418SOL     OW 6791   2.008   2.550   1.361  0.3659 -0.3641  0.0222
 1418SOL    HW1 6792   2.078   2.543   1.426 -0.6445  1.7658  1.4254
 1418SOL    HW2 6793   1.962   2.466   1.365 -0.4173  0.1552  2.9847
 1419SOL     OW 6794   0.700   0.974   9.926 -0.4795  0.3873  0.2324
 1419SOL    HW1 6795   0.696   1.061   9.966 -1.1156  0.5996 -0.2897
 1419SOL    HW2 6796   0.793   0.951   9.928 -0.3747  0.8605  0.8389
 1420SOL     OW 6797   6.285   5.838   0.431  0.5509 -0.1382 -0.4789
 1420SOL    HW1 6798   6.202   5.791   0.429  0.5392 -0.2384  1.1540
 1420SOL    HW2 6799   6.263   5.929   0.411  0.3031 -0.4836 -1.7775
 1421SOL     OW 6800   9.727   3.360   0.654  0.1891  0.2371 -0.4408
 1421SOL    HW1 6801   9.788   3.420   0.697  0.2863 -0.6658  0.6910
 1421SOL    HW2 6802   9.764   3.346   0.567  0.3073  1.6080 -0.6254
 1422SOL     OW 6803   2.575   5.697   2.777  0.4840  0.3217 -0.4298
 1422SOL    HW1 6804   2.632   5.770   2.754 -2.3547  2.8274  0.1111
 1422SOL    HW2 6805   2.535   5.670   2.694 -0.5030  1.2352 -0.2711
 1423SOL     OW 6806   3.730   6.688   5.345 -0.2800 -0.1527  0.3767
 1423SOL    HW1 6807   3.665   6.656   5.408 -1.0878 -1.2696 -1.0181
 1423SOL    HW2 6808   3.788   6.613   5.330 -0.7693 -0.2484 -1.0882
 1424SOL     OW 6809   2.209   4.948  10.047  0.1499  0.1820 -0.0443
 1424SOL    HW1 6810   2.275   4.912  10.107 -0.6672 -0.9595  0.1805
 1424SOL    HW2 6811   2.179   5.028  10.090  1.6742  0.9313 -0.3385
 1425SOL     OW 6812   2.809   1.211   9.624 -0.2165  0.2416 -0.0196
 1425SOL    HW1 6813   2.897   1.204   9.662 -0.8853  1.5195  1.7981
 1425SOL    HW2 6814   2.805   1.300   9.590 -0.3194 -0.2776 -1.3999
 1426SOL     OW 6815  10.029   4.574   6.505  0.6873 -0.4172 -0.0271
 1426SOL    HW1 6816  10.088   4.537   6.570  2.1611  1.4116 -0.2775
 1426SOL    HW2 6817  10.017   4.504   6.441  0.7558 -1.5697  1.1914
 1427SOL     OW 6818   5.528   7.085   3.218 -0.3560 -0.1995  0.1714
 1427SOL    HW1 6819   5.576   7.126   3.145 -0.7460  0.5925  0.3547
 1427SOL    HW2 6820   5.597   7.051   3.275 -0.0282  0.1333 -0.0218
 1428SOL     OW 6821   7.708   2.283   8.627  0.4461 -0.2211 -0.2160
 1428SOL    HW1 6822   7.648   2.293   8.553 -0.6874 -1.6810  0.4660
 1428SOL    HW2 6823   7.754   2.366   8.632 -1.9886  1.2089 -0.3802
 1429SOL     OW 6824   1.240   9.197   6.601  0.6238 -0.4614 -0.2505
 1429SOL    HW1 6825   1.233   9.102   6.598 -0.6141 -0.3733 -0.6172
 1429SOL    HW2 6826   1.267   9.216   6.691  3.8190 -1.2923 -0.9866
 1430SOL     OW 6827   1.193   0.937   5.119 -0.0395 -0.0736  0.0926
 1430SOL    HW1 6828   1.108   0.893   5.119 -0.8029  1.3233  1.5183
 1430SOL    HW2 6829   1.235   0.908   5.201  0.5794 -0.2502 -0.2854
 1431SOL     OW 6830   8.743   4.523   2.226 -0.5488  0.4606 -0.1045
 1431SOL    HW1 6831   8.751   4.599   2.283  2.2337  0.2160 -0.0927
 1431SOL    HW2 6832   8.730   4.449   2.286 -1.6050  0.6921 -0.0326
 1432SOL     OW 6833   1.875   3.606   9.245 -0.2316  0.2906 -0.6965
 1432SOL    HW1 6834   1.950   3.567   9.200 -0.5328 -0.9547 -0.1457
 1432SOL    HW2 6835   1.876   3.698   9.219  0.1659 -0.2011 -2.4712
 1433SOL     OW 6836   3.589   8.806   4.652  0.2096  0.2252 -0.1710
 1433SOL    HW1 6837   3.600   8.711   4.662 -0.0746  0.3902  1.9082
 1433SOL    HW2 6838   3.630   8.826   4.567  0.5724 -1.6972 -0.4699
 1434SOL     OW 6839   5.247   0.411   3.854  0.2687  0.6579  0.1856
 1434SOL    HW1 6840   5.223   0.341   3.916  0.5178 -0.2769 -0.7672
 1434SOL    HW2 6841   5.308   0.465   3.903 -0.8474  0.9005  1.3498
 1435SOL     OW 6842   9.752   6.524   8.238 -0.2671  0.2177  0.1057
 1435SOL    HW1 6843   9.799   6.606   8.250  2.5320 -1.4637  1.3137
 1435SOL    HW2 6844   9.704   6.512   8.320 -2.2635  1.5536 -0.8279
 1436SOL     OW 6845   1.228   9.313   5.615 -0.0467  0.0283  0.2945
 1436SOL    HW1 6846   1.185   9.236   5.577  0.7753 -0.6309  0.6978
 1436SOL    HW2 6847   1.233   9.294   5.708 -2.7460  1.9662  0.9166
 1437SOL     OW 6848   5.175   2.816   0.063 -0.0837  0.1682  0.3092
 1437SOL    HW1 6849   5.171   2.816  -0.032  1.8892  0.0766  0.1991
 1437SOL    HW2 6850   5.131   2.896   0.090  0.8346  1.0440 -0.7673
 1438SOL     OW 6851   6.085   6.469   0.657  0.1465  0.0699  0.6177
 1438SOL    HW1 6852   6.108   6.420   0.736  0.1557  0.1884  0.6882
 1438SOL    HW2 6853   6.038   6.546   0.689  0.1600  0.1242  0.5086
 1439SOL     OW 6854   9.032   6.011   8.435  0.7552  0.1006  0.2326
 1439SOL    HW1 6855   9.052   5.954   8.509  2.3284 -1.2136 -1.1363
 1439SOL    HW2 6856   9.118   6.037   8.401  0.0699  0.6893 -1.1200
 1440SOL     OW 6857   7.798   5.474   5.756  0.3124 -0.2296  0.2808
 1440SOL    HW1 6858   7.851   5.426   5.693  2.3009  1.3157  0.7319
 1440SOL    HW2 6859   7.859   5.496   5.827 -0.9840  1.3278  0.9507
 1441SOL     OW 6860   9.796   0.557   6.667 -0.0864 -0.5146 -0.2916
 1441SOL    HW1 6861   9.839   0.484   6.623  0.1552 -0.3506 -0.3295
 1441SOL    HW2 6862   9.799   0.535   6.760 -0.1355 -0.6181 -0.3143
 1442SOL     OW 6863   4.407   5.307   2.681  0.2113  0.1610 -0.1388
 1442SOL    HW1 6864   4.497   5.275   2.684  0.5609  1.2665  2.3525
 1442SOL    HW2 6865   4.364   5.267   2.756 -0.0482  3.3036  1.5023
 1443SOL     OW 6866   2.596   5.369   3.119  0.7332  0.4236 -0.2530
 1443SOL    HW1 6867   2.612   5.461   3.096  2.2212  0.3640  0.4749
 1443SOL    HW2 6868   2.565   5.330   3.038 -1.5332  1.9239 -0.1653
 1444SOL     OW 6869   8.789   4.335   7.201 -0.1234 -0.3776  0.1084
 1444SOL    HW1 6870   8.787   4.392   7.125 -0.0653 -0.1706  0.2624
 1444SOL    HW2 6871   8.882   4.325   7.223 -0.1861  0.3049  0.7092
 1445SOL     OW 6872  10.070   6.051   7.013 -0.1608 -0.2546 -0.3016
 1445SOL    HW1 6873  10.145   5.994   7.000 -0.5857 -0.8276 -0.2409
 1445SOL    HW2 6874  10.005   5.997   7.058 -1.0501 -0.1058 -1.3855
 1446SOL     OW 6875   0.792   7.872   1.065 -0.1988 -0.0827  0.4499
 1446SOL    HW1 6876   0.773   7.925   1.142  1.8891  1.4105  0.0041
 1446SOL    HW2 6877   0.732   7.904   0.998 -0.0985  0.5544  0.6633
 1447SOL     OW 6878   0.583   3.543   2.733  0.0712 -0.2400 -0.4362
 1447SOL    HW1 6879   0.652   3.579   2.677 -0.9437  1.8906 -0.3879
 1447SOL    HW2 6880   0.515   3.514   2.672  0.4331 -1.1000 -0.4329
 1448SOL     OW 6881   5.055   0.866  10.110 -0.4508 -0.4117  0.4719
 1448SOL    HW1 6882   5.057   0.829  10.198 -0.1881 -1.7481 -0.0847
 1448SOL    HW2 6883   5.051   0.790  10.052  1.8311  0.3521 -0.7602
 1449SOL     OW 6884   1.839   8.168   8.296 -0.8681  0.5191 -0.0560
 1449SOL    HW1 6885   1.917   8.186   8.243  0.0442 -0.2789  0.9716
 1449SOL    HW2 6886   1.792   8.100   8.246  0.0368 -0.3034  0.1856
 1450SOL     OW 6887   7.135   4.897   3.183  0.1756 -1.4534  0.2209
 1450SOL    HW1 6888   7.042   4.901   3.164  0.2922 -1.7851 -0.3993
 1450SOL    HW2 6889   7.141   4.920   3.276 -0.1826  2.4894 -0.6090
 1451SOL     OW 6890   3.058   3.766   9.172  0.3177  0.0392  0.2358
 1451SOL    HW1 6891   3.096   3.784   9.086  1.5342 -0.4994  0.6478
 1451SOL    HW2 6892   3.115   3.812   9.233 -0.7477  0.7089  0.7403
 1452SOL     OW 6893   7.613   9.608   3.445 -0.7045  0.2471  0.2324
 1452SOL    HW1 6894   7.527   9.640   3.417 -1.1898 -0.6247  0.6997
 1452SOL    HW2 6895   7.626   9.647   3.532 -1.3150 -0.8584  0.8200
 1453SOL     OW 6896   1.067   5.441   1.276 -0.1235 -0.7150 -0.7085
 1453SOL    HW1 6897   0.979   5.415   1.251  0.1742 -1.5127 -0.9533
 1453SOL    HW2 6898   1.089   5.384   1.350 -0.1523  0.0998 -0.0619
 1454SOL     OW 6899   1.328   8.381   8.712 -0.2648 -0.6083  0.1653
 1454SOL    HW1 6900   1.333   8.306   8.771  0.9321  0.5863  1.6147
 1454SOL    HW2 6901   1.263   8.439   8.752  0.5490  0.2042  0.3173
 1455SOL     OW 6902   7.471   6.412   2.420  0.0909  0.9192  0.2366
 1455SOL    HW1 6903   7.389   6.368   2.397  0.7501  0.4377 -1.2202
 1455SOL    HW2 6904   7.449   6.464   2.498 -1.3386  0.0277  0.4446
 1456SOL     OW 6905   2.329   4.054   7.841  0.1593  0.2994 -0.0667
 1456SOL    HW1 6906   2.345   4.114   7.768  0.0103  1.0650  0.5271
 1456SOL    HW2 6907   2.307   3.971   7.798  1.9631  0.2303 -0.8910
 1457SOL     OW 6908   7.288   0.171   1.869 -0.0101  0.2578  0.2301
 1457SOL    HW1 6909   7.307   0.216   1.787  1.4660 -2.3291 -0.9395
 1457SOL    HW2 6910   7.369   0.177   1.919  0.1438 -0.8367  0.1408
 1458SOL     OW 6911   1.737   9.325   7.991 -0.1549 -0.0054 -0.0977
 1458SOL    HW1 6912   1.741   9.421   7.994  0.8173  0.0473 -1.8241
 1458SOL    HW2 6913   1.828   9.298   8.003  0.0517 -0.5561 -2.5764
 1459SOL     OW 6914   3.402   6.367   9.951 -0.5482 -0.3430 -0.1817
 1459SOL    HW1 6915   3.438   6.392  10.037 -0.2985  1.3531 -0.7469
 1459SOL    HW2 6916   3.470   6.394   9.889 -0.6553 -1.7274 -0.8972
 1460SOL     OW 6917   2.893   1.049   5.428 -0.0745  0.6185 -0.5021
 1460SOL    HW1 6918   2.910   1.081   5.339 -1.4660  0.6558 -0.7583
 1460SOL    HW2 6919   2.822   0.986   5.417 -0.3843  0.7716  0.6131
 1461SOL     OW 6920   8.567   1.305   6.837  0.8234  0.1184 -0.3567
 1461SOL    HW1 6921   8.511   1.369   6.880  0.1815 -1.1567  0.7149
 1461SOL    HW2 6922   8.553   1.320   6.743 -0.9016  0.1508 -0.0991
 1462SOL     OW 6923   9.894   0.597   4.066  0.7623 -0.0606 -0.6410
 1462SOL    HW1 6924   9.833   0.523   4.068 -3.0864  2.9240 -1.3141
 1462SOL    HW2 6925   9.899   0.626   4.158  0.5493  0.1604 -0.6985
 1463SOL     OW 6926   2.706   5.965   2.108 -0.7764  0.5452  0.1184
 1463SOL    HW1 6927   2.793   6.001   2.121 -0.5303  0.2311 -0.6301
 1463SOL    HW2 6928   2.665   6.022   2.043 -0.3184 -0.6013 -1.2108
 1464SOL     OW 6929   4.567   3.708   5.988  0.6072 -0.2614  0.6616
 1464SOL    HW1 6930   4.510   3.730   6.061 -0.2814  0.1559 -0.1517
 1464SOL    HW2 6931   4.640   3.770   5.994 -1.2911  2.2105 -0.9268
 1465SOL     OW 6932   2.804   2.497   0.301  0.0868 -0.0330  0.6593
 1465SOL    HW1 6933   2.783   2.568   0.241  0.9316 -0.0806  0.2981
 1465SOL    HW2 6934   2.852   2.539   0.373  1.8789 -0.4411 -0.2737
 1466SOL     OW 6935   7.692   6.902   5.772  0.1378  0.1228 -0.2148
 1466SOL    HW1 6936   7.688   6.865   5.860 -1.5646  0.7252 -0.0300
 1466SOL    HW2 6937   7.601   6.904   5.742  0.2854  3.1214 -0.6284
 1467SOL     OW 6938  10.185   2.629   2.453 -0.5130  0.3809  0.1557
 1467SOL    HW1 6939  10.222   2.708   2.493 -0.3289 -0.5645  1.8867
 1467SOL    HW2 6940  10.091   2.635   2.471 -0.4904  0.1745  0.3438
 1468SOL     OW 6941   1.313   6.629   9.289  0.1572  0.3075 -0.2725
 1468SOL    HW1 6942   1.263   6.631   9.371  0.3464 -1.2444 -0.1071
 1468SOL    HW2 6943   1.251   6.659   9.223  0.0297  1.6719  0.4325
 1469SOL     OW 6944   5.842   9.073   0.959  0.1398 -0.1315 -0.7969
 1469SOL    HW1 6945   5.887   9.121   1.029 -1.5784  2.1417 -1.2120
 1469SOL    HW2 6946   5.861   8.981   0.978  1.3089  0.5517  1.5622
 1470SOL     OW 6947   2.527   1.312   8.230  0.4479  0.6320  0.3521
 1470SOL    HW1 6948   2.573   1.298   8.314 -0.9829 -0.2162  1.0153
 1470SOL    HW2 6949   2.556   1.238   8.176 -1.4001 -0.8756  1.3506
 1471SOL     OW 6950   6.021   9.919   2.068  0.6476 -0.0473 -0.6743
 1471SOL    HW1 6951   6.007   9.899   2.161  0.8214  3.5277  0.1979
 1471SOL    HW2 6952   5.940   9.893   2.025 -0.6764  1.1939  1.0145
 1472SOL     OW 6953   4.966   7.510   3.466 -0.2809  0.2458  0.4855
 1472SOL    HW1 6954   5.010   7.436   3.506 -0.0011 -0.0111 -0.2760
 1472SOL    HW2 6955   5.025   7.584   3.479 -0.5758  0.3425  1.2770
 1473SOL     OW 6956   2.936   3.965   5.714 -0.4230 -0.0642 -0.3522
 1473SOL    HW1 6957   2.878   4.038   5.734  2.3629  2.3865 -0.9369
 1473SOL    HW2 6958   2.928   3.953   5.619 -0.9505 -0.6039 -0.2430
 1474SOL     OW 6959   5.085   8.233   5.309  0.0336 -0.1931 -0.2594
 1474SOL    HW1 6960   5.175   8.211   5.331 -0.0088 -0.1724 -0.0515
 1474SOL    HW2 6961   5.063   8.179   5.233  0.1841 -0.2834 -0.2385
 1475SOL     OW 6962   2.847   1.524   0.304 -0.1268 -0.0534 -0.0537
 1475SOL    HW1 6963   2.846   1.432   0.330  0.1949  0.1823  0.8186
 1475SOL    HW2 6964   2.915   1.529   0.237  0.1878 -0.3705  0.2361
 1476SOL     OW 6965   7.534   4.685   5.752  0.3700 -0.0625  0.2155
 1476SOL    HW1 6966   7.494   4.719   5.833  1.4230 -1.5935  1.4003
 1476SOL    HW2 6967   7.464   4.635   5.710  0.8103 -2.1942  1.9552
 1477SOL     OW 6968   2.115   7.002   1.695  0.0681 -0.1795 -0.2413
 1477SOL    HW1 6969   2.109   6.928   1.756 -3.4606 -0.2780 -0.5983
 1477SOL    HW2 6970   2.118   6.960   1.609  1.3155  0.0430 -0.3107
 1478SOL     OW 6971   5.891   3.318   5.229 -0.4793 -0.8466 -0.4643
 1478SOL    HW1 6972   5.891   3.236   5.179 -1.5551 -1.4561  0.5107
 1478SOL    HW2 6973   5.856   3.294   5.314  2.0682  0.0330  0.8678
 1479SOL     OW 6974   8.992   1.325   3.811 -0.1282  0.1286 -0.1475
 1479SOL    HW1 6975   8.930   1.303   3.881 -1.7128 -1.2524 -1.9392
 1479SOL    HW2 6976   9.058   1.256   3.815  0.2353  0.5143  0.5174
 1480SOL     OW 6977   2.338   7.551   1.226  0.3508 -0.2395  0.4124
 1480SOL    HW1 6978   2.413   7.548   1.167 -1.3740  2.5010 -2.0571
 1480SOL    HW2 6979   2.281   7.480   1.198  0.7636 -0.6170  0.5277
 1481SOL     OW 6980   1.909   6.164   9.716  0.6230  0.5590 -0.7132
 1481SOL    HW1 6981   1.978   6.221   9.683  0.5195  0.7377 -0.6210
 1481SOL    HW2 6982   1.879   6.116   9.639  0.8390  0.4931 -0.7561
 1482SOL     OW 6983   0.262   4.974   3.694  0.1419  0.8431  0.2257
 1482SOL    HW1 6984   0.303   5.058   3.675  0.7059  0.6896  0.7118
 1482SOL    HW2 6985   0.317   4.910   3.649 -1.1146  0.8535 -1.3199
 1483SOL     OW 6986   2.798   6.756   3.191  0.1925 -0.6881 -0.5720
 1483SOL    HW1 6987   2.880   6.726   3.151  1.2656  0.4620  0.7518
 1483SOL    HW2 6988   2.739   6.767   3.117  2.0251  1.0105 -1.8407
 1484SOL     OW 6989   0.508   3.847   7.571  0.1887 -0.0430 -1.1253
 1484SOL    HW1 6990   0.536   3.911   7.637 -0.8528  0.7110 -1.4023
 1484SOL    HW2 6991   0.469   3.776   7.623 -1.7013  1.0901 -0.9786
 1485SOL     OW 6992   8.707   0.446   4.892  0.2890  0.6568 -0.0373
 1485SOL    HW1 6993   8.641   0.446   4.823  0.5019  0.3089 -0.2446
 1485SOL    HW2 6994   8.755   0.528   4.879  2.1162 -0.6821 -2.0519
 1486SOL     OW 6995   9.891   4.393   1.784 -0.0044  0.0202 -0.3148
 1486SOL    HW1 6996   9.921   4.347   1.706  1.9888  1.1674 -0.2476
 1486SOL    HW2 6997   9.942   4.356   1.856  1.6608  2.3436 -0.2732
 1487SOL     OW 6998   9.400   8.723   3.625  0.1276  0.1201 -0.4147
 1487SOL    HW1 6999   9.406   8.814   3.655 -0.6506  0.3958 -1.0606
 1487SOL    HW2 7000   9.395   8.730   3.530  0.0835 -0.6046 -0.4670
 1488SOL     OW 7001   2.469   2.152   1.261  0.2947  0.2388 -0.1111
 1488SOL    HW1 7002   2.425   2.216   1.316  0.2983  0.1208  0.0278
 1488SOL    HW2 7003   2.402   2.126   1.197  0.0709 -0.1567  0.2792
 1489SOL     OW 7004   1.826   2.006   2.465 -0.0669 -0.4306  0.2116
 1489SOL    HW1 7005   1.749   1.954   2.485  0.3492 -2.1447 -2.4814
 1489SOL    HW2 7006   1.885   1.991   2.539 -1.8203 -0.0299  1.7093
 1490SOL     OW 7007   3.218   3.429   6.844  0.2384 -0.1332  0.0175
 1490SOL    HW1 7008   3.124   3.429   6.856  0.0522 -0.6131 -1.3534
 1490SOL    HW2 7009   3.253   3.470   6.923 -1.0509 -0.8445  0.9665
 1491SOL     OW 7010   4.609   8.736   4.271 -0.2567  0.3484 -0.1261
 1491SOL    HW1 7011   4.570   8.649   4.268 -1.7707  0.9830  0.1822
 1491SOL    HW2 7012   4.663   8.741   4.193  0.4343 -1.1255  0.2381
 1492SOL     OW 7013   4.024   5.456   6.795  0.3601 -0.1280 -0.1794
 1492SOL    HW1 7014   4.092   5.390   6.809  1.1587  0.1841 -2.3438
 1492SOL    HW2 7015   4.072   5.539   6.790 -0.5143  0.4913  1.3733
 1493SOL     OW 7016   5.377   1.549   2.694  0.0483 -0.0693  0.2960
 1493SOL    HW1 7017   5.375   1.455   2.711 -2.3536  0.0843  0.9648
 1493SOL    HW2 7018   5.370   1.557   2.598 -1.3033 -0.5417  0.3473
 1494SOL     OW 7019   8.566   8.383   2.486  0.3303 -0.0055 -0.3876
 1494SOL    HW1 7020   8.526   8.325   2.422 -1.5474  0.2022  0.5770
 1494SOL    HW2 7021   8.614   8.325   2.545  0.5305 -0.3540 -0.8931
 1495SOL     OW 7022   0.956   0.594   1.749 -0.0594  0.1545 -0.0333
 1495SOL    HW1 7023   0.882   0.561   1.698 -1.4518  1.7929  0.8455
 1495SOL    HW2 7024   0.962   0.534   1.823  1.1558 -1.4878 -1.4389
 1496SOL     OW 7025   3.867   8.572   6.262 -0.4691 -0.2711  0.5138
 1496SOL    HW1 7026   3.874   8.650   6.317  1.7709 -0.1388  0.1205
 1496SOL    HW2 7027   3.862   8.607   6.173 -1.0917 -0.5360  0.4482
 1497SOL     OW 7028   9.560   3.446   7.582 -0.1944  0.3821  0.7466
 1497SOL    HW1 7029   9.567   3.391   7.504 -0.3319 -3.4120  3.2326
 1497SOL    HW2 7030   9.472   3.482   7.579  0.2526  1.3695 -1.4699
 1498SOL     OW 7031   4.704   8.928  10.090  0.0387  0.0920  0.1660
 1498SOL    HW1 7032   4.646   8.887  10.026 -1.0677  1.0214  0.5689
 1498SOL    HW2 7033   4.756   8.855  10.125  1.2807 -0.3150 -2.3914
 1499SOL     OW 7034   9.227   5.281   4.257 -0.1328  0.1771  0.2866
 1499SOL    HW1 7035   9.288   5.216   4.294 -0.1276  0.1055  0.1518
 1499SOL    HW2 7036   9.141   5.238   4.260  0.1998 -0.6647 -1.8203
 1500SOL     OW 7037   8.077   9.889   4.984 -0.8037  0.7154  0.5311
 1500SOL    HW1 7038   8.069   9.811   4.929 -0.9165  1.0471  0.0708
 1500SOL    HW2 7039   8.022   9.871   5.060 -0.4194  0.1349  0.6661
 1501SOL     OW 7040   2.415   1.316   3.595  0.5389  0.0663 -0.8975
 1501SOL    HW1 7041   2.503   1.354   3.594  0.1614  0.9896 -0.2908
 1501SOL    HW2 7042   2.362   1.376   3.542 -0.0857  0.4556  0.1382
 1502SOL     OW 7043   1.673   0.063   0.632 -0.3253 -0.0937  0.1188
 1502SOL    HW1 7044   1.667   0.045   0.538  0.2255 -0.8523  0.2290
 1502SOL    HW2 7045   1.706  -0.018   0.670  0.8467  0.6980  0.7951
 1503SOL     OW 7046   8.522   1.791   2.852  0.2697  0.1345 -0.2427
 1503SOL    HW1 7047   8.474   1.725   2.803  1.1780  0.7577 -2.0121
 1503SOL    HW2 7048   8.473   1.801   2.933 -0.9571 -1.3073 -0.7866
 1504SOL     OW 7049   5.999   6.070   8.487 -0.0309  0.1961 -0.1700
 1504SOL    HW1 7050   6.076   6.118   8.517  0.1798  0.8594 -1.7150
 1504SOL    HW2 7051   6.032   5.984   8.461 -0.4103 -0.8208  2.6131
 1505SOL     OW 7052   5.193   5.848   3.683  0.1538 -0.4654  0.1478
 1505SOL    HW1 7053   5.146   5.809   3.756  0.1230  0.6157  0.7169
 1505SOL    HW2 7054   5.264   5.786   3.665 -0.2953 -1.1204  0.5784
 1506SOL     OW 7055   0.887   8.994   4.362  0.0924  0.0610  0.0459
 1506SOL    HW1 7056   0.850   9.050   4.431 -3.9762 -2.8080  0.4170
 1506SOL    HW2 7057   0.955   8.944   4.406  0.7864  1.5919  0.7636
 1507SOL     OW 7058   5.097   2.048   9.184 -0.4450  0.2445 -0.3625
 1507SOL    HW1 7059   5.025   2.058   9.247 -0.0171 -0.5714  0.2596
 1507SOL    HW2 7060   5.146   1.973   9.216  0.2264  0.3085 -1.2443
 1508SOL     OW 7061   8.408   6.788   4.941  0.5869  0.1837 -0.3744
 1508SOL    HW1 7062   8.379   6.844   4.869 -1.3885  0.4053  0.5611
 1508SOL    HW2 7063   8.337   6.725   4.954  0.8729  0.1901  1.3988
 1509SOL     OW 7064   9.138   9.929   8.746  0.6925 -0.6161  0.3365
 1509SOL    HW1 7065   9.152  10.016   8.709 -0.6945 -1.3052 -1.9319
 1509SOL    HW2 7066   9.110   9.945   8.836  1.1780  1.2464  0.1701
 1510SOL     OW 7067   3.959   4.928   1.261  0.4246 -0.0939  0.4583
 1510SOL    HW1 7068   3.984   4.866   1.193  0.0216 -0.5843  0.7587
 1510SOL    HW2 7069   4.032   4.926   1.323  1.1546  0.9308 -0.3427
 1511SOL     OW 7070   9.456   1.072   6.837  0.2029 -0.5681 -0.3819
 1511SOL    HW1 7071   9.455   1.006   6.907 -0.7173 -1.3955 -1.1508
 1511SOL    HW2 7072   9.531   1.128   6.857  0.0688 -0.9240  1.1448
 1512SOL     OW 7073   1.849   6.268   0.097  0.4784 -0.1615 -0.0621
 1512SOL    HW1 7074   1.805   6.191   0.060  0.2280  0.9655 -2.1735
 1512SOL    HW2 7075   1.939   6.262   0.065  0.8803 -0.3663  1.0499
 1513SOL     OW 7076   9.139   0.678   3.139  0.4064  0.5671  0.1693
 1513SOL    HW1 7077   9.211   0.633   3.095  2.0741  0.6410  2.7040
 1513SOL    HW2 7078   9.148   0.770   3.112 -0.5205  0.0931 -1.7949
 1514SOL     OW 7079   1.969   6.345   4.613 -0.3208  0.1370 -0.4509
 1514SOL    HW1 7080   1.931   6.262   4.584 -0.1056 -0.6551  1.4194
 1514SOL    HW2 7081   1.903   6.383   4.672 -0.3780  1.2512 -1.2208
 1515SOL     OW 7082   0.357   8.074  10.043 -0.5127 -0.1910 -0.3821
 1515SOL    HW1 7083   0.453   8.070  10.049 -0.6403 -0.9694  1.2381
 1515SOL    HW2 7084   0.327   7.995  10.088 -1.9451  0.3525 -0.3791
 1516SOL     OW 7085   0.420   7.166   0.700  0.0340  0.3058 -0.0003
 1516SOL    HW1 7086   0.340   7.218   0.714 -0.5661 -0.4330 -0.6198
 1516SOL    HW2 7087   0.462   7.163   0.786 -0.8229  0.3458  0.4311
 1517SOL     OW 7088   6.402   4.629   2.278 -0.1905  0.1554  0.3284
 1517SOL    HW1 7089   6.378   4.717   2.307  1.1695  1.0862 -1.3344
 1517SOL    HW2 7090   6.318   4.586   2.261 -0.8346  2.4115 -2.5536
 1518SOL     OW 7091   0.976   6.366   8.749 -0.1520  0.7301 -0.2760
 1518SOL    HW1 7092   0.926   6.437   8.709  1.0563  0.9723 -1.4029
 1518SOL    HW2 7093   1.062   6.370   8.706  0.3980 -0.5082  0.6674
 1519SOL     OW 7094   9.348   2.864   1.789 -0.1142  0.1591 -0.1626
 1519SOL    HW1 7095   9.280   2.855   1.722 -1.5626  1.0876  1.1407
 1519SOL    HW2 7096   9.346   2.781   1.836 -0.7283  0.3783  0.2065
 1520SOL     OW 7097   3.121   2.106   1.981  0.4207  0.3327  0.4228
 1520SOL    HW1 7098   3.120   2.019   2.019  0.4232 -0.2932 -0.9667
 1520SOL    HW2 7099   3.205   2.144   2.008 -0.9436  1.1484  3.7018
 1521SOL     OW 7100   7.690   4.628   4.437 -0.1902  0.2927  0.4467
 1521SOL    HW1 7101   7.660   4.671   4.357 -0.8610  0.1390  0.6107
 1521SOL    HW2 7102   7.785   4.633   4.433 -0.2435  1.1545  0.1115
 1522SOL     OW 7103   2.571   2.969   7.866  0.2729 -0.2358 -0.0806
 1522SOL    HW1 7104   2.528   3.046   7.905 -0.0009 -1.0499  1.2633
 1522SOL    HW2 7105   2.507   2.937   7.803 -0.1141 -0.0445  0.2046
 1523SOL     OW 7106   6.248   0.912   3.798 -0.1465 -0.1454  0.5140
 1523SOL    HW1 7107   6.253   0.838   3.858 -1.3494  0.3830  1.2935
 1523SOL    HW2 7108   6.220   0.875   3.715 -2.5647 -0.3361  1.3854
 1524SOL     OW 7109   9.958   5.327  10.027 -0.0377  0.0962 -0.2412
 1524SOL    HW1 7110  10.044   5.343   9.989 -0.4705  2.0191 -0.4332
 1524SOL    HW2 7111   9.909   5.282   9.957 -0.3673  2.3228 -1.5015
 1525SOL     OW 7112   6.557   0.480   7.794  0.6636 -0.0446 -0.0247
 1525SOL    HW1 7113   6.592   0.569   7.785 -0.3403  0.3664  0.0244
 1525SOL    HW2 7114   6.631   0.423   7.775  1.8075  0.7930  1.7326
 1526SOL     OW 7115   5.742   6.841   6.910 -0.1543 -0.2639 -0.9967
 1526SOL    HW1 7116   5.728   6.757   6.953 -0.2399  0.3529  0.1923
 1526SOL    HW2 7117   5.733   6.822   6.817  1.2657 -1.8700 -0.8420
 1527SOL     OW 7118   3.627   6.504   1.874 -0.1436 -0.0091  0.0175
 1527SOL    HW1 7119   3.702   6.562   1.884  0.0720 -0.7646  3.1196
 1527SOL    HW2 7120   3.658   6.435   1.815  1.1814  0.4053  0.2139
 1528SOL     OW 7121   3.549   7.377   7.652 -0.1963  0.1764  0.1627
 1528SOL    HW1 7122   3.478   7.353   7.592 -1.6003  1.1085  1.4331
 1528SOL    HW2 7123   3.608   7.302   7.650 -1.4492 -0.8068 -0.5596
 1529SOL     OW 7124   3.293   2.014   7.104 -0.2839  0.2797  0.2326
 1529SOL    HW1 7125   3.348   2.092   7.101 -0.7545  0.7183  2.0665
 1529SOL    HW2 7126   3.323   1.967   7.182 -1.7474 -0.0409  0.6226
 1530SOL     OW 7127   8.595   2.923   0.832  0.2399 -0.0456 -0.9595
 1530SOL    HW1 7128   8.688   2.912   0.812  0.6065 -0.3051  0.8128
 1530SOL    HW2 7129   8.585   2.886   0.919 -1.2171  1.4751 -0.4712
 1531SOL     OW 7130   6.231   8.299   6.803  0.4519  0.3219  0.1603
 1531SOL    HW1 7131   6.288   8.366   6.765 -0.8605  0.6466 -1.3011
 1531SOL    HW2 7132   6.179   8.268   6.729 -0.1513 -1.1014  1.1676
 1532SOL     OW 7133   0.689   2.090   5.640 -0.7983  0.0209  0.2926
 1532SOL    HW1 7134   0.710   2.155   5.707  0.5847 -0.7693  0.6332
 1532SOL    HW2 7135   0.754   2.021   5.651 -1.3320 -0.7237 -1.0413
 1533SOL     OW 7136   6.519   2.677   8.646  0.5876  0.0996  0.2518
 1533SOL    HW1 7137   6.546   2.590   8.676 -1.7672 -0.9983 -0.7507
 1533SOL    HW2 7138   6.444   2.699   8.701  0.4016  0.9722 -0.3442
 1534SOL     OW 7139   7.293   5.117   8.778  0.0151  0.1762 -0.3772
 1534SOL    HW1 7140   7.352   5.175   8.824 -1.4598  0.9232  0.6014
 1534SOL    HW2 7141   7.342   5.035   8.767  0.8300  0.4241  1.3627
 1535SOL     OW 7142   1.877   8.135   0.610 -0.3059  1.2347 -0.3280
 1535SOL    HW1 7143   1.888   8.102   0.699 -2.2329  1.6880  0.0860
 1535SOL    HW2 7144   1.887   8.057   0.555  0.4877  0.8897  0.2850
 1536SOL     OW 7145   7.438   4.256   5.567 -0.3666 -0.1755  0.2769
 1536SOL    HW1 7146   7.401   4.184   5.516 -0.1858 -0.5407  0.6551
 1536SOL    HW2 7147   7.533   4.242   5.562 -0.2646  0.8328 -0.8025
 1537SOL     OW 7148   3.623   1.107   2.594  0.2400 -0.5078  0.2905
 1537SOL    HW1 7149   3.607   1.187   2.644  0.3088  0.1266 -0.6839
 1537SOL    HW2 7150   3.708   1.120   2.553 -0.2574 -0.5846 -0.8016
 1538SOL     OW 7151   3.477   9.437   6.619 -0.6618  0.1868  0.0535
 1538SOL    HW1 7152   3.569   9.409   6.612 -0.5796  0.6027 -0.6595
 1538SOL    HW2 7153   3.427   9.356   6.620 -0.3177 -0.0304 -0.1063
 1539SOL     OW 7154   9.983   3.159   5.392  0.0900  0.4300  0.6262
 1539SOL    HW1 7155  10.049   3.127   5.453  0.1717  0.9695  0.8209
 1539SOL    HW2 7156  10.020   3.240   5.356  0.3149 -0.1935 -0.5924
 1540SOL     OW 7157   6.621   8.237   7.908  0.3594 -0.1161  0.0755
 1540SOL    HW1 7158   6.617   8.331   7.888  0.4228  0.0573  0.8812
 1540SOL    HW2 7159   6.561   8.226   7.982  0.3448 -0.7171 -0.0259
 1541SOL     OW 7160   6.943   1.905   8.186 -0.7888 -0.3577 -0.3490
 1541SOL    HW1 7161   6.931   1.823   8.235 -0.9533 -0.6408 -0.8510
 1541SOL    HW2 7162   6.890   1.893   8.107 -1.0449  0.3532 -0.2892
 1542SOL     OW 7163   0.361   1.584   3.494 -0.4427  0.0258 -0.4189
 1542SOL    HW1 7164   0.329   1.529   3.566 -0.3209 -1.1317 -1.2456
 1542SOL    HW2 7165   0.358   1.528   3.417  1.6399  0.5110 -0.8988
 1543SOL     OW 7166   9.742   2.518   0.430 -0.5463  0.4156  0.1922
 1543SOL    HW1 7167   9.750   2.447   0.493  0.2068  1.7940  1.6739
 1543SOL    HW2 7168   9.806   2.497   0.362  0.4097  0.2003  1.1470
 1544SOL     OW 7169   4.938   0.517   2.866  0.2151  0.1774  0.0537
 1544SOL    HW1 7170   4.880   0.490   2.795 -1.7463 -0.5545  1.8917
 1544SOL    HW2 7171   4.978   0.436   2.897  1.0411  0.4883 -0.1840
 1545SOL     OW 7172   9.100   6.890   0.292 -0.4445 -0.5455 -0.3677
 1545SOL    HW1 7173   9.057   6.971   0.265  2.8676  1.1561 -0.7883
 1545SOL    HW2 7174   9.054   6.822   0.243 -1.7592  1.3263 -1.8302
 1546SOL     OW 7175   7.780   6.327   8.743 -0.2863  0.3976 -0.2516
 1546SOL    HW1 7176   7.749   6.414   8.771 -0.9333  0.5110 -1.3113
 1546SOL    HW2 7177   7.867   6.320   8.782 -0.5456  1.2017  0.4984
 1547SOL     OW 7178   6.166   3.232   9.636 -0.0458  0.0625 -0.1345
 1547SOL    HW1 7179   6.217   3.287   9.696 -0.3211 -1.0259  1.1332
 1547SOL    HW2 7180   6.085   3.280   9.622 -0.2015  0.0787  0.8088
 1548SOL     OW 7181   8.918   6.979   8.168  0.3839  0.0886  0.1015
 1548SOL    HW1 7182   8.961   7.033   8.234  0.3278  0.9071 -0.5295
 1548SOL    HW2 7183   8.828   6.969   8.199  0.7949 -0.9262  0.9948
 1549SOL     OW 7184   5.814   7.935   6.517  0.5764  0.3870  0.4305
 1549SOL    HW1 7185   5.785   7.844   6.515  0.4132  0.4532 -1.1289
 1549SOL    HW2 7186   5.800   7.966   6.428  2.7552  1.2678  0.3734
 1550SOL     OW 7187   1.510   3.616   5.187 -0.0974 -0.1867  0.1666
 1550SOL    HW1 7188   1.564   3.581   5.258 -1.2995 -0.4731  0.9666
 1550SOL    HW2 7189   1.551   3.583   5.107  2.0139  1.1894  0.6401
 1551SOL     OW 7190   8.433   4.846   7.946 -0.0480 -0.3747  0.4222
 1551SOL    HW1 7191   8.423   4.880   7.857 -2.0625  0.0507  0.7864
 1551SOL    HW2 7192   8.457   4.922   7.999 -0.5874 -0.2756  0.5331
 1552SOL     OW 7193   9.812   2.756   3.838  0.3295  0.1403  0.0021
 1552SOL    HW1 7194   9.730   2.713   3.860  0.1511 -0.3974 -1.6645
 1552SOL    HW2 7195   9.796   2.849   3.855 -0.4343 -0.0226  0.1895
 1553SOL     OW 7196   2.841   7.191   6.330 -0.0157 -0.0996  0.1339
 1553SOL    HW1 7197   2.808   7.162   6.245  0.7666 -0.6456  0.0163
 1553SOL    HW2 7198   2.770   7.170   6.391 -0.8496  0.8883 -0.4674
 1554SOL     OW 7199   6.216   2.265   9.052 -0.2117  0.1537  0.0067
 1554SOL    HW1 7200   6.254   2.240   9.137 -0.4018  0.3350  0.1439
 1554SOL    HW2 7201   6.272   2.336   9.021  0.1974 -0.2873 -0.2840
 1555SOL     OW 7202   1.309   1.702   5.272  0.2077  0.2265  0.1450
 1555SOL    HW1 7203   1.311   1.609   5.297  0.6928  0.4697  1.0428
 1555SOL    HW2 7204   1.292   1.701   5.178 -1.6140 -0.7096  0.4732
 1556SOL     OW 7205   9.122   4.788   6.111  0.3146 -0.6145 -0.0927
 1556SOL    HW1 7206   9.159   4.838   6.039  1.3470 -1.9215 -0.4976
 1556SOL    HW2 7207   9.066   4.723   6.069 -1.3631  0.4323  0.4450
 1557SOL     OW 7208   1.141   7.628   9.513 -0.1751 -0.3494 -0.2745
 1557SOL    HW1 7209   1.203   7.638   9.586  1.2745 -0.9921 -1.4109
 1557SOL    HW2 7210   1.055   7.644   9.553  0.7372  0.9546  1.2343
 1558SOL     OW 7211   2.541   9.740   4.224 -0.8482  0.0385  0.0361
 1558SOL    HW1 7212   2.496   9.796   4.286  0.1227 -0.1896  0.9680
 1558SOL    HW2 7213   2.513   9.771   4.138 -1.1550  1.2402  0.5682
 1559SOL     OW 7214   8.219   4.121   9.014 -0.0534  0.1612 -0.7120
 1559SOL    HW1 7215   8.144   4.081   8.969  0.6346 -2.6398  0.5086
 1559SOL    HW2 7216   8.192   4.129   9.105  0.0902  1.8789 -0.8068
 1560SOL     OW 7217   3.499   7.912  10.149 -0.4575  0.1871 -0.7585
 1560SOL    HW1 7218   3.445   7.893  10.225  0.4954 -0.8022 -0.3136
 1560SOL    HW2 7219   3.537   7.999  10.167  1.9104 -1.1930  1.1851
 1561SOL     OW 7220   6.833   2.631   8.582  0.2473  0.3997  0.4490
 1561SOL    HW1 7221   6.876   2.558   8.536 -0.6421  0.3990 -0.3944
 1561SOL    HW2 7222   6.783   2.588   8.652 -0.4009  0.1741 -0.1428
 1562SOL     OW 7223  10.186   9.510   5.931 -0.0007  0.6637 -0.1558
 1562SOL    HW1 7224  10.130   9.489   6.006  0.2581  1.0358  0.1470
 1562SOL    HW2 7225  10.275   9.499   5.964  0.1142 -0.8493 -0.9039
 1563SOL     OW 7226   8.601   9.688   3.418 -0.3387 -0.2121 -0.5401
 1563SOL    HW1 7227   8.541   9.697   3.344 -0.7677 -0.3992 -0.2224
 1563SOL    HW2 7228   8.546   9.653   3.489 -0.2161  1.0562  0.2117
 1564SOL     OW 7229   2.676   9.270   9.731  0.0547 -0.5449  0.0928
 1564SOL    HW1 7230   2.584   9.290   9.744  0.0711 -0.4833  0.1137
 1564SOL    HW2 7231   2.718   9.297   9.813  0.1934  0.0799 -0.1813
 1565SOL     OW 7232   9.776   8.246   5.288  0.3499 -0.5463 -0.5328
 1565SOL    HW1 7233   9.688   8.208   5.294  0.2564 -0.1866  0.3564
 1565SOL    HW2 7234   9.835   8.171   5.301  0.1719 -0.6517 -0.3426
 1566SOL     OW 7235   7.922   5.449   5.308 -0.0382  0.4333 -0.1653
 1566SOL    HW1 7236   7.875   5.532   5.313  1.6263  1.3310  1.5796
 1566SOL    HW2 7237   7.937   5.426   5.400  2.1884 -0.2198 -0.6783
 1567SOL     OW 7238   8.855   4.219   6.054  0.1035  0.2171 -0.2395
 1567SOL    HW1 7239   8.824   4.180   5.972 -1.3824  0.0778  0.3582
 1567SOL    HW2 7240   8.949   4.204   6.055 -0.0552 -0.8829 -1.3257
 1568SOL     OW 7241   3.330   3.475   5.312 -0.1990  0.2845 -0.1205
 1568SOL    HW1 7242   3.301   3.558   5.274 -0.5920  1.9314  3.5403
 1568SOL    HW2 7243   3.426   3.484   5.317 -0.3797  1.4435  2.1049
 1569SOL     OW 7244   8.167   1.162   6.495  0.8066  0.0697 -0.2710
 1569SOL    HW1 7245   8.105   1.089   6.487  0.9426 -0.0243 -0.4880
 1569SOL    HW2 7246   8.241   1.136   6.440  0.5288  0.7179 -0.9609
 1570SOL     OW 7247   6.361   3.938   6.196 -0.2767 -0.3660  0.0211
 1570SOL    HW1 7248   6.446   3.973   6.169  0.4461 -1.1499  1.2133
 1570SOL    HW2 7249   6.306   4.015   6.209  0.5061  0.1898  0.0488
 1571SOL     OW 7250   7.463   1.233   4.136  0.0948 -0.3772  0.3895
 1571SOL    HW1 7251   7.431   1.302   4.194 -0.4044 -0.4293  0.1753
 1571SOL    HW2 7252   7.419   1.153   4.168  1.3625 -0.7582  1.2183
 1572SOL     OW 7253   1.234   8.737   7.063 -0.5477  0.0273  0.3326
 1572SOL    HW1 7254   1.317   8.782   7.079 -1.0351  0.6085  1.2569
 1572SOL    HW2 7255   1.168   8.806   7.069 -1.1106 -0.4528 -0.2901
 1573SOL     OW 7256   7.027  10.062   6.751  0.1181  0.0425 -0.1294
 1573SOL    HW1 7257   7.017  10.082   6.658  0.7765  1.5579  0.1051
 1573SOL    HW2 7258   6.946  10.093   6.792  0.3959  0.6179 -0.0117
 1574SOL     OW 7259   7.350   4.183   8.712 -0.5260  0.0251 -0.1065
 1574SOL    HW1 7260   7.415   4.114   8.696 -0.9426 -0.3317 -0.2529
 1574SOL    HW2 7261   7.303   4.192   8.629 -1.0664 -0.1372  0.1817
 1575SOL     OW 7262   7.262   1.949   5.754 -0.1122 -0.0767  0.0231
 1575SOL    HW1 7263   7.170   1.928   5.771  0.1991 -2.1545 -0.7343
 1575SOL    HW2 7264   7.274   1.927   5.662  1.3855 -0.6988  0.3650
 1576SOL     OW 7265   2.585   2.766   6.793 -0.2762  0.1290 -0.0268
 1576SOL    HW1 7266   2.564   2.749   6.884 -2.6232  1.2076 -0.3404
 1576SOL    HW2 7267   2.511   2.817   6.760  0.0236 -1.1658 -2.8119
 1577SOL     OW 7268   1.894   9.112   7.544  0.0782  0.1152 -0.0019
 1577SOL    HW1 7269   1.948   9.189   7.564 -0.3268  0.1840  0.8220
 1577SOL    HW2 7270   1.915   9.050   7.613  0.7710 -0.7066 -0.9440
 1578SOL     OW 7271   9.598   6.184   1.068 -1.0712  0.7581 -0.5341
 1578SOL    HW1 7272   9.526   6.194   1.131  0.4016 -1.4011  1.5711
 1578SOL    HW2 7273   9.651   6.263   1.081 -1.0468  0.5698  0.5919
 1579SOL     OW 7274   6.033   5.870   7.989  0.2184  0.0219  0.5392
 1579SOL    HW1 7275   5.964   5.869   8.057  0.6588 -1.0033  0.9814
 1579SOL    HW2 7276   6.090   5.942   8.014 -1.2994  1.5959 -0.4478
 1580SOL     OW 7277  10.078   8.942   1.879 -0.2137 -0.1464 -0.0527
 1580SOL    HW1 7278  10.096   8.895   1.960  1.9934  2.5734  1.1206
 1580SOL    HW2 7279  10.165   8.958   1.842 -1.0776  0.7319 -1.7434
 1581SOL     OW 7280   4.831   7.441   4.161  0.1500 -0.0761  0.3722
 1581SOL    HW1 7281   4.752   7.460   4.213  0.4141  0.6194  0.5323
 1581SOL    HW2 7282   4.801   7.446   4.070 -0.2044 -0.7934  0.4467
 1582SOL     OW 7283   2.601   2.519   2.059 -0.1150  0.5845  0.1103
 1582SOL    HW1 7284   2.599   2.511   2.154  4.8210  1.2406  0.3817
 1582SOL    HW2 7285   2.585   2.611   2.042  4.6178  1.6668  0.7838
 1583SOL     OW 7286   4.593   7.785   1.475 -0.0039  0.0172 -0.3445
 1583SOL    HW1 7287   4.646   7.783   1.396 -0.8330  0.8724 -0.9386
 1583SOL    HW2 7288   4.505   7.806   1.444 -0.2810  0.6536  0.8334
 1584SOL     OW 7289   7.831   0.841   9.859  0.1222  0.1728  0.2627
 1584SOL    HW1 7290   7.875   0.768   9.903  0.8295  0.2131 -0.3755
 1584SOL    HW2 7291   7.737   0.823   9.870  0.2948 -0.8496  0.0728
 1585SOL     OW 7292   4.631   1.214   4.794 -0.0629  0.0458 -0.4733
 1585SOL    HW1 7293   4.625   1.125   4.760  0.4886  0.2947 -1.2452
 1585SOL    HW2 7294   4.709   1.251   4.752 -1.3104  1.4949 -1.6158
 1586SOL     OW 7295   0.765   3.629   9.273  0.4807  0.9504 -0.6230
 1586SOL    HW1 7296   0.854   3.598   9.256  1.0316  1.3657  1.3473
 1586SOL    HW2 7297   0.718   3.612   9.192  1.3344 -2.8867 -0.4242
 1587SOL     OW 7298   1.389  10.085   5.782 -0.4163 -0.2676 -0.5351
 1587SOL    HW1 7299   1.413  10.033   5.705 -0.1829  0.2327 -0.8039
 1587SOL    HW2 7300   1.359  10.168   5.745  0.3905  0.2396 -0.0479
 1588SOL     OW 7301   4.367   1.442   1.926  0.5555 -0.1230 -0.4701
 1588SOL    HW1 7302   4.322   1.359   1.940 -0.8590  0.6871 -0.0429
 1588SOL    HW2 7303   4.446   1.420   1.877 -0.2825 -1.5956 -1.1673
 1589SOL     OW 7304   7.586   3.640   6.261 -0.3514  0.5492  0.2934
 1589SOL    HW1 7305   7.673   3.631   6.222  0.3614  2.4493  1.4002
 1589SOL    HW2 7306   7.529   3.660   6.187  0.2664 -0.0080 -0.3430
 1590SOL     OW 7307   9.942   2.877   6.135  0.3172 -0.1495 -0.2153
 1590SOL    HW1 7308   9.890   2.850   6.060  0.6580  2.1532 -1.3310
 1590SOL    HW2 7309   9.878   2.898   6.203 -0.0777 -0.3149 -0.5390
 1591SOL     OW 7310   8.663   3.402   7.191 -0.0390 -0.2667  0.2455
 1591SOL    HW1 7311   8.570   3.405   7.169 -0.3740 -1.5994  1.4090
 1591SOL    HW2 7312   8.673   3.467   7.260  0.2619  1.1792 -1.1450
 1592SOL     OW 7313   2.443   2.472   3.866 -0.0038 -0.1467 -0.0616
 1592SOL    HW1 7314   2.444   2.478   3.962  0.4058  1.7046 -0.1618
 1592SOL    HW2 7315   2.354   2.495   3.841  0.0946  0.1072 -0.1757
 1593SOL     OW 7316   7.892   6.301   1.962  0.4887 -0.1707  0.2361
 1593SOL    HW1 7317   7.865   6.328   1.874 -1.1974  1.3894  1.1873
 1593SOL    HW2 7318   7.987   6.290   1.955  0.5830  1.3363 -1.4430
 1594SOL     OW 7319   9.120   3.824   8.751 -0.4315 -0.1865  0.4448
 1594SOL    HW1 7320   9.100   3.738   8.788  0.1838 -0.3298  0.4464
 1594SOL    HW2 7321   9.035   3.857   8.720 -0.5672 -1.1003 -0.1959
 1595SOL     OW 7322   2.210   8.209   6.980  0.5917  0.7346 -0.2972
 1595SOL    HW1 7323   2.268   8.212   7.056 -0.1207 -1.2579  0.3712
 1595SOL    HW2 7324   2.170   8.296   6.976  0.7497  0.9105  1.5284
 1596SOL     OW 7325   6.630   1.136   5.992 -0.1158  0.1557  0.0850
 1596SOL    HW1 7326   6.699   1.126   5.925  0.1836 -0.0736  0.4281
 1596SOL    HW2 7327   6.574   1.206   5.958 -0.3420 -0.4146 -0.7340
 1597SOL     OW 7328  10.079   2.969   4.461 -0.0754  0.5779  0.4632
 1597SOL    HW1 7329  10.175   2.963   4.461 -0.0797  0.5180  0.1155
 1597SOL    HW2 7330  10.061   3.059   4.487  0.0671  0.4764  0.9154
 1598SOL     OW 7331   9.713   1.659   1.545  0.3640 -0.1129 -0.1285
 1598SOL    HW1 7332   9.787   1.669   1.604  0.9283 -0.3265 -0.7985
 1598SOL    HW2 7333   9.731   1.718   1.472 -0.1495 -0.1177 -0.2614
 1599SOL     OW 7334   2.764   3.051   2.924 -0.0592 -0.0210 -0.4417
 1599SOL    HW1 7335   2.842   3.032   2.977 -0.8869 -0.9799  0.4494
 1599SOL    HW2 7336   2.775   3.143   2.899  1.3944 -0.1635 -0.3871
 1600SOL     OW 7337   7.985   1.208   7.938 -0.1840 -0.2796  0.0492
 1600SOL    HW1 7338   7.966   1.300   7.920 -0.7669 -0.6486 -1.2466
 1600SOL    HW2 7339   8.016   1.208   8.029 -0.3068  1.1719  0.1092
 1601SOL     OW 7340   2.806   7.510   2.962 -0.5496 -0.3737 -0.0428
 1601SOL    HW1 7341   2.853   7.561   3.028 -0.1889  2.0852 -2.0998
 1601SOL    HW2 7342   2.875   7.468   2.910 -0.8364 -2.5943  1.2928
 1602SOL     OW 7343   7.505   4.861   2.519 -0.4900  0.5437  0.6533
 1602SOL    HW1 7344   7.438   4.923   2.491 -1.3327 -0.4233  0.4791
 1602SOL    HW2 7345   7.546   4.902   2.595  0.6651  2.4290 -0.9526
 1603SOL     OW 7346   6.476   5.736   5.327 -0.1341  0.0370  0.4064
 1603SOL    HW1 7347   6.476   5.673   5.254 -0.7439  0.8279 -0.2994
 1603SOL    HW2 7348   6.552   5.713   5.379 -0.3173 -1.2544  0.1300
 1604SOL     OW 7349   2.314   0.939   9.562  0.5382  0.0410 -0.1204
 1604SOL    HW1 7350   2.256   0.877   9.519 -0.5734  0.8380  0.2026
 1604SOL    HW2 7351   2.298   1.022   9.518  1.3227  0.3006  0.0772
 1605SOL     OW 7352   0.666   5.798   9.034  0.1836  0.2641  0.4382
 1605SOL    HW1 7353   0.737   5.762   8.982 -1.0231  0.9227 -1.7521
 1605SOL    HW2 7354   0.675   5.893   9.025 -1.2201  0.3522 -0.2552
 1606SOL     OW 7355   0.981   6.996   3.896 -0.2891  0.0727 -0.0507
 1606SOL    HW1 7356   1.075   6.982   3.908 -0.4753  0.1643  1.7462
 1606SOL    HW2 7357   0.975   7.082   3.855  0.3724  0.5722  0.8803
 1607SOL     OW 7358   3.878   4.203   5.817  0.5378 -0.0173 -0.1475
 1607SOL    HW1 7359   3.850   4.253   5.741  1.0179  0.8210  0.2217
 1607SOL    HW2 7360   3.955   4.154   5.787  0.8926  0.5248 -0.1283
 1608SOL     OW 7361   2.599   5.414   2.530 -0.1465  0.0217  0.3452
 1608SOL    HW1 7362   2.539   5.488   2.537  0.3599  0.3129  1.7064
 1608SOL    HW2 7363   2.654   5.420   2.608  0.9655 -0.8534 -0.3553
 1609SOL     OW 7364   1.533   0.196   7.399 -0.3912 -0.0724  0.9737
 1609SOL    HW1 7365   1.620   0.158   7.409  0.6483  1.2657 -2.1877
 1609SOL    HW2 7366   1.525   0.259   7.470  1.4236  0.1083  1.0323
 1610SOL     OW 7367   8.955   1.656   6.269 -0.2179  0.4196 -0.0266
 1610SOL    HW1 7368   9.008   1.586   6.230  0.6982  0.9622  0.2225
 1610SOL    HW2 7369   8.956   1.726   6.203  0.4160  0.9100  0.4979
 1611SOL     OW 7370   0.883   9.078   5.253  0.0188  0.9060  0.2627
 1611SOL    HW1 7371   0.888   8.994   5.298  1.0757  0.7754 -0.0934
 1611SOL    HW2 7372   0.791   9.085   5.226 -0.0199 -0.2347  0.0832
 1612SOL     OW 7373   1.794   3.451   3.101  0.1207  0.3960  0.2528
 1612SOL    HW1 7374   1.843   3.525   3.137 -0.7134  0.4914  1.1989
 1612SOL    HW2 7375   1.749   3.488   3.025  0.4547  0.6258  0.1625
 1613SOL     OW 7376   8.445   6.612   0.525  0.5165  0.6481  0.3814
 1613SOL    HW1 7377   8.521   6.668   0.511  0.8042  0.2132  0.1937
 1613SOL    HW2 7378   8.470   6.554   0.597  0.0390  1.0767  0.8992
 1614SOL     OW 7379   8.388   1.009   9.276  0.4348 -0.4218  0.0405
 1614SOL    HW1 7380   8.402   1.093   9.233  0.6981 -0.0527  0.8381
 1614SOL    HW2 7381   8.460   1.001   9.338  0.4710 -1.2866 -0.1135
 1615SOL     OW 7382   5.919   5.749  10.025  0.4999 -0.2784 -0.4826
 1615SOL    HW1 7383   5.978   5.824  10.018 -0.0599  0.0516 -1.8296
 1615SOL    HW2 7384   5.974   5.674  10.000  0.8600 -0.2314  0.1479
 1616SOL     OW 7385   6.170   8.340   5.617 -0.1527  0.4723 -0.4325
 1616SOL    HW1 7386   6.162   8.326   5.522  0.6381  1.6169 -0.6798
 1616SOL    HW2 7387   6.100   8.286   5.655  0.3268 -0.9842 -1.5728
 1617SOL     OW 7388   7.159   6.204   4.818 -0.1837 -0.3358 -0.3390
 1617SOL    HW1 7389   7.187   6.280   4.768  2.3494 -0.2013  1.2041
 1617SOL    HW2 7390   7.233   6.144   4.814 -1.3733 -1.8743  0.1646
 1618SOL     OW 7391   9.417   1.851   5.622 -0.0112 -0.0821 -0.0482
 1618SOL    HW1 7392   9.436   1.760   5.600 -1.8935 -1.3910  3.3204
 1618SOL    HW2 7393   9.323   1.860   5.607  0.2337  1.4469 -0.7623
 1619SOL     OW 7394   1.332   9.671   4.540  0.3293  0.2897 -0.2591
 1619SOL    HW1 7395   1.301   9.683   4.630 -0.8065 -0.2151 -0.5826
 1619SOL    HW2 7396   1.295   9.587   4.513  2.7312 -0.8037 -0.3310
 1620SOL     OW 7397   8.204   5.110   4.885  0.4321 -0.6348  0.0511
 1620SOL    HW1 7398   8.117   5.101   4.846  0.9518  0.6129 -1.4328
 1620SOL    HW2 7399   8.189   5.161   4.965  0.0832  1.4593 -1.3383
 1621SOL     OW 7400   4.256   3.793   4.118  0.2037  0.2721  0.8249
 1621SOL    HW1 7401   4.351   3.779   4.123 -0.0011 -1.5830  0.1392
 1621SOL    HW2 7402   4.224   3.769   4.205  0.1968 -0.6204  0.5793
 1622SOL     OW 7403   8.948   2.140   4.048  0.0449 -0.8530 -0.2313
 1622SOL    HW1 7404   8.852   2.131   4.051 -0.2366  1.9300 -0.2156
 1622SOL    HW2 7405   8.967   2.166   3.958  0.6506 -0.0133  0.1323
 1623SOL     OW 7406   4.616   1.687   1.806 -0.2908  0.2599  0.1626
 1623SOL    HW1 7407   4.668   1.626   1.754 -1.7547 -1.9464  1.1548
 1623SOL    HW2 7408   4.542   1.709   1.749  0.3340  1.2562 -0.2628
 1624SOL     OW 7409   5.464   8.912   1.660 -0.4146 -0.3274  0.0086
 1624SOL    HW1 7410   5.470   8.855   1.584 -0.7940 -0.3937  0.0277
 1624SOL    HW2 7411   5.552   8.914   1.697 -0.6165 -1.6966  0.5899
 1625SOL     OW 7412   1.793   4.250   7.102  0.2023 -0.2742 -0.4767
 1625SOL    HW1 7413   1.701   4.261   7.126 -0.3244 -1.2763 -2.0099
 1625SOL    HW2 7414   1.806   4.156   7.096  1.0073 -0.1082 -1.4806
 1626SOL     OW 7415   1.416   8.506   5.567 -0.5788 -0.4803 -0.1467
 1626SOL    HW1 7416   1.342   8.557   5.599 -0.3565  0.1584 -0.6395
 1626SOL    HW2 7417   1.485   8.571   5.552 -0.3924 -0.8858 -1.0613
 1627SOL     OW 7418   7.926   5.347   7.482 -0.0892 -0.1020 -0.1246
 1627SOL    HW1 7419   7.926   5.271   7.541  1.8351 -1.2535 -1.5048
 1627SOL    HW2 7420   8.010   5.390   7.499 -0.4934  0.8107 -0.4409
 1628SOL     OW 7421   0.893   6.218   5.310  0.4427 -0.2752  0.0179
 1628SOL    HW1 7422   0.951   6.142   5.305 -1.0673 -1.3502 -1.9781
 1628SOL    HW2 7423   0.812   6.189   5.268 -1.6530  1.1167  2.9035
 1629SOL     OW 7424   7.120   3.998   3.526  0.3122 -0.2935 -0.0419
 1629SOL    HW1 7425   7.082   3.988   3.439  2.3881 -1.8259 -0.8121
 1629SOL    HW2 7426   7.162   3.913   3.544 -1.0959 -0.4121  2.9467
 1630SOL     OW 7427   4.628   5.497   8.125  0.5425  0.0937  0.2892
 1630SOL    HW1 7428   4.722   5.486   8.107  0.3355  0.1069 -0.8874
 1630SOL    HW2 7429   4.608   5.585   8.093  0.0799 -0.0048  0.3170
 1631SOL     OW 7430   1.104   9.307   7.503  0.4813 -0.4325 -0.2921
 1631SOL    HW1 7431   1.069   9.260   7.579  0.1413 -0.3715 -0.4057
 1631SOL    HW2 7432   1.026   9.345   7.461  0.8057  0.7296  0.1293
 1632SOL     OW 7433   2.069   1.222   9.314  0.1529  0.2954  0.0645
 1632SOL    HW1 7434   2.059   1.316   9.302  0.0698  0.2791  0.0093
 1632SOL    HW2 7435   2.163   1.207   9.305  0.3388  0.5746  1.4709
 1633SOL     OW 7436   1.333   8.041   8.935 -0.3303  0.3039  0.3098
 1633SOL    HW1 7437   1.415   8.079   8.904 -0.1813  0.2979  0.6911
 1633SOL    HW2 7438   1.288   8.012   8.856  1.9538 -3.6208  0.3456
 1634SOL     OW 7439   2.307   7.978   0.293  0.1076  0.2358 -0.1289
 1634SOL    HW1 7440   2.312   7.888   0.325 -1.2539 -0.3090 -1.4400
 1634SOL    HW2 7441   2.220   7.986   0.255  0.5373  1.8382 -0.8272
 1635SOL     OW 7442   8.049   1.225   4.618  0.5701  0.2494  1.0288
 1635SOL    HW1 7443   7.994   1.293   4.657 -0.6096  0.9223 -1.7119
 1635SOL    HW2 7444   8.135   1.266   4.607 -0.0339  1.1977 -0.2667
 1636SOL     OW 7445   7.831   5.552   0.948 -0.4043  0.5024 -1.0792
 1636SOL    HW1 7446   7.777   5.473   0.954 -0.1490  0.5044  2.3560
 1636SOL    HW2 7447   7.921   5.521   0.956 -0.3057  1.1103  0.3549
 1637SOL     OW 7448   3.376   8.109   2.132 -0.3920  0.0793 -0.3968
 1637SOL    HW1 7449   3.369   8.189   2.184 -0.8503  0.6751 -1.3534
 1637SOL    HW2 7450   3.465   8.111   2.097 -0.8130  0.8259 -1.4468
 1638SOL     OW 7451   9.478   8.594   4.408 -0.4151 -0.0994  0.2071
 1638SOL    HW1 7452   9.503   8.674   4.455  0.3447  0.1712 -0.6406
 1638SOL    HW2 7453   9.519   8.603   4.322 -0.5164 -1.2999  0.0260
 1639SOL     OW 7454   5.388   4.673   9.410 -0.6108  0.0577 -0.0391
 1639SOL    HW1 7455   5.413   4.619   9.484  0.1481  0.5430  0.0615
 1639SOL    HW2 7456   5.295   4.690   9.424 -0.7852 -0.9616  0.0819
 1640SOL     OW 7457   7.525   3.144   2.888 -0.3266  0.4696 -0.3774
 1640SOL    HW1 7458   7.487   3.059   2.868 -0.1868  0.1135  0.8429
 1640SOL    HW2 7459   7.470   3.179   2.959 -0.1485  1.2200 -0.5991
 1641SOL     OW 7460   9.588   4.739   3.888 -0.3193 -0.3272  0.1554
 1641SOL    HW1 7461   9.638   4.795   3.949  0.1667 -0.5261 -0.0595
 1641SOL    HW2 7462   9.615   4.769   3.801 -1.7071  0.5813  0.0275
 1642SOL     OW 7463   1.244   1.288   1.298  0.1487  0.2303  0.1553
 1642SOL    HW1 7464   1.268   1.283   1.391 -2.0144 -0.4537  0.6844
 1642SOL    HW2 7465   1.182   1.361   1.293  0.7327  0.6712 -0.8743
 1643SOL     OW 7466   6.854   5.472   8.487  0.3304 -0.1668  0.2254
 1643SOL    HW1 7467   6.849   5.424   8.405 -1.8895 -0.0587  0.2717
 1643SOL    HW2 7468   6.796   5.424   8.547 -0.1587  1.2657  0.9291
 1644SOL     OW 7469   9.776   6.409   1.120  0.1139 -0.1556 -0.0286
 1644SOL    HW1 7470   9.801   6.353   1.193 -1.3251  2.3679  2.4796
 1644SOL    HW2 7471   9.852   6.465   1.104  1.1444 -1.9938 -1.8143
 1645SOL     OW 7472   9.388   8.525   8.449 -0.3435 -0.3793  0.4690
 1645SOL    HW1 7473   9.304   8.545   8.491  0.0728  0.2239  1.0109
 1645SOL    HW2 7474   9.421   8.609   8.419  0.7135 -0.4300  1.4685
 1646SOL     OW 7475   9.139   5.828   4.053  0.4257  0.3130 -0.1250
 1646SOL    HW1 7476   9.234   5.834   4.068  0.9584 -1.8114 -2.4181
 1646SOL    HW2 7477   9.114   5.745   4.093 -0.0487 -0.1859 -1.4307
 1647SOL     OW 7478   7.813   6.563   0.048  0.7834  0.1578 -0.2140
 1647SOL    HW1 7479   7.722   6.583   0.073  0.8144  0.2417 -0.1687
 1647SOL    HW2 7480   7.866   6.622   0.102  0.8178  0.8441 -0.9954
 1648SOL     OW 7481   7.477   0.448   3.269 -0.8738  0.2465 -0.0192
 1648SOL    HW1 7482   7.482   0.410   3.356 -1.2697  0.3823  0.0644
 1648SOL    HW2 7483   7.538   0.396   3.216  0.0891  0.7691  0.5572
 1649SOL     OW 7484  10.120   0.763   0.523 -1.0458  0.7314 -0.5583
 1649SOL    HW1 7485  10.197   0.737   0.473 -0.4350  0.1092  0.6654
 1649SOL    HW2 7486  10.064   0.685   0.524 -0.0014 -0.0291  1.6497
 1650SOL     OW 7487   9.017   2.290   2.347  0.0244  0.4066 -0.2217
 1650SOL    HW1 7488   8.969   2.207   2.340 -1.3571  1.2642 -1.2019
 1650SOL    HW2 7489   8.970   2.339   2.414  1.4666  0.0126  1.1165
 1651SOL     OW 7490   4.354   5.667   4.372 -0.7728 -0.8958  0.0674
 1651SOL    HW1 7491   4.441   5.651   4.409 -0.8315 -1.8132 -0.1653
 1651SOL    HW2 7492   4.304   5.588   4.395 -0.8422 -1.4443 -1.8540
 1652SOL     OW 7493   7.353   7.609   3.303 -0.5430  0.2232 -0.4360
 1652SOL    HW1 7494   7.316   7.534   3.351 -2.7779  2.0535  0.7968
 1652SOL    HW2 7495   7.397   7.661   3.369  0.8289  0.1204 -1.2600
 1653SOL     OW 7496   5.006   9.260   4.480 -0.5547 -0.4613 -0.1671
 1653SOL    HW1 7497   5.057   9.286   4.404  0.5497 -0.3848  0.5831
 1653SOL    HW2 7498   5.071   9.235   4.545 -1.4177  0.7504  1.2139
 1654SOL     OW 7499   3.246   2.505   1.173  0.7289 -0.0254  0.0548
 1654SOL    HW1 7500   3.254   2.598   1.154 -0.2101 -0.2675 -1.5879
 1654SOL    HW2 7501   3.333   2.478   1.199  1.1991  1.1261 -0.2912
 1655SOL     OW 7502   7.270   5.135   3.666 -0.1374 -0.1439 -0.0661
 1655SOL    HW1 7503   7.269   5.226   3.636 -0.8817 -0.0783  0.1432
 1655SOL    HW2 7504   7.215   5.088   3.604 -0.8108 -0.2033  0.5568
 1656SOL     OW 7505   5.031   7.439   9.876  0.9564 -0.5103 -0.9220
 1656SOL    HW1 7506   4.955   7.470   9.925  1.6103 -0.7198  0.2211
 1656SOL    HW2 7507   5.004   7.445   9.784 -1.1535 -2.3606 -0.4791
 1657SOL     OW 7508   7.866   4.165   1.784 -0.2979  0.1342  0.0327
 1657SOL    HW1 7509   7.897   4.122   1.705 -0.9078 -0.6256  0.2016
 1657SOL    HW2 7510   7.846   4.255   1.756  0.8516  0.2831 -0.3466
 1658SOL     OW 7511   9.668  10.026   6.433  0.7680  0.2213  0.2161
 1658SOL    HW1 7512   9.585  10.019   6.386  0.8372  0.1179  0.1082
 1658SOL    HW2 7513   9.658   9.966   6.507  1.5523 -1.4219 -0.9970
 1659SOL     OW 7514   1.586   6.513   6.909  0.0722 -0.3276 -0.1560
 1659SOL    HW1 7515   1.625   6.434   6.871  0.7902 -1.4886  2.8437
 1659SOL    HW2 7516   1.601   6.504   7.003 -3.3411  1.5026  0.6309
 1660SOL     OW 7517   6.346   0.091   3.015 -0.6347  0.3424  0.1823
 1660SOL    HW1 7518   6.402   0.133   2.950 -0.8632 -1.0727 -0.9581
 1660SOL    HW2 7519   6.343  -0.001   2.989 -0.5003 -0.3084  2.3804
 1661SOL     OW 7520   9.335   4.789   8.119  0.4927 -0.2594 -0.2071
 1661SOL    HW1 7521   9.243   4.811   8.134  0.6820  0.7262 -0.4826
 1661SOL    HW2 7522   9.335   4.737   8.038  0.1301 -0.6623  0.0500
 1662SOL     OW 7523   7.224   0.951   5.465  0.5489 -0.4008 -0.0699
 1662SOL    HW1 7524   7.159   0.911   5.523  0.2715 -2.4457 -1.7270
 1662SOL    HW2 7525   7.300   0.967   5.521 -0.6913  0.2233  1.4576
 1663SOL     OW 7526   7.426   9.279   8.860 -0.1043  0.2646 -0.4111
 1663SOL    HW1 7527   7.460   9.285   8.770  1.2997 -1.0070  0.0065
 1663SOL    HW2 7528   7.424   9.185   8.878  1.7705  0.5726  1.6567
 1664SOL     OW 7529   9.469   7.168   0.780  0.0601 -0.0395  0.1925
 1664SOL    HW1 7530   9.537   7.205   0.724 -0.6512 -1.4803 -1.7096
 1664SOL    HW2 7531   9.424   7.105   0.724 -0.8604 -1.3604  2.3513
 1665SOL     OW 7532   2.519   6.705   6.549 -0.0411  0.3012  0.2723
 1665SOL    HW1 7533   2.443   6.647   6.548 -0.0816  0.3510 -0.7620
 1665SOL    HW2 7534   2.589   6.652   6.588 -0.0654 -0.4756 -0.7194
 1666SOL     OW 7535   5.582   9.326   0.058 -0.2534 -0.5449 -0.7536
 1666SOL    HW1 7536   5.561   9.234   0.046  0.1433 -0.9674  1.5032
 1666SOL    HW2 7537   5.601   9.334   0.152  1.1125  1.5470 -1.1724
 1667SOL     OW 7538   3.238   7.638   7.548  0.0732  0.0204  0.1325
 1667SOL    HW1 7539   3.303   7.603   7.609 -0.7563 -1.5930  0.1387
 1667SOL    HW2 7540   3.209   7.561   7.498  0.2620  1.2065 -1.8411
 1668SOL     OW 7541   9.839   6.809   9.279 -0.2744  0.6073  0.1536
 1668SOL    HW1 7542   9.931   6.788   9.266 -0.6797 -2.0191  1.1686
 1668SOL    HW2 7543   9.838   6.902   9.301  2.3456  0.2067  2.1423
 1669SOL     OW 7544   1.070   0.441   2.385 -1.0072 -0.1585  0.0299
 1669SOL    HW1 7545   1.040   0.509   2.324  1.7859 -0.3400 -1.5930
 1669SOL    HW2 7546   1.079   0.362   2.331 -1.3329 -1.0857  1.2983
 1670SOL     OW 7547   9.761   4.844   3.681 -0.6881  0.0804  0.4824
 1670SOL    HW1 7548   9.794   4.762   3.645 -0.3404  0.1915  0.5433
 1670SOL    HW2 7549   9.823   4.910   3.651 -1.5262  0.4778 -0.4153
 1671SOL     OW 7550   1.300  10.146   6.051 -0.3611  0.2908  0.2941
 1671SOL    HW1 7551   1.325  10.118   5.962  0.1018 -2.0773  1.1277
 1671SOL    HW2 7552   1.216  10.190   6.039  0.7156  1.9115 -1.5918
 1672SOL     OW 7553   3.634   7.195   2.624 -0.0493  0.1402  0.1667
 1672SOL    HW1 7554   3.623   7.191   2.719  0.1341  0.1701  0.1897
 1672SOL    HW2 7555   3.547   7.178   2.589 -0.5108  1.9680  0.3758
 1673SOL     OW 7556   1.999   6.636   3.164  0.4715  0.0649 -0.1075
 1673SOL    HW1 7557   2.054   6.579   3.110  0.6790 -1.6058  1.8350
 1673SOL    HW2 7558   2.055   6.660   3.239 -0.4728  0.7677  0.3819
 1674SOL     OW 7559   9.806   9.353   7.941 -0.2334  0.0631  0.1480
 1674SOL    HW1 7560   9.833   9.265   7.912  1.7609  0.7064 -0.0768
 1674SOL    HW2 7561   9.845   9.362   8.028  1.0860  1.3658 -0.5532
 1675SOL     OW 7562   5.138   2.258   4.632 -0.0386 -0.8661 -0.4931
 1675SOL    HW1 7563   5.158   2.223   4.719 -1.8036 -1.6539 -0.3841
 1675SOL    HW2 7564   5.193   2.207   4.572  1.4556 -0.0700  0.1698
 1676SOL     OW 7565   3.572   4.885   9.277 -0.2603  0.2290  0.6479
 1676SOL    HW1 7566   3.504   4.944   9.246  0.0929 -0.7337 -2.1066
 1676SOL    HW2 7567   3.559   4.805   9.226  1.0996 -1.0130  2.2087
 1677SOL     OW 7568   4.685   7.690   2.069  0.2729  0.6334  0.4361
 1677SOL    HW1 7569   4.593   7.672   2.051  0.4787  2.3005 -2.7226
 1677SOL    HW2 7570   4.730   7.606   2.056 -0.6780  0.0236  1.0920
 1678SOL     OW 7571   3.213   3.823   6.813  0.1656  0.0646  1.4967
 1678SOL    HW1 7572   3.262   3.800   6.734  1.5902 -1.4352  2.7658
 1678SOL    HW2 7573   3.264   3.893   6.854 -0.1249  0.2720  1.5044
 1679SOL     OW 7574   7.167   3.961   2.756  0.1882 -0.3305 -0.4610
 1679SOL    HW1 7575   7.101   4.028   2.738 -0.5542 -1.1256 -0.7699
 1679SOL    HW2 7576   7.136   3.918   2.836  0.5384 -0.4474 -0.3890
 1680SOL     OW 7577   7.062   9.324   1.151  0.0723  0.0609 -0.2228
 1680SOL    HW1 7578   7.054   9.359   1.240 -0.2233  0.4441 -0.3975
 1680SOL    HW2 7579   6.977   9.340   1.111  0.3872  0.4260 -0.7605
 1681SOL     OW 7580   1.039   0.843   5.986 -0.2784 -0.1413 -0.0242
 1681SOL    HW1 7581   1.079   0.761   6.016  0.0832 -0.3936 -1.1696
 1681SOL    HW2 7582   1.102   0.911   6.010 -0.1699 -0.3019  0.1437
 1682SOL     OW 7583   0.951   8.510   9.688 -0.0415  0.0232  0.5364
 1682SOL    HW1 7584   0.920   8.422   9.711 -1.6113 -0.0340 -1.5794
 1682SOL    HW2 7585   0.960   8.556   9.771  0.4835 -2.0448  1.6512
 1683SOL     OW 7586   5.444   0.061   6.176 -0.5823 -0.0797 -0.2955
 1683SOL    HW1 7587   5.354   0.065   6.143 -0.3738  0.2132 -0.8324
 1683SOL    HW2 7588   5.464   0.152   6.197 -0.9853 -0.3563  1.3748
 1684SOL     OW 7589   3.873   3.911   5.341 -0.1298  0.2194 -0.1303
 1684SOL    HW1 7590   3.799   3.938   5.286  0.3573 -0.7468 -1.2753
 1684SOL    HW2 7591   3.911   3.837   5.294  0.8791  0.0012  1.0381
 1685SOL     OW 7592   5.186   8.863  10.097 -0.0533 -0.5162 -0.0326
 1685SOL    HW1 7593   5.124   8.843  10.167  1.3023  0.2142  1.4034
 1685SOL    HW2 7594   5.161   8.806  10.025 -0.5538 -2.3269  1.5533
 1686SOL     OW 7595   6.393   5.185   1.741 -0.4045 -0.2641 -0.0149
 1686SOL    HW1 7596   6.464   5.238   1.779  0.9327 -2.5207  0.7739
 1686SOL    HW2 7597   6.411   5.096   1.773 -3.3821 -0.9550 -0.1447
 1687SOL     OW 7598   4.300   6.915   4.433 -0.5828 -0.0521 -0.0871
 1687SOL    HW1 7599   4.346   6.834   4.412  0.5991 -0.0550  2.3556
 1687SOL    HW2 7600   4.341   6.981   4.377  0.9215 -0.4518  0.5378
 1688SOL     OW 7601   6.152   8.261   5.352  0.2526 -0.6467 -0.3012
 1688SOL    HW1 7602   6.077   8.281   5.296 -1.2013 -1.0044  1.4746
 1688SOL    HW2 7603   6.151   8.165   5.359 -0.2318 -0.5477  1.1821
 1689SOL     OW 7604   5.679   1.479   2.500 -0.0375  0.1244  0.5419
 1689SOL    HW1 7605   5.700   1.559   2.454  0.3523  0.7310  1.7525
 1689SOL    HW2 7606   5.732   1.411   2.458  0.6313  0.7504  0.3794
 1690SOL     OW 7607   9.095   5.731   4.801  0.5066 -0.0778  0.1912
 1690SOL    HW1 7608   9.030   5.765   4.862  1.4214  0.2052  1.0241
 1690SOL    HW2 7609   9.130   5.653   4.844 -1.1341 -1.7476 -1.4253
 1691SOL     OW 7610   3.843   0.858   1.087  0.0992 -0.4239 -0.5762
 1691SOL    HW1 7611   3.775   0.899   1.141 -0.2637 -0.3682 -1.0742
 1691SOL    HW2 7612   3.902   0.930   1.064  1.4392 -0.8176  1.5023
 1692SOL     OW 7613   5.959   1.688   2.971 -0.6133 -0.2073  0.0724
 1692SOL    HW1 7614   5.897   1.648   2.910 -2.2316 -1.8126  2.6695
 1692SOL    HW2 7615   6.010   1.614   3.006 -0.5476  0.5272  1.5720
 1693SOL     OW 7616   4.459   1.904   6.377 -0.0018  0.4905 -0.1749
 1693SOL    HW1 7617   4.474   1.826   6.324 -0.3625 -0.1187  0.6192
 1693SOL    HW2 7618   4.374   1.938   6.346 -1.6671 -1.5288  2.0152
 1694SOL     OW 7619   2.729   3.803   3.464  0.6999 -0.7283  0.0084
 1694SOL    HW1 7620   2.659   3.813   3.529 -0.5992  0.3957 -1.5144
 1694SOL    HW2 7621   2.708   3.721   3.419  1.0056 -0.9768  0.3237
 1695SOL     OW 7622   6.859   0.580   5.175  0.2478 -0.5563 -0.2858
 1695SOL    HW1 7623   6.894   0.496   5.207  1.7804  0.6434  1.2658
 1695SOL    HW2 7624   6.884   0.581   5.083  1.9588 -0.9657  0.1406
 1696SOL     OW 7625   9.587   7.771   8.797 -0.6015  0.3468  0.1189
 1696SOL    HW1 7626   9.602   7.829   8.871  2.9781  1.1310 -1.1393
 1696SOL    HW2 7627   9.603   7.683   8.832  3.0068  0.8495 -0.1112
 1697SOL     OW 7628   8.165   6.860   6.428  0.1407  0.3005 -0.2370
 1697SOL    HW1 7629   8.163   6.774   6.470  0.3144 -0.1224 -1.0766
 1697SOL    HW2 7630   8.259   6.880   6.418  0.1451 -0.4845 -2.1493
 1698SOL     OW 7631   5.266   0.730   1.678  0.2205  0.1052 -0.0127
 1698SOL    HW1 7632   5.325   0.761   1.609  2.2065 -1.1150  1.0796
 1698SOL    HW2 7633   5.225   0.810   1.711  3.0443  1.3035  0.7813
 1699SOL     OW 7634   0.362   5.149   3.440  0.2832  0.2401  0.0449
 1699SOL    HW1 7635   0.440   5.198   3.468 -0.0881  0.4783  0.6669
 1699SOL    HW2 7636   0.389   5.057   3.445  0.7447  0.3492 -0.4050
 1700SOL     OW 7637   7.440   6.754   8.465 -0.2315 -0.5629  0.0848
 1700SOL    HW1 7638   7.406   6.842   8.447  0.1955 -0.5879 -0.9044
 1700SOL    HW2 7639   7.382   6.696   8.416  0.8032 -0.6588 -1.0516
 1701SOL     OW 7640   7.065   5.507   4.984  0.4313 -0.1838  0.0016
 1701SOL    HW1 7641   7.115   5.575   5.031  0.6090 -1.1749  1.2612
 1701SOL    HW2 7642   6.981   5.504   5.029  0.4314 -0.8114 -0.0370
 1702SOL     OW 7643   9.135   2.570   8.095  0.1364 -0.2318  0.5698
 1702SOL    HW1 7644   9.203   2.584   8.161 -0.5502 -2.1761  1.7239
 1702SOL    HW2 7645   9.109   2.479   8.107 -0.8235 -0.2696 -1.6242
 1703SOL     OW 7646   5.242   7.762   7.217  0.6117  0.0555  0.4069
 1703SOL    HW1 7647   5.157   7.733   7.248  0.5883 -1.4708 -1.0188
 1703SOL    HW2 7648   5.300   7.750   7.292 -0.1873 -0.0222  1.0150
 1704SOL     OW 7649   0.667   1.443   0.768 -0.3825  0.4205  0.0616
 1704SOL    HW1 7650   0.754   1.411   0.746 -0.2880  0.4095  0.4587
 1704SOL    HW2 7651   0.682   1.514   0.831 -0.5410  1.8030 -1.4144
 1705SOL     OW 7652   6.831   9.475   3.571 -0.0719  0.5316 -0.0546
 1705SOL    HW1 7653   6.780   9.397   3.550 -0.7594  0.7779  0.6613
 1705SOL    HW2 7654   6.855   9.464   3.663  1.6251  0.1721 -0.5370
 1706SOL     OW 7655   6.376   6.524   7.700 -0.1637 -0.3183 -0.7489
 1706SOL    HW1 7656   6.367   6.577   7.621  0.3799 -0.4928 -0.9292
 1706SOL    HW2 7657   6.306   6.554   7.757  0.6990  1.2397 -0.4906
 1707SOL     OW 7658   2.696   3.530   2.528  0.1182 -0.1480 -0.1974
 1707SOL    HW1 7659   2.758   3.598   2.500  0.7692 -0.7985 -0.3331
 1707SOL    HW2 7660   2.664   3.562   2.613  0.8537  0.0559  0.0129
 1708SOL     OW 7661   7.534   3.022   4.348 -0.1129  0.1579  0.1740
 1708SOL    HW1 7662   7.525   3.057   4.259  0.4593 -0.2017 -0.0252
 1708SOL    HW2 7663   7.480   3.080   4.401 -0.9937 -0.0282 -0.5103
 1709SOL     OW 7664   9.177   7.861   2.853 -0.4627 -0.1193 -0.2077
 1709SOL    HW1 7665   9.215   7.932   2.904 -0.6704  0.4245 -0.8118
 1709SOL    HW2 7666   9.191   7.783   2.907  1.9942 -0.0298 -0.6492
 1710SOL     OW 7667   8.559   3.536   0.959 -0.1984 -0.3162  0.7349
 1710SOL    HW1 7668   8.549   3.475   1.032  0.2255 -1.5842 -0.2314
 1710SOL    HW2 7669   8.616   3.489   0.897  2.8012  2.3558  1.3466
 1711SOL     OW 7670   1.903   8.210   5.806  0.3546 -0.1919 -0.1276
 1711SOL    HW1 7671   1.844   8.211   5.881  0.5739  0.4358  0.0312
 1711SOL    HW2 7672   1.935   8.120   5.803  0.7638 -0.0847  0.8547
 1712SOL     OW 7673   5.078   0.186   5.409 -0.3599  0.9893  0.5045
 1712SOL    HW1 7674   5.006   0.198   5.347  0.0495  0.3189 -0.1100
 1712SOL    HW2 7675   5.149   0.241   5.375  0.6653 -1.1613 -0.9430
 1713SOL     OW 7676   8.624   4.439   1.763 -0.3921  0.9531 -0.1842
 1713SOL    HW1 7677   8.696   4.445   1.701 -0.5942 -0.3959 -0.5542
 1713SOL    HW2 7678   8.651   4.494   1.837  0.0105  2.2545 -1.2928
 1714SOL     OW 7679   1.650   7.349   8.073  0.1174 -0.0112 -0.3726
 1714SOL    HW1 7680   1.678   7.409   8.005 -0.0573  1.3368  0.7241
 1714SOL    HW2 7681   1.721   7.350   8.137 -0.6098  0.3060  0.4440
 1715SOL     OW 7682   2.244   0.214   5.020 -0.4996 -0.7082  0.0415
 1715SOL    HW1 7683   2.171   0.237   4.964 -1.3259 -0.6963  1.1045
 1715SOL    HW2 7684   2.266   0.124   4.997 -2.5449 -1.6125  1.5157
 1716SOL     OW 7685   0.884   3.027   9.139  0.0160 -0.2402  0.4096
 1716SOL    HW1 7686   0.959   3.043   9.196 -0.4842 -0.2218  1.0624
 1716SOL    HW2 7687   0.845   3.113   9.126  0.0862 -0.2539  0.0878
 1717SOL     OW 7688   3.510   7.412   5.596 -0.2814  0.1269  0.0625
 1717SOL    HW1 7689   3.598   7.446   5.577 -0.2950  0.4884  0.6357
 1717SOL    HW2 7690   3.500   7.422   5.690  0.2376 -2.7591  0.4570
 1718SOL     OW 7691   1.601   3.802   2.555  0.0050  0.3447  0.0999
 1718SOL    HW1 7692   1.686   3.761   2.573  0.2148  1.1804  1.0430
 1718SOL    HW2 7693   1.542   3.728   2.541  0.9889 -0.2377 -1.0659
 1719SOL     OW 7694   6.185   4.718   8.296  0.1478  0.1475  0.5137
 1719SOL    HW1 7695   6.171   4.624   8.312 -1.6411  0.4975  1.0344
 1719SOL    HW2 7696   6.272   4.722   8.255  0.0820 -1.7680  0.1374
 1720SOL     OW 7697   9.938  10.036   6.823 -0.9578  0.4433  0.4120
 1720SOL    HW1 7698  10.032  10.022   6.812 -1.1733 -0.5010 -0.2782
 1720SOL    HW2 7699   9.930  10.078   6.908  0.1101  0.7334  0.3764
 1721SOL     OW 7700   2.470   9.754   0.065 -0.2677 -0.2135  0.6597
 1721SOL    HW1 7701   2.517   9.771  -0.016 -0.7390  0.1761  0.4685
 1721SOL    HW2 7702   2.500   9.667   0.092 -0.6415 -0.6484 -0.2984
 1722SOL     OW 7703   2.674   9.777   8.774 -0.1509  0.0205  0.2482
 1722SOL    HW1 7704   2.595   9.789   8.721 -0.2612 -0.4266  0.3083
 1722SOL    HW2 7705   2.645   9.787   8.864 -0.5760 -2.2797  0.4058
 1723SOL     OW 7706   4.244   7.328   3.071  0.3601 -0.0796 -0.0801
 1723SOL    HW1 7707   4.274   7.416   3.093  0.4223 -0.3499  0.9975
 1723SOL    HW2 7708   4.323   7.274   3.073  0.5116  0.0673 -1.9999
 1724SOL     OW 7709   6.406   1.004   1.035  0.3495 -0.2435  0.2732
 1724SOL    HW1 7710   6.362   0.987   1.119 -0.3659 -3.6767 -0.7037
 1724SOL    HW2 7711   6.488   0.955   1.041  0.6641  0.1544 -0.7358
 1725SOL     OW 7712   9.607   6.574   9.380 -0.2082 -0.3294 -0.5646
 1725SOL    HW1 7713   9.676   6.572   9.314  1.0576 -3.6159  0.7733
 1725SOL    HW2 7714   9.571   6.485   9.381 -1.1528  0.0148  2.1848
 1726SOL     OW 7715   9.030   0.969   5.718 -0.4217 -0.5836 -0.2481
 1726SOL    HW1 7716   9.019   1.040   5.655 -0.1027 -0.2269  0.0894
 1726SOL    HW2 7717   8.944   0.959   5.758 -0.1211  0.6106  0.7354
 1727SOL     OW 7718   2.265   7.204   9.395  0.7928  0.2413 -0.2005
 1727SOL    HW1 7719   2.318   7.164   9.464 -0.2331 -0.1674  0.3616
 1727SOL    HW2 7720   2.213   7.132   9.360  0.8585  0.5739 -0.9918
 1728SOL     OW 7721   1.282   7.966   7.977  0.1056  0.4573  0.1626
 1728SOL    HW1 7722   1.208   7.911   8.005 -0.1893  0.3847 -0.7509
 1728SOL    HW2 7723   1.359   7.922   8.014 -0.0731 -0.9091 -1.0317
 1729SOL     OW 7724   7.026   0.651   0.765  0.8497  0.3272  0.4889
 1729SOL    HW1 7725   6.992   0.653   0.854  2.1036  1.6504  0.9615
 1729SOL    HW2 7726   6.969   0.590   0.718 -1.3602  1.5156  1.5792
 1730SOL     OW 7727   7.750   5.295   3.836 -0.2374 -0.7538  0.2978
 1730SOL    HW1 7728   7.830   5.242   3.830  0.6729  0.5691  0.5799
 1730SOL    HW2 7729   7.731   5.319   3.745 -0.7019 -1.6268  0.1594
 1731SOL     OW 7730   3.453   9.043   2.339 -0.0516 -0.5517  0.1142
 1731SOL    HW1 7731   3.380   8.982   2.334 -0.1232 -0.3228 -2.2919
 1731SOL    HW2 7732   3.470   9.067   2.248  1.3201  1.4232  0.8626
 1732SOL     OW 7733   8.910   6.954   3.159  0.3176 -0.4989 -0.1714
 1732SOL    HW1 7734   8.876   6.865   3.155 -2.4711  0.6170 -2.9526
 1732SOL    HW2 7735   8.856   6.997   3.226 -0.3651 -0.0902 -0.9825
 1733SOL     OW 7736   7.686   9.311   4.314 -0.1120  0.8791 -0.3300
 1733SOL    HW1 7737   7.696   9.331   4.221 -0.2199  1.7489 -0.1572
 1733SOL    HW2 7738   7.650   9.391   4.352 -1.5927 -0.0169  0.1868
 1734SOL     OW 7739   0.574   4.945   8.882  0.2700  0.2959 -0.3861
 1734SOL    HW1 7740   0.565   4.939   8.977 -0.8560  1.7779 -0.3953
 1734SOL    HW2 7741   0.668   4.952   8.867  0.4952 -0.6323  0.5693
 1735SOL     OW 7742   5.782   3.898   1.202  0.4693  0.0463  0.0211
 1735SOL    HW1 7743   5.764   3.830   1.267 -2.8068  0.2811 -0.5481
 1735SOL    HW2 7744   5.787   3.852   1.119  0.4888  0.2537 -0.0944
 1736SOL     OW 7745   1.802   6.072   5.380 -0.6986 -0.1543  0.2891
 1736SOL    HW1 7746   1.793   6.023   5.299 -2.6827  0.8405 -0.1287
 1736SOL    HW2 7747   1.828   6.160   5.353  0.9122 -0.4264  0.9010
 1737SOL     OW 7748   6.857   7.993   1.079  0.4539  0.2030  0.0211
 1737SOL    HW1 7749   6.924   7.939   1.120  1.1646 -0.2046 -1.6359
 1737SOL    HW2 7750   6.895   8.020   0.996 -1.3275  0.1794 -0.8321
 1738SOL     OW 7751   2.720   1.093   8.113 -0.5240 -0.1701 -0.0705
 1738SOL    HW1 7752   2.659   1.056   8.050  0.8904 -1.3113 -0.7976
 1738SOL    HW2 7753   2.797   1.037   8.108 -0.7374 -0.8711  3.3903
 1739SOL     OW 7754   3.213   1.475   0.714  0.2310 -0.0320  0.1500
 1739SOL    HW1 7755   3.148   1.466   0.644  0.1650  0.5908  0.1227
 1739SOL    HW2 7756   3.252   1.562   0.699 -0.8042  0.7285  1.7374
 1740SOL     OW 7757   3.275   4.515   3.459  0.9940  0.0461 -0.1823
 1740SOL    HW1 7758   3.362   4.496   3.424  1.7131  0.2426  1.4512
 1740SOL    HW2 7759   3.243   4.430   3.490  1.1416  0.1764  0.3498
 1741SOL     OW 7760   7.632   9.055   4.595 -0.5779  0.4613  0.3290
 1741SOL    HW1 7761   7.543   9.042   4.562 -0.1333  2.1497 -1.6718
 1741SOL    HW2 7762   7.637   9.150   4.610  0.8820  0.3675  0.4487
 1742SOL     OW 7763   1.470   5.794   7.474 -0.3351  0.1580 -0.1279
 1742SOL    HW1 7764   1.510   5.828   7.554 -0.5801 -1.2489  0.6112
 1742SOL    HW2 7765   1.385   5.760   7.502 -1.0307  0.9332 -1.2503
 1743SOL     OW 7766   9.365   6.962   0.633 -0.0225  0.1265  0.6031
 1743SOL    HW1 7767   9.281   6.985   0.593  0.9417 -0.3825 -1.7547
 1743SOL    HW2 7768   9.367   6.866   0.631  1.3783  0.1841 -0.9609
 1744SOL     OW 7769  10.128   7.040   8.030 -0.3142 -0.2195 -0.3245
 1744SOL    HW1 7770  10.146   7.134   8.031 -1.5944  0.0334  0.7763
 1744SOL    HW2 7771  10.047   7.031   7.980  0.9658 -0.9824 -2.2985
 1745SOL     OW 7772   6.844   7.384   5.046  0.0225  0.2076  0.8330
 1745SOL    HW1 7773   6.894   7.456   5.007 -0.8900 -0.0219 -0.8338
 1745SOL    HW2 7774   6.753   7.407   5.028 -0.2456 -1.7226 -0.3565
 1746SOL     OW 7775   0.562   2.444   2.952  0.7902 -0.2439 -0.1161
 1746SOL    HW1 7776   0.573   2.517   2.891 -0.8740  0.9246  0.9439
 1746SOL    HW2 7777   0.506   2.382   2.905  1.6007 -0.5025 -0.7407
 1747SOL     OW 7778   6.371   9.533   0.795  0.1143 -0.1621 -0.1650
 1747SOL    HW1 7779   6.308   9.556   0.727 -0.4041  1.2029  0.7439
 1747SOL    HW2 7780   6.435   9.477   0.751 -1.3097 -0.9374 -1.2772
 1748SOL     OW 7781   7.170   3.751   7.578  0.5080 -0.4463  0.4695
 1748SOL    HW1 7782   7.254   3.749   7.624 -0.1360 -2.2816  1.6158
 1748SOL    HW2 7783   7.165   3.668   7.531 -0.5162 -0.2253  0.1562
 1749SOL     OW 7784  10.042   8.041   9.332 -0.2983  0.0771 -0.3651
 1749SOL    HW1 7785  10.083   8.050   9.246 -0.2433  1.5697 -0.2073
 1749SOL    HW2 7786   9.952   8.017   9.314 -0.3665  0.6870 -0.8618
 1750SOL     OW 7787   9.377   9.184   1.578 -0.3508  0.0712 -0.3171
 1750SOL    HW1 7788   9.457   9.184   1.631 -0.1415 -1.4566 -0.6159
 1750SOL    HW2 7789   9.396   9.245   1.507  0.6197 -0.3984 -0.4707
 1751SOL     OW 7790   2.134  10.049   3.728  0.0641  0.2745  1.0345
 1751SOL    HW1 7791   2.073  10.096   3.671  0.6121 -1.5284 -1.1095
 1751SOL    HW2 7792   2.205  10.112   3.744  0.0755  0.7051 -0.5819
 1752SOL     OW 7793   7.795   8.423   9.445 -0.2690 -0.1261  0.1615
 1752SOL    HW1 7794   7.712   8.431   9.399 -0.4202 -2.0639  0.0342
 1752SOL    HW2 7795   7.859   8.461   9.385 -0.7505 -0.7640 -0.7835
 1753SOL     OW 7796   1.306   8.674   0.213 -0.1534 -0.3250 -0.6783
 1753SOL    HW1 7797   1.320   8.636   0.300 -2.7387  1.0036  0.3739
 1753SOL    HW2 7798   1.386   8.653   0.165  1.6832 -0.3967  2.2545
 1754SOL     OW 7799   5.674   1.993   1.606 -0.3593  0.2689  0.1162
 1754SOL    HW1 7800   5.666   1.901   1.630  1.2639 -0.0625 -0.5032
 1754SOL    HW2 7801   5.625   2.040   1.673 -0.2338 -0.9591  1.0910
 1755SOL     OW 7802   7.575   2.755   2.398  0.3948  0.2560 -0.7212
 1755SOL    HW1 7803   7.593   2.826   2.460 -1.7999  1.1655 -1.0980
 1755SOL    HW2 7804   7.636   2.772   2.326  1.8884  0.0750  0.4565
 1756SOL     OW 7805   7.352   9.693   3.662 -0.0360  0.5687 -0.4170
 1756SOL    HW1 7806   7.377   9.601   3.653 -1.5404 -0.0928  1.6764
 1756SOL    HW2 7807   7.269   9.700   3.615  0.1342  0.8837 -0.6713
 1757SOL     OW 7808   6.049   3.662   0.270 -0.0557 -0.1571 -0.0585
 1757SOL    HW1 7809   6.076   3.712   0.193 -1.3661  0.5705 -0.0577
 1757SOL    HW2 7810   6.093   3.705   0.343 -0.0383  0.1130 -0.2255
 1758SOL     OW 7811   3.163   6.993   0.156  0.1309 -0.3137  0.2786
 1758SOL    HW1 7812   3.196   7.027   0.239 -0.3312 -2.7053  1.4989
 1758SOL    HW2 7813   3.079   6.953   0.178  0.5088 -1.9381 -1.1146
 1759SOL     OW 7814   3.719   1.045   2.019 -0.3263  0.1665 -0.1897
 1759SOL    HW1 7815   3.734   0.964   2.067 -1.1360  0.0654 -0.0999
 1759SOL    HW2 7816   3.638   1.029   1.970  1.4271 -0.4088 -2.9928
 1760SOL     OW 7817   1.258   5.078   6.854 -0.2933 -0.5438  0.3111
 1760SOL    HW1 7818   1.294   5.010   6.911  0.2778 -0.1089  0.4759
 1760SOL    HW2 7819   1.332   5.106   6.801 -0.1897  0.9271  1.2071
 1761SOL     OW 7820   9.206   8.585   2.574  0.1160 -0.3608 -0.3183
 1761SOL    HW1 7821   9.189   8.676   2.549  1.0364  0.3097  1.4066
 1761SOL    HW2 7822   9.120   8.547   2.587 -0.2675  1.2844  2.4168
 1762SOL     OW 7823   9.480   7.762   8.338  0.4951 -0.1716  0.0902
 1762SOL    HW1 7824   9.460   7.720   8.422 -0.0359 -2.5000 -1.1555
 1762SOL    HW2 7825   9.576   7.768   8.337  0.5471 -0.8151  0.5451
 1763SOL     OW 7826   1.089   3.779   3.452  0.4048 -0.3423  0.2050
 1763SOL    HW1 7827   1.078   3.801   3.545  0.5659 -1.7272  0.5581
 1763SOL    HW2 7828   1.086   3.683   3.450 -1.6955 -0.2648 -1.4783
 1764SOL     OW 7829   4.184   2.373   0.557  0.7417  0.3449 -0.0667
 1764SOL    HW1 7830   4.236   2.406   0.484  0.3704 -0.5721 -0.7601
 1764SOL    HW2 7831   4.104   2.339   0.516  0.7591 -0.6498  0.7096
 1765SOL     OW 7832   1.441   5.063   6.526 -0.1744  0.2024 -0.4302
 1765SOL    HW1 7833   1.461   5.026   6.612  2.4200  2.5353  0.0422
 1765SOL    HW2 7834   1.368   5.010   6.494  0.8294 -2.7134  1.8471
 1766SOL     OW 7835   7.746   9.801   1.253 -0.4571 -0.4969  0.2444
 1766SOL    HW1 7836   7.838   9.776   1.238 -0.2023  0.5428  0.0805
 1766SOL    HW2 7837   7.712   9.823   1.167 -0.8863 -0.9619  0.2955
 1767SOL     OW 7838   3.624   9.443   3.857  0.2657 -0.1798  0.9871
 1767SOL    HW1 7839   3.646   9.501   3.930  0.9126 -0.2261  0.8302
 1767SOL    HW2 7840   3.575   9.371   3.897 -2.8001  1.7368  0.8418
 1768SOL     OW 7841   0.809   6.893   1.529 -0.5834  0.0057  0.1143
 1768SOL    HW1 7842   0.890   6.844   1.524 -1.0610 -0.6456 -1.6961
 1768SOL    HW2 7843   0.759   6.850   1.599  0.1849 -0.2462  0.5168
 1769SOL     OW 7844   5.203   6.982   3.265 -0.1508  0.2736  0.3840
 1769SOL    HW1 7845   5.267   6.994   3.195 -0.5918 -0.5637 -0.1760
 1769SOL    HW2 7846   5.154   6.903   3.240 -1.4836  0.9657  0.7207
 1770SOL     OW 7847   9.229   4.374   8.013 -0.0414  0.6736 -0.2795
 1770SOL    HW1 7848   9.188   4.354   8.098 -0.3711 -2.5930 -1.1461
 1770SOL    HW2 7849   9.322   4.361   8.028 -0.2322 -1.4845 -0.7764
 1771SOL     OW 7850   8.592   6.906   2.183 -0.0675 -0.3506  0.1498
 1771SOL    HW1 7851   8.681   6.941   2.193 -0.7582  1.4052  0.3459
 1771SOL    HW2 7852   8.605   6.814   2.160  1.8053 -0.0626 -0.0443
 1772SOL     OW 7853   2.593   5.864   2.338  0.3131 -0.0105  0.5877
 1772SOL    HW1 7854   2.660   5.814   2.384  0.2730 -0.6755 -0.0613
 1772SOL    HW2 7855   2.637   5.895   2.259  0.4256  1.2468  1.1382
 1773SOL     OW 7856   0.555   8.584   6.894  0.2803 -0.0452  0.6608
 1773SOL    HW1 7857   0.539   8.573   6.988  0.8679  3.1327  1.1930
 1773SOL    HW2 7858   0.650   8.581   6.885  0.1624 -2.1738 -0.1264
 1774SOL     OW 7859   7.630   9.883   7.849 -0.1745 -0.0663  0.2289
 1774SOL    HW1 7860   7.557   9.883   7.787  0.6397  1.3345 -0.7543
 1774SOL    HW2 7861   7.667   9.971   7.843  0.5978 -0.2606  1.9140
 1775SOL     OW 7862   7.031   5.912   4.325  0.0864 -0.0210  0.3168
 1775SOL    HW1 7863   7.009   5.927   4.417 -0.9253 -2.0773  0.4306
 1775SOL    HW2 7864   7.061   5.998   4.294 -2.8574  1.5714  1.6291
 1776SOL     OW 7865   5.162   9.531   7.479  0.2352  0.3901 -0.3058
 1776SOL    HW1 7866   5.254   9.515   7.501 -0.6228 -1.2386  2.2972
 1776SOL    HW2 7867   5.133   9.594   7.545 -0.6628  0.4848 -0.7896
 1777SOL     OW 7868   1.762   7.034   5.818 -0.7549 -0.1490  0.1843
 1777SOL    HW1 7869   1.794   6.984   5.743 -0.9139  0.0433 -0.0125
 1777SOL    HW2 7870   1.667   7.026   5.813 -0.8083  0.6772 -0.1982
 1778SOL     OW 7871   5.227   8.929   1.822 -0.3411  0.0851  0.4976
 1778SOL    HW1 7872   5.294   8.933   1.754  0.3063 -1.0186  1.0477
 1778SOL    HW2 7873   5.244   9.007   1.876 -0.4875  0.6471 -0.2546
 1779SOL     OW 7874   7.294   8.696   7.100  0.5069 -0.4400  0.1292
 1779SOL    HW1 7875   7.268   8.655   7.018 -1.2065 -0.0467  0.4454
 1779SOL    HW2 7876   7.330   8.781   7.074 -1.4202  0.3314 -0.1666
 1780SOL     OW 7877  10.109   5.951   9.558 -0.0287 -0.8403 -0.2608
 1780SOL    HW1 7878  10.059   5.941   9.639  0.8053 -1.3189  0.2035
 1780SOL    HW2 7879  10.128   6.045   9.552 -0.2753 -0.7754 -0.0120
 1781SOL     OW 7880   1.368   7.838   4.306 -0.3923  0.4369 -0.3199
 1781SOL    HW1 7881   1.296   7.896   4.283  0.4905  1.3991 -0.6898
 1781SOL    HW2 7882   1.388   7.791   4.224 -1.0393 -0.3426 -0.0460
 1782SOL     OW 7883   5.396   9.265   5.204  0.3368 -0.2086 -0.0738
 1782SOL    HW1 7884   5.325   9.279   5.268  0.8813  1.8193  0.1346
 1782SOL    HW2 7885   5.354   9.279   5.119  0.5814  1.5749  0.0755
 1783SOL     OW 7886  10.096   9.327   2.371 -0.2782  0.4510  0.0652
 1783SOL    HW1 7887  10.115   9.234   2.357 -0.3293  0.7736 -2.3021
 1783SOL    HW2 7888  10.170   9.359   2.422 -0.4680 -0.9702  1.2802
 1784SOL     OW 7889   4.703   1.429   6.004  0.5666 -0.1629  0.0452
 1784SOL    HW1 7890   4.700   1.524   6.003 -1.1505 -0.1999 -1.7574
 1784SOL    HW2 7891   4.776   1.406   5.947  0.6718  0.0721  0.0883
 1785SOL     OW 7892   5.462   3.079   6.695 -0.0042 -0.3879 -0.1515
 1785SOL    HW1 7893   5.524   3.150   6.706 -0.3837 -0.4600  2.7791
 1785SOL    HW2 7894   5.383   3.121   6.661  0.9961 -0.0251 -2.0985
 1786SOL     OW 7895   9.629   5.606   0.259  0.4534 -0.0365  0.5443
 1786SOL    HW1 7896   9.677   5.542   0.206 -0.6821 -0.6988  0.2920
 1786SOL    HW2 7897   9.548   5.621   0.210  0.5150  1.2625  0.8299
 1787SOL     OW 7898   2.405   8.060   8.683  0.0201 -0.2727  0.2501
 1787SOL    HW1 7899   2.316   8.093   8.697 -0.3970 -0.9110 -0.8352
 1787SOL    HW2 7900   2.462   8.127   8.721 -0.9777 -0.8211  2.7858
 1788SOL     OW 7901   7.977   5.607   4.952  0.6856 -0.0510  0.6608
 1788SOL    HW1 7902   7.941   5.580   4.868  0.8220  1.4013  0.1288
 1788SOL    HW2 7903   7.907   5.588   5.015  0.8731 -1.8701  0.3678
 1789SOL     OW 7904   2.662   9.276   2.589  0.0307 -0.3372 -0.1813
 1789SOL    HW1 7905   2.729   9.210   2.608  0.2465  0.4428  1.8359
 1789SOL    HW2 7906   2.581   9.239   2.622  0.1312  0.3299  0.8480
 1790SOL     OW 7907   7.389   2.185   6.201 -0.0012 -0.3753  0.2134
 1790SOL    HW1 7908   7.416   2.126   6.131 -2.1849 -1.5781  0.3757
 1790SOL    HW2 7909   7.295   2.172   6.211 -0.0910  1.2318  2.0274
 1791SOL     OW 7910   0.836   2.229   9.390 -0.1391  0.5351  0.0346
 1791SOL    HW1 7911   0.840   2.308   9.444  1.0001  0.1108  0.6006
 1791SOL    HW2 7912   0.906   2.173   9.425 -1.4686 -1.0811  0.1968
 1792SOL     OW 7913   2.586   8.015   3.833 -0.1902 -0.0805 -0.3043
 1792SOL    HW1 7914   2.524   8.027   3.760 -1.6708 -1.3105  0.6956
 1792SOL    HW2 7915   2.594   7.920   3.841  1.9962  0.0649 -0.5097
 1793SOL     OW 7916   1.443   8.993   6.124 -1.1397  0.4160  0.3087
 1793SOL    HW1 7917   1.529   9.033   6.131 -1.3697  0.6704  2.2246
 1793SOL    HW2 7918   1.459   8.899   6.121 -0.7979  0.4523  0.9453
 1794SOL     OW 7919   0.399   1.501   3.857 -0.1624 -0.4289 -0.1625
 1794SOL    HW1 7920   0.401   1.556   3.935  0.2972 -1.7068  0.7441
 1794SOL    HW2 7921   0.466   1.536   3.800  0.8977 -0.7242  0.8858
 1795SOL     OW 7922   4.576   8.465   7.822  0.1708 -0.1043  0.7497
 1795SOL    HW1 7923   4.602   8.517   7.745  0.8883 -1.4706  0.0420
 1795SOL    HW2 7924   4.659   8.438   7.861 -0.1808 -1.4574  0.5906
 1796SOL     OW 7925   5.281   0.910   8.091  0.1660 -0.1327  0.6318
 1796SOL    HW1 7926   5.350   0.975   8.106 -1.4890  1.5650  1.0107
 1796SOL    HW2 7927   5.244   0.933   8.006 -0.7217 -0.3140  0.9688
 1797SOL     OW 7928   6.725   9.971   2.604 -0.2844  0.4415  0.2824
 1797SOL    HW1 7929   6.641   9.925   2.596  0.8436 -1.4221 -1.1812
 1797SOL    HW2 7930   6.788   9.915   2.560  1.8683  1.5663  1.8041
 1798SOL     OW 7931   1.965   0.872   0.520  0.2364  0.6023 -0.2581
 1798SOL    HW1 7932   1.877   0.834   0.521  0.8424 -0.8448 -0.3629
 1798SOL    HW2 7933   1.988   0.884   0.613  0.9171 -1.4127 -0.1431
 1799SOL     OW 7934   9.744   9.690   7.907 -0.2507  0.0783  0.4815
 1799SOL    HW1 7935   9.683   9.618   7.918  0.4761 -0.5850  0.2043
 1799SOL    HW2 7936   9.830   9.651   7.921  0.3716  0.2617 -2.6258
 1800SOL     OW 7937   2.600   4.684   7.842  0.1792 -0.7199  0.3216
 1800SOL    HW1 7938   2.576   4.616   7.905 -0.1188 -1.2785 -0.3895
 1800SOL    HW2 7939   2.556   4.763   7.874  1.5753 -0.5612  1.8630
 1801SOL     OW 7940   8.311   8.647   2.058 -0.2971  0.6187 -0.6552
 1801SOL    HW1 7941   8.327   8.673   1.967  1.0916 -1.6098 -1.0872
 1801SOL    HW2 7942   8.398   8.645   2.098 -0.8905  1.4943  0.7077
 1802SOL     OW 7943   7.777   6.330   6.237  0.1078  0.0943 -0.3677
 1802SOL    HW1 7944   7.766   6.250   6.187  1.1771  0.3730 -1.0627
 1802SOL    HW2 7945   7.870   6.333   6.259 -0.3287  0.0086  1.5977
 1803SOL     OW 7946   4.345   2.860   2.311  0.0821  0.7275 -0.0393
 1803SOL    HW1 7947   4.433   2.831   2.288  0.3640  0.5474  1.2298
 1803SOL    HW2 7948   4.320   2.804   2.385 -1.5556 -0.0117 -1.1120
 1804SOL     OW 7949   8.505   1.341   7.933 -0.9094  0.0305  0.5117
 1804SOL    HW1 7950   8.462   1.256   7.943 -2.7190  0.9218  0.6569
 1804SOL    HW2 7951   8.592   1.329   7.971 -0.7014 -2.0724 -0.5624
 1805SOL     OW 7952   6.926   3.321   7.582 -0.0870 -0.6483  0.2153
 1805SOL    HW1 7953   6.868   3.393   7.604 -0.9947 -0.7180 -1.8115
 1805SOL    HW2 7954   6.871   3.243   7.588  0.3281 -0.9382  0.2943
 1806SOL     OW 7955   0.598   5.762   9.796 -0.2571  0.4442 -0.4527
 1806SOL    HW1 7956   0.622   5.734   9.708  1.8977  1.3097 -0.1610
 1806SOL    HW2 7957   0.600   5.681   9.848  3.2492  0.6159 -0.1977
 1807SOL     OW 7958   9.770   5.594   3.810 -0.2055 -0.1495 -0.3377
 1807SOL    HW1 7959   9.723   5.580   3.893 -2.7767  0.3813 -1.6294
 1807SOL    HW2 7960   9.802   5.508   3.786 -2.2999 -0.9568 -0.3880
 1808SOL     OW 7961   1.661   0.970   8.600  0.3862 -0.1920 -0.5382
 1808SOL    HW1 7962   1.622   0.898   8.550  1.9833 -1.5222  0.0752
 1808SOL    HW2 7963   1.667   0.936   8.689  0.5302  0.9592 -0.1069
 1809SOL     OW 7964   5.616   1.371   9.255  0.3688 -0.2041 -0.2640
 1809SOL    HW1 7965   5.694   1.316   9.264  0.2060 -0.3189  0.4767
 1809SOL    HW2 7966   5.575   1.369   9.342 -1.8280 -2.1997 -1.3021
 1810SOL     OW 7967   8.156   0.404   2.217 -0.0788  0.5117 -0.8869
 1810SOL    HW1 7968   8.129   0.462   2.146 -0.0322  1.1415 -0.3903
 1810SOL    HW2 7969   8.164   0.318   2.176  1.6419  1.1913 -2.0147
 1811SOL     OW 7970   9.190   3.208   3.532 -0.1007  0.0697  0.2643
 1811SOL    HW1 7971   9.159   3.239   3.447  0.1189 -2.2880 -0.7235
 1811SOL    HW2 7972   9.273   3.255   3.546 -0.7192  1.3451 -0.2412
 1812SOL     OW 7973   1.138   0.568   2.842  0.1863  0.0967 -0.1742
 1812SOL    HW1 7974   1.087   0.564   2.761 -1.0807  0.1331  0.6090
 1812SOL    HW2 7975   1.119   0.654   2.878  0.1786 -0.2045  0.5422
 1813SOL     OW 7976   8.749   1.829   2.596  0.4710  0.1771  0.0518
 1813SOL    HW1 7977   8.758   1.824   2.691  1.4998 -0.5400 -0.0902
 1813SOL    HW2 7978   8.824   1.881   2.567 -0.6419  1.6714 -0.2326
 1814SOL     OW 7979   4.487   8.660   1.473  0.1621  0.3575  0.1909
 1814SOL    HW1 7980   4.564   8.635   1.422  0.0124  1.1870 -0.4504
 1814SOL    HW2 7981   4.454   8.739   1.430 -1.1750 -0.1118  0.3302
 1815SOL     OW 7982   7.970   2.027   4.828 -0.3995 -0.3238 -0.5845
 1815SOL    HW1 7983   7.994   2.119   4.814 -0.4751 -0.3269 -0.7321
 1815SOL    HW2 7984   7.911   2.030   4.904  0.7240 -0.4116  0.3103
 1816SOL     OW 7985   8.213   8.725   9.799  0.4985  0.2381  0.3005
 1816SOL    HW1 7986   8.138   8.692   9.749  1.1793 -0.1704 -0.4731
 1816SOL    HW2 7987   8.288   8.680   9.760  1.0077 -0.3090  1.8981
 1817SOL     OW 7988   5.614   6.942   4.881  0.1450 -0.0111  0.5088
 1817SOL    HW1 7989   5.534   6.989   4.859  1.2090  2.3314  1.5377
 1817SOL    HW2 7990   5.660   6.931   4.797  0.2252  1.4162  0.3644
 1818SOL     OW 7991   2.000   2.157   3.784  0.7034  0.4573  0.0739
 1818SOL    HW1 7992   1.916   2.141   3.741  0.1236  2.2387  0.4992
 1818SOL    HW2 7993   2.037   2.232   3.737  0.6381  1.6256  1.8838
 1819SOL     OW 7994   6.487   3.626   5.581  0.2119 -0.5660  0.1111
 1819SOL    HW1 7995   6.474   3.705   5.634  0.0581 -0.5016 -0.0182
 1819SOL    HW2 7996   6.566   3.585   5.616  1.7761  0.9937 -1.4455
 1820SOL     OW 7997   9.903   7.616   7.906 -0.3252  0.3046  0.7546
 1820SOL    HW1 7998   9.934   7.707   7.904 -0.8404  0.5203  2.0943
 1820SOL    HW2 7999   9.810   7.623   7.930 -0.2520 -0.6056  1.3207
 1821SOL     OW 8000   9.469   0.894   7.051  0.1435  0.3669 -0.2759
 1821SOL    HW1 8001   9.556   0.862   7.075  0.1068 -0.3267 -1.0603
 1821SOL    HW2 8002   9.414   0.874   7.127  0.2259 -1.0187 -0.5861
 1822SOL     OW 8003   8.977   3.636   6.460 -0.2096  0.0344 -0.1530
 1822SOL    HW1 8004   8.965   3.707   6.397 -0.6146  1.2780  1.3040
 1822SOL    HW2 8005   8.894   3.631   6.507  0.4656 -0.0969  1.0568
 1823SOL     OW 8006   7.970   6.155   0.281 -0.0547 -0.5995  0.3172
 1823SOL    HW1 8007   7.924   6.211   0.218 -1.8754 -1.7763  0.5522
 1823SOL    HW2 8008   7.947   6.193   0.366 -3.3602 -3.1060  0.6271
 1824SOL     OW 8009   3.956   9.921   6.995  0.0726 -0.2801 -0.0403
 1824SOL    HW1 8010   3.927   9.847   6.941 -0.3858 -1.7402  2.1381
 1824SOL    HW2 8011   4.039   9.892   7.033 -0.3413  0.1401  1.2043
 1825SOL     OW 8012   4.786   7.482   3.874  0.9396 -0.0931 -0.5837
 1825SOL    HW1 8013   4.713   7.504   3.816 -0.1389  0.0707  0.8007
 1825SOL    HW2 8014   4.824   7.403   3.836 -0.8973 -1.0515 -0.5161
 1826SOL     OW 8015   8.331   3.030   3.097  0.3544 -0.2778  0.3529
 1826SOL    HW1 8016   8.257   3.082   3.067  0.0589 -0.1731  1.2482
 1826SOL    HW2 8017   8.399   3.045   3.031 -0.0591  0.4652  0.0875
 1827SOL     OW 8018   6.460   7.888   1.809 -0.2369  0.5387  0.0126
 1827SOL    HW1 8019   6.372   7.910   1.838 -0.3745  0.8099 -0.5927
 1827SOL    HW2 8020   6.467   7.793   1.823  0.1345  0.8559  2.0323
 1828SOL     OW 8021   1.232   9.348   1.506 -0.2278 -0.6676 -0.6276
 1828SOL    HW1 8022   1.145   9.311   1.516 -0.0898 -0.8992 -0.2523
 1828SOL    HW2 8023   1.290   9.283   1.546  0.3652 -1.6708 -3.0780
 1829SOL     OW 8024   6.420   5.810   7.943  0.0600  0.7800 -0.3284
 1829SOL    HW1 8025   6.388   5.804   7.854 -1.8170 -0.7738  0.4289
 1829SOL    HW2 8026   6.432   5.903   7.958 -2.6707  1.2983 -1.1499
 1830SOL     OW 8027   7.358   7.551   7.548 -0.1739  0.1542  0.0079
 1830SOL    HW1 8028   7.403   7.569   7.631  0.5042  1.6996 -0.6796
 1830SOL    HW2 8029   7.292   7.486   7.571  0.4584  0.0462  1.6288
 1831SOL     OW 8030   8.439   0.045   3.258  0.4410  0.2658  0.0193
 1831SOL    HW1 8031   8.504   0.114   3.271  0.0683  0.4718  0.8847
 1831SOL    HW2 8032   8.481  -0.035   3.290  0.0512  0.5117  1.1729
 1832SOL     OW 8033   4.718   0.006   8.773  0.4920 -0.0974 -0.6264
 1832SOL    HW1 8034   4.763  -0.035   8.700  0.9265 -1.9138  0.6349
 1832SOL    HW2 8035   4.776  -0.007   8.848 -0.7097  0.2489  0.3905
 1833SOL     OW 8036   6.318   6.343   4.568 -0.0725 -0.0537  0.3886
 1833SOL    HW1 8037   6.409   6.351   4.597  0.3267  0.3567 -0.9594
 1833SOL    HW2 8038   6.277   6.287   4.634  0.6493  1.4232  2.1419
 1834SOL     OW 8039   0.430   6.027   9.116  0.4331 -0.3465  0.9342
 1834SOL    HW1 8040   0.345   6.013   9.075 -0.9275  3.8341  2.1533
 1834SOL    HW2 8041   0.492   6.025   9.044 -1.0507 -0.5172 -0.3582
 1835SOL     OW 8042   6.716   9.454   6.817  0.3719  0.0427 -0.6956
 1835SOL    HW1 8043   6.731   9.516   6.888  0.1301 -0.3687 -0.2820
 1835SOL    HW2 8044   6.646   9.494   6.765 -1.2331 -0.8190  0.7206
 1836SOL     OW 8045   4.664   5.643   1.415 -0.1612  0.7343  0.1425
 1836SOL    HW1 8046   4.579   5.598   1.415  0.3919 -0.3351  0.7453
 1836SOL    HW2 8047   4.706   5.614   1.496  2.3033 -1.6764 -1.9022
 1837SOL     OW 8048   8.186   8.381   3.253 -0.0789 -0.1370 -0.2682
 1837SOL    HW1 8049   8.113   8.403   3.312  0.2530 -1.3053  0.6002
 1837SOL    HW2 8050   8.175   8.288   3.235 -1.1314  0.5343 -3.4490
 1838SOL     OW 8051   9.708   2.821   5.445 -0.1190 -0.3287  0.3839
 1838SOL    HW1 8052   9.690   2.888   5.379  1.3997 -0.5469 -0.2716
 1838SOL    HW2 8053   9.802   2.806   5.438 -0.3229 -1.9761  1.0555
 1839SOL     OW 8054   5.707   3.789   8.924  0.1786  0.2327  0.1481
 1839SOL    HW1 8055   5.697   3.808   8.831  1.3866 -2.2295 -0.5457
 1839SOL    HW2 8056   5.778   3.847   8.953  0.8476 -0.0715 -0.8476
 1840SOL     OW 8057   9.916   7.577   8.270  0.3201  0.2007  0.2065
 1840SOL    HW1 8058   9.847   7.531   8.318  1.1409  0.6446  1.8471
 1840SOL    HW2 8059   9.884   7.666   8.258  0.6606  0.4456  1.0955
 1841SOL     OW 8060   5.318   0.593   8.500  0.9501  0.3303  0.3215
 1841SOL    HW1 8061   5.307   0.634   8.415  2.4057  0.2266  0.0658
 1841SOL    HW2 8062   5.363   0.659   8.553  0.7254  0.1246  0.7721
 1842SOL     OW 8063   2.535   3.176   1.155  0.0816 -0.0325  0.3052
 1842SOL    HW1 8064   2.604   3.226   1.111 -0.2513  0.1256 -0.0417
 1842SOL    HW2 8065   2.538   3.206   1.246 -0.6383  1.2083 -0.0629
 1843SOL     OW 8066   0.374   7.863   5.894  0.2885  0.4989 -0.2995
 1843SOL    HW1 8067   0.424   7.866   5.975  0.1352 -0.2153 -0.1728
 1843SOL    HW2 8068   0.440   7.858   5.825  0.4045  0.3395 -0.1759
 1844SOL     OW 8069   7.874   5.529   4.732  0.3489 -0.2574  0.1366
 1844SOL    HW1 8070   7.872   5.452   4.674 -0.3287  0.5973 -0.9976
 1844SOL    HW2 8071   7.823   5.595   4.685 -2.0446 -0.2266  2.7062
 1845SOL     OW 8072  10.197   0.194   7.430 -0.2611  0.1137 -0.3230
 1845SOL    HW1 8073  10.219   0.172   7.520  0.1413 -2.2977 -0.9688
 1845SOL    HW2 8074  10.180   0.288   7.431 -1.5137 -0.1115  2.4913
 1846SOL     OW 8075   4.935   4.482   1.872 -0.1183  0.1986 -0.1157
 1846SOL    HW1 8076   4.975   4.562   1.904  1.1149 -0.4617  0.0262
 1846SOL    HW2 8077   4.994   4.450   1.804 -1.5676  0.3989 -1.4975
 1847SOL     OW 8078   9.298   6.365   6.209 -0.0882 -0.6867 -0.4935
 1847SOL    HW1 8079   9.364   6.417   6.256 -1.1252  0.5542 -0.3627
 1847SOL    HW2 8080   9.217   6.414   6.220 -0.5976 -0.9816 -2.5711
 1848SOL     OW 8081   8.943   6.134   4.880 -0.1318  0.0008 -0.1232
 1848SOL    HW1 8082   9.033   6.104   4.896 -0.0786 -0.2249 -0.8433
 1848SOL    HW2 8083   8.889   6.057   4.893  0.0397 -0.5059 -2.3375
 1849SOL     OW 8084   9.358   3.016   7.198  0.2709 -0.5988  0.3332
 1849SOL    HW1 8085   9.341   2.992   7.107  0.7616 -1.4505  0.4699
 1849SOL    HW2 8086   9.387   2.935   7.240  0.9955  0.0118  1.0159
 1850SOL     OW 8087   4.682   1.145   9.200  0.8194 -0.3049 -0.3751
 1850SOL    HW1 8088   4.597   1.101   9.203  0.7444 -0.2032 -0.9133
 1850SOL    HW2 8089   4.716   1.138   9.289 -0.1173  0.3749  0.0460
 1851SOL     OW 8090   2.684   6.656  10.102 -0.0002  0.2021  0.5926
 1851SOL    HW1 8091   2.652   6.704  10.026 -1.1702  0.6597  1.3691
 1851SOL    HW2 8092   2.717   6.573  10.066 -2.5553 -0.5083 -0.1610
 1852SOL     OW 8093   7.607   1.017   2.677 -0.2137 -0.5623 -0.5859
 1852SOL    HW1 8094   7.652   0.951   2.623 -1.6311 -2.5470  0.6246
 1852SOL    HW2 8095   7.577   0.969   2.754 -1.4994  1.4587  0.2015
 1853SOL     OW 8096   7.950   7.181   5.916  0.3072  0.7018  0.0035
 1853SOL    HW1 8097   7.873   7.228   5.882  0.7399  1.0487 -0.5142
 1853SOL    HW2 8098   7.947   7.196   6.010  0.5499  1.9681 -0.1703
 1854SOL     OW 8099   9.030   2.441   9.618 -0.0596 -0.6505  0.2258
 1854SOL    HW1 8100   9.081   2.401   9.688  0.1846 -0.6651  0.0434
 1854SOL    HW2 8101   9.050   2.388   9.541  1.5069  0.7561 -0.3627
 1855SOL     OW 8102   7.220   1.606   3.028 -0.2008 -0.8644  0.0510
 1855SOL    HW1 8103   7.159   1.547   2.984 -0.1028 -1.4310  0.6796
 1855SOL    HW2 8104   7.272   1.550   3.086  1.6015 -0.5467 -1.2090
 1856SOL     OW 8105   5.384   0.052   9.718  0.2330 -0.1293  0.1460
 1856SOL    HW1 8106   5.457   0.056   9.779  0.7961 -0.5885 -0.4878
 1856SOL    HW2 8107   5.309   0.026   9.771  1.6702 -5.4299 -0.1376
 1857SOL     OW 8108   9.338   9.637   3.526  0.0469  0.0918 -0.0737
 1857SOL    HW1 8109   9.349   9.644   3.431 -2.8125 -4.5082 -0.9051
 1857SOL    HW2 8110   9.386   9.558   3.549 -1.3077 -0.1823  1.8910
 1858SOL     OW 8111   5.525   9.343   3.896  0.0482  0.3138  0.0593
 1858SOL    HW1 8112   5.455   9.285   3.927  1.3735 -1.0797  0.4631
 1858SOL    HW2 8113   5.573   9.290   3.832  0.1676  1.5889 -0.9146
 1859SOL     OW 8114   0.902   5.543   6.221 -0.6042  0.3552  0.4062
 1859SOL    HW1 8115   0.950   5.482   6.166 -0.9779 -0.2059  0.7050
 1859SOL    HW2 8116   0.905   5.626   6.173 -1.1354 -0.1883 -0.5715
 1860SOL     OW 8117   4.292   6.798   0.333  0.3930 -0.0005  0.0346
 1860SOL    HW1 8118   4.314   6.848   0.412  0.5105  0.5920 -0.3750
 1860SOL    HW2 8119   4.373   6.795   0.283  0.3942 -0.6234  0.0628
 1861SOL     OW 8120   3.866   8.484   4.034  0.3901 -0.2448 -0.1358
 1861SOL    HW1 8121   3.940   8.463   3.977  1.7612  1.4474  0.9530
 1861SOL    HW2 8122   3.872   8.579   4.048 -2.8346  0.1890 -1.1551
 1862SOL     OW 8123   9.274   2.521   8.653 -0.4345  0.4679 -0.1715
 1862SOL    HW1 8124   9.332   2.590   8.686  0.3351 -0.4743  0.4988
 1862SOL    HW2 8125   9.189   2.540   8.693 -0.0386  0.5905  0.6219
 1863SOL     OW 8126   4.515   5.838   0.547  0.0961  0.4981 -0.0091
 1863SOL    HW1 8127   4.590   5.873   0.597  0.7058  1.2928 -1.4523
 1863SOL    HW2 8128   4.505   5.748   0.579  2.3307  0.0353 -0.5169
 1864SOL     OW 8129   1.977   6.681   9.107  0.3004 -0.3046  0.3386
 1864SOL    HW1 8130   1.926   6.603   9.127 -0.3276 -0.3614 -1.4096
 1864SOL    HW2 8131   1.935   6.751   9.157 -0.9543 -0.5202 -0.3941
 1865SOL     OW 8132   2.022   6.621   8.695 -0.0573  0.0628  0.1797
 1865SOL    HW1 8133   1.947   6.653   8.746 -1.9426 -1.6049 -1.4873
 1865SOL    HW2 8134   2.080   6.582   8.761 -1.2433  0.2073  1.3380
 1866SOL     OW 8135   3.787   5.532   2.396 -0.1383 -0.4433  0.2846
 1866SOL    HW1 8136   3.762   5.504   2.307  1.6713 -0.5259 -0.2165
 1866SOL    HW2 8137   3.780   5.453   2.449 -0.6632 -0.5268  0.0911
 1867SOL     OW 8138   0.552   4.365   7.203  0.2996  0.3401  0.5727
 1867SOL    HW1 8139   0.581   4.426   7.270 -0.7867  0.8357  0.6085
 1867SOL    HW2 8140   0.464   4.338   7.231  0.3549 -0.4414  0.0250
 1868SOL     OW 8141   7.311   4.254   8.019 -0.5190 -0.2949 -0.1870
 1868SOL    HW1 8142   7.331   4.162   8.006 -0.7761 -0.3886  0.0805
 1868SOL    HW2 8143   7.391   4.291   8.057 -0.3203 -0.3511 -0.5542
 1869SOL     OW 8144   0.203   4.974   4.855 -0.0791  0.4501  0.2769
 1869SOL    HW1 8145   0.249   4.897   4.821  0.7512  0.9969  0.1574
 1869SOL    HW2 8146   0.111   4.960   4.830  0.0649 -0.5033  0.2665
 1870SOL     OW 8147   1.007   8.772   2.398 -1.1476 -0.2408 -0.1096
 1870SOL    HW1 8148   0.914   8.778   2.376 -1.6548  3.1582  2.5504
 1870SOL    HW2 8149   1.039   8.862   2.390  1.3878 -0.9894  1.1887
 1871SOL     OW 8150   5.190   9.026   9.698  0.0690  0.0660  0.3925
 1871SOL    HW1 8151   5.119   8.998   9.757  0.0583  0.1943  0.4416
 1871SOL    HW2 8152   5.249   8.951   9.695 -0.2352 -0.1650  0.0944
 1872SOL     OW 8153   6.546   9.146   6.575 -0.6566  1.1444  0.6562
 1872SOL    HW1 8154   6.532   9.074   6.637 -0.6858  1.7059  1.2993
 1872SOL    HW2 8155   6.495   9.219   6.610 -1.7824  1.0478 -0.7720
 1873SOL     OW 8156   0.542   2.858   6.560 -0.2776  0.3183  0.0274
 1873SOL    HW1 8157   0.487   2.819   6.627  1.7428 -0.9984  0.9613
 1873SOL    HW2 8158   0.600   2.918   6.608  1.2964 -0.7619 -0.4791
 1874SOL     OW 8159   1.361   9.699   5.868  0.2823  0.2323 -0.0890
 1874SOL    HW1 8160   1.434   9.652   5.829 -0.6705 -0.5442 -0.9546
 1874SOL    HW2 8161   1.316   9.740   5.794 -1.5271 -1.2276  0.1534
 1875SOL     OW 8162   3.239   4.346   1.192  0.0254  0.0856 -0.4178
 1875SOL    HW1 8163   3.296   4.272   1.168 -0.1310 -0.3426  0.5395
 1875SOL    HW2 8164   3.159   4.305   1.225 -0.7056  0.6904 -1.3987
 1876SOL     OW 8165   4.221   2.428   1.876  0.3817  0.0945  0.0778
 1876SOL    HW1 8166   4.293   2.367   1.859 -1.1084 -2.0432  1.2456
 1876SOL    HW2 8167   4.183   2.445   1.790  0.7054 -0.7597 -0.2352
 1877SOL     OW 8168   0.790   9.363   1.857  0.2140  0.1968  0.5263
 1877SOL    HW1 8169   0.793   9.303   1.931 -1.2185 -1.0779 -0.4270
 1877SOL    HW2 8170   0.728   9.323   1.796  0.4761  1.8256 -0.8393
 1878SOL     OW 8171   1.564   9.130   6.741  0.0117  0.0362  0.1177
 1878SOL    HW1 8172   1.476   9.163   6.758 -0.8989 -0.7417 -2.8713
 1878SOL    HW2 8173   1.578   9.064   6.809 -1.9095 -0.1544  0.3590
 1879SOL     OW 8174   3.194   5.279   9.573 -0.1057 -0.0767  0.2552
 1879SOL    HW1 8175   3.130   5.350   9.569 -0.0141 -0.0181 -0.2247
 1879SOL    HW2 8176   3.179   5.238   9.658  1.3932  1.9727  1.5701
 1880SOL     OW 8177  10.200   7.225   0.608 -0.7022 -0.3675  0.0315
 1880SOL    HW1 8178  10.229   7.255   0.694  1.3045  0.7476 -1.0161
 1880SOL    HW2 8179  10.243   7.283   0.546 -3.0866 -0.3900 -1.7054
 1881SOL     OW 8180   3.626   3.363   1.849 -0.3724 -0.5236 -0.2840
 1881SOL    HW1 8181   3.655   3.390   1.762 -0.1585  1.6814  0.4433
 1881SOL    HW2 8182   3.685   3.293   1.874  1.1845  0.5507 -0.8871
 1882SOL     OW 8183   1.854  10.101   4.633  0.1239 -0.2617 -0.2746
 1882SOL    HW1 8184   1.798  10.173   4.662 -0.3547 -0.4577 -0.7063
 1882SOL    HW2 8185   1.856  10.109   4.538  1.6586  0.3578 -0.2008
 1883SOL     OW 8186   4.298   4.303   5.446 -0.0041 -0.4448 -0.7503
 1883SOL    HW1 8187   4.346   4.385   5.458 -1.0458 -0.0635  0.8757
 1883SOL    HW2 8188   4.211   4.330   5.416  0.1818 -1.0485 -1.8595
 1884SOL     OW 8189   0.617   7.916   0.852  0.3179  0.0257  0.4397
 1884SOL    HW1 8190   0.557   7.841   0.852 -0.4594  0.6082 -1.2093
 1884SOL    HW2 8191   0.560   7.992   0.847  1.1747  0.6149 -0.5883
 1885SOL     OW 8192   6.099   7.096   4.385  0.3649  0.0228 -0.0961
 1885SOL    HW1 8193   6.135   7.113   4.472  2.6392  0.4775 -1.0664
 1885SOL    HW2 8194   6.054   7.177   4.361  0.4441  0.1936  0.3378
 1886SOL     OW 8195   8.055   2.163   2.713 -0.7501  0.2112  0.2208
 1886SOL    HW1 8196   8.096   2.197   2.633 -0.8675 -1.8664 -0.7549
 1886SOL    HW2 8197   8.098   2.211   2.783  0.4927  0.9621 -1.0134
 1887SOL     OW 8198   8.554   6.358   9.953 -0.3142 -0.1164  0.2364
 1887SOL    HW1 8199   8.648   6.341   9.962  0.0645  1.0200 -1.3820
 1887SOL    HW2 8200   8.512   6.285   9.999  1.3400 -0.9781  0.4283
 1888SOL     OW 8201   2.649   8.622   7.492 -0.1959 -0.5936  0.2804
 1888SOL    HW1 8202   2.719   8.558   7.476 -0.2930 -0.4914 -0.5625
 1888SOL    HW2 8203   2.576   8.570   7.524  0.0362 -0.7840  0.5076
 1889SOL     OW 8204   5.655   2.174   9.935  0.7939  0.2661  0.7241
 1889SOL    HW1 8205   5.735   2.138   9.896  0.6088 -0.2796  0.8464
 1889SOL    HW2 8206   5.593   2.178   9.862  0.6807 -0.0605  0.8020
 1890SOL     OW 8207   0.085   8.007   6.242 -0.2846  0.2053 -0.4118
 1890SOL    HW1 8208   0.096   7.967   6.156 -0.0788  1.5954 -1.0489
 1890SOL    HW2 8209   0.166   7.986   6.288  0.6701  1.5247 -1.4342
 1891SOL     OW 8210   3.315   7.016   4.913  0.1554 -0.3408  0.0164
 1891SOL    HW1 8211   3.359   7.086   4.866 -0.2033 -0.5435 -0.6195
 1891SOL    HW2 8212   3.362   6.937   4.886  0.0802 -0.4332  0.1582
 1892SOL     OW 8213   7.132   5.651   5.222 -0.1249  0.1285 -0.1297
 1892SOL    HW1 8214   7.153   5.729   5.272  0.0308  0.9407 -1.4301
 1892SOL    HW2 8215   7.173   5.579   5.270  0.2312  0.9210  0.7578
 1893SOL     OW 8216   4.476   8.422   2.862 -0.1896  0.4174  0.4169
 1893SOL    HW1 8217   4.456   8.334   2.894 -0.4932  1.0582  2.0517
 1893SOL    HW2 8218   4.570   8.432   2.876  0.9959 -1.6206 -4.8368
 1894SOL     OW 8219   4.477   1.129   2.432 -0.1164  0.3855 -0.6288
 1894SOL    HW1 8220   4.492   1.035   2.425  0.1919  0.5102 -1.7426
 1894SOL    HW2 8221   4.457   1.143   2.524 -0.1911 -0.7754 -0.4585
 1895SOL     OW 8222   1.310   6.708   9.731  0.9439 -0.2416  0.5474
 1895SOL    HW1 8223   1.331   6.685   9.821  0.3740 -0.6340  0.5828
 1895SOL    HW2 8224   1.394   6.735   9.693  1.2892 -0.6192  1.0304
 1896SOL     OW 8225   1.111   8.441   1.439  0.1484 -0.1258 -0.0380
 1896SOL    HW1 8226   1.203   8.452   1.465  0.4666 -1.7667 -0.3719
 1896SOL    HW2 8227   1.066   8.418   1.520  0.1292  0.2033  0.0432
 1897SOL     OW 8228   3.770   0.798   3.215  0.1401 -0.2344 -0.1765
 1897SOL    HW1 8229   3.797   0.718   3.169  0.1842  0.1231 -0.7702
 1897SOL    HW2 8230   3.720   0.766   3.291 -1.1279 -0.8074 -1.2294
 1898SOL     OW 8231   1.129   8.969   0.713 -0.0741  0.2779 -0.8196
 1898SOL    HW1 8232   1.089   8.974   0.626  2.4960  0.7617 -2.0156
 1898SOL    HW2 8233   1.119   9.057   0.749 -1.2584  0.0433 -0.5675
 1899SOL     OW 8234   9.758   7.089   4.903 -0.3155  0.1341 -0.4831
 1899SOL    HW1 8235   9.731   6.998   4.911 -0.5638  0.1388 -1.2499
 1899SOL    HW2 8236   9.785   7.098   4.812 -2.1802  1.3498 -0.9435
 1900SOL     OW 8237   4.017   3.073   9.387  0.5438  0.4070 -0.0886
 1900SOL    HW1 8238   3.949   3.139   9.372  0.7281  0.6130 -0.0297
 1900SOL    HW2 8239   4.099   3.123   9.387  0.8549 -0.0384 -1.7949
 1901SOL     OW 8240   9.727   9.555   5.478  0.3330  0.5757 -0.3916
 1901SOL    HW1 8241   9.667   9.539   5.552  0.2578  1.9813 -0.1471
 1901SOL    HW2 8242   9.814   9.551   5.517  0.3868 -0.7869 -0.6238
 1902SOL     OW 8243   7.438   4.762   7.545 -0.0951 -0.7892  0.3109
 1902SOL    HW1 8244   7.404   4.747   7.633  0.5713  0.9757  0.8893
 1902SOL    HW2 8245   7.365   4.741   7.487 -1.0683 -0.3588  1.3731
 1903SOL     OW 8246   1.682   0.190   9.153  0.5569 -0.1919 -0.0363
 1903SOL    HW1 8247   1.696   0.119   9.215 -0.5396 -1.2995 -1.0080
 1903SOL    HW2 8248   1.640   0.147   9.078  2.8226  0.9035 -1.9818
 1904SOL     OW 8249   1.171   8.804   0.005  0.3332 -0.5024 -0.4166
 1904SOL    HW1 8250   1.234   8.813  -0.066  1.1978 -0.2416  0.3841
 1904SOL    HW2 8251   1.224   8.787   0.083 -0.5459  0.1886  0.3457
 1905SOL     OW 8252   6.038   4.791   2.040 -0.0341  0.2394  0.2030
 1905SOL    HW1 8253   6.108   4.737   2.002 -0.9641 -0.6735 -0.2554
 1905SOL    HW2 8254   6.055   4.879   2.008  1.5433  0.2285  1.0034
 1906SOL     OW 8255   8.980   6.680   5.815  0.7848  0.3502 -0.1979
 1906SOL    HW1 8256   8.982   6.727   5.899  0.9973 -1.6649  0.9480
 1906SOL    HW2 8257   9.072   6.656   5.800  0.5831 -0.2671 -0.4399
 1907SOL     OW 8258   9.264   2.062   3.915 -0.3984 -0.4233 -0.5273
 1907SOL    HW1 8259   9.285   1.989   3.974 -0.6866 -0.3781 -0.3685
 1907SOL    HW2 8260   9.330   2.128   3.934 -0.8646 -0.1599  0.1871
 1908SOL     OW 8261   5.439   1.124   0.013 -0.2861  0.0467 -0.7702
 1908SOL    HW1 8262   5.526   1.137   0.049 -1.4673  1.3194  1.7558
 1908SOL    HW2 8263   5.434   1.030  -0.005  1.3576 -0.1394 -0.3147
 1909SOL     OW 8264   5.629   2.090   4.317 -0.3813 -0.6088 -0.0936
 1909SOL    HW1 8265   5.689   2.108   4.389  0.1986 -1.6173 -0.3289
 1909SOL    HW2 8266   5.566   2.162   4.321 -1.1402 -1.3557  2.2489
 1910SOL     OW 8267   3.705   6.816   6.047 -0.0835 -0.1224 -0.5560
 1910SOL    HW1 8268   3.745   6.791   6.131  1.1007  1.2437 -0.7095
 1910SOL    HW2 8269   3.671   6.904   6.062 -1.6142 -0.6251 -0.9403
 1911SOL     OW 8270   0.089   2.228   2.195 -0.6926  0.0200  0.3300
 1911SOL    HW1 8271  -0.005   2.219   2.180 -0.7009 -1.5340  1.2001
 1911SOL    HW2 8272   0.128   2.223   2.107 -1.2547 -1.7562  0.1569
 1912SOL     OW 8273   3.249   5.118   8.555  0.0993  0.2338 -0.0913
 1912SOL    HW1 8274   3.338   5.141   8.529  0.4926 -1.3159 -0.1759
 1912SOL    HW2 8275   3.196   5.130   8.477  0.3913  0.3457 -0.2711
 1913SOL     OW 8276   0.015   8.578   2.815 -0.0002  0.2076  0.4796
 1913SOL    HW1 8277   0.076   8.632   2.865 -0.2551  0.3307  0.6616
 1913SOL    HW2 8278  -0.069   8.591   2.858  0.0482 -0.8152  0.8901
 1914SOL     OW 8279   2.582   2.250   2.755  0.1975  0.3986 -0.0849
 1914SOL    HW1 8280   2.605   2.164   2.719  1.1820 -0.3086  2.1652
 1914SOL    HW2 8281   2.520   2.232   2.825 -0.5966  1.6450 -0.4384
 1915SOL     OW 8282   5.853   5.178   5.716  1.0924 -0.0949  0.2808
 1915SOL    HW1 8283   5.836   5.166   5.809  1.0685  0.3967  0.3452
 1915SOL    HW2 8284   5.774   5.144   5.673  0.4939  0.9708  0.5135
 1916SOL     OW 8285   3.592   1.518   3.006 -0.2343  0.4521 -0.5795
 1916SOL    HW1 8286   3.545   1.583   3.056 -1.9339 -0.1843 -1.3105
 1916SOL    HW2 8287   3.530   1.489   2.939  0.5402 -1.7860 -0.3701
 1917SOL     OW 8288   4.296   2.648   1.101 -0.0495 -0.1599 -0.0749
 1917SOL    HW1 8289   4.349   2.721   1.069 -0.4408  0.9093  1.6386
 1917SOL    HW2 8290   4.226   2.640   1.037  2.0681 -1.5027 -2.2957
 1918SOL     OW 8291   9.635   7.228   6.913  0.5995  0.2691 -0.4856
 1918SOL    HW1 8292   9.653   7.248   6.821  3.2041  0.1959 -0.0295
 1918SOL    HW2 8293   9.716   7.250   6.958 -0.2989 -0.7206  1.6462
 1919SOL     OW 8294   2.425   0.414   1.696  0.3798 -0.4145 -0.0816
 1919SOL    HW1 8295   2.474   0.452   1.623  0.3247  1.0164  0.6042
 1919SOL    HW2 8296   2.491   0.377   1.753  0.4485 -1.2112 -0.6756
 1920SOL     OW 8297   2.904   6.737   0.342 -0.4746  0.4468 -0.4125
 1920SOL    HW1 8298   2.914   6.811   0.403 -0.1819 -1.3438  1.7821
 1920SOL    HW2 8299   2.827   6.759   0.290 -0.3245  2.3534  0.1364
 1921SOL     OW 8300   3.989   0.639   4.996  0.2717  0.2723 -0.5707
 1921SOL    HW1 8301   4.031   0.600   5.072 -0.4543  0.8203  0.1108
 1921SOL    HW2 8302   3.973   0.730   5.020 -2.1334 -0.1422 -0.4519
 1922SOL     OW 8303   7.664   7.733   9.682  0.6798 -0.6900 -0.4339
 1922SOL    HW1 8304   7.704   7.732   9.769 -0.9315  0.2859  0.3618
 1922SOL    HW2 8305   7.597   7.802   9.688 -0.4181 -1.6014 -2.0014
 1923SOL     OW 8306   0.904   6.386   7.149 -0.0805  0.1150  0.4876
 1923SOL    HW1 8307   0.913   6.481   7.157  1.7028  0.0627 -0.6093
 1923SOL    HW2 8308   0.953   6.351   7.224  2.1947  0.0082 -1.0096
 1924SOL     OW 8309   8.449   4.308   1.371 -0.0299 -0.6476 -0.3833
 1924SOL    HW1 8310   8.438   4.399   1.396 -2.0558 -1.1475  0.6679
 1924SOL    HW2 8311   8.541   4.290   1.386  0.3028  1.1087 -0.2247
 1925SOL     OW 8312   3.483  10.028   0.023  0.0179 -0.0440 -0.0293
 1925SOL    HW1 8313   3.472  10.122   0.011 -0.8981 -0.0240  0.9406
 1925SOL    HW2 8314   3.506  10.017   0.115 -0.1225 -0.7887 -0.0743
 1926SOL     OW 8315   5.398   0.510   5.398 -0.0443 -0.0831  0.2171
 1926SOL    HW1 8316   5.487   0.541   5.417  0.2966 -0.3496 -0.9049
 1926SOL    HW2 8317   5.355   0.584   5.355 -0.5001  0.1854  1.1241
 1927SOL     OW 8318   3.135   7.625   1.053  0.2776 -0.0817 -0.0232
 1927SOL    HW1 8319   3.043   7.626   1.077  0.5453 -1.1343  1.1077
 1927SOL    HW2 8320   3.182   7.625   1.137  1.2846  0.0406 -0.5797
 1928SOL     OW 8321   7.389   4.970   1.427  0.0380  0.4133 -0.3782
 1928SOL    HW1 8322   7.367   4.976   1.520  0.0520  0.4026 -0.3740
 1928SOL    HW2 8323   7.415   4.878   1.414  3.2184  1.1575  0.3126
 1929SOL     OW 8324   7.617   7.138   7.367 -0.2712  0.2303  0.1291
 1929SOL    HW1 8325   7.655   7.051   7.380 -0.9581 -0.1475 -0.3489
 1929SOL    HW2 8326   7.603   7.171   7.456  0.1149 -0.0970  0.3137
 1930SOL     OW 8327   7.480   9.303   2.548  0.0993  0.4164 -0.0324
 1930SOL    HW1 8328   7.518   9.215   2.546  1.3073  0.8973  1.5551
 1930SOL    HW2 8329   7.385   9.288   2.549  0.3041 -0.8595  0.3467
 1931SOL     OW 8330   8.139   3.690   6.037 -0.0740  0.0701 -0.1882
 1931SOL    HW1 8331   8.088   3.765   6.008 -1.4809 -0.2294  1.4783
 1931SOL    HW2 8332   8.080   3.615   6.027  0.6063 -0.5231  0.1785
 1932SOL     OW 8333   3.254   8.281   3.515 -0.1129  0.5415  0.5149
 1932SOL    HW1 8334   3.207   8.304   3.595 -1.3889  1.0658 -0.3774
 1932SOL    HW2 8335   3.246   8.186   3.510  2.3248  0.1555  2.4316
 1933SOL     OW 8336   9.469   5.757   9.381  0.2640  0.8100 -0.2379
 1933SOL    HW1 8337   9.515   5.823   9.330  2.0314 -2.1221 -2.6090
 1933SOL    HW2 8338   9.429   5.700   9.315 -0.2931 -1.1201  1.7089
 1934SOL     OW 8339   3.509   3.620   5.554  0.7478 -0.5527  0.1956
 1934SOL    HW1 8340   3.464   3.704   5.564 -1.7963 -1.6075 -1.7313
 1934SOL    HW2 8341   3.539   3.619   5.463  1.4092 -1.4517  0.4089
 1935SOL     OW 8342   0.333   5.078   8.204 -0.0078 -0.2279  0.6437
 1935SOL    HW1 8343   0.309   5.033   8.124 -1.4329  1.0618  0.3269
 1935SOL    HW2 8344   0.289   5.029   8.274 -2.4403  1.2566  0.2018
 1936SOL     OW 8345   9.336   1.758   7.216  0.2268  0.9668  0.1620
 1936SOL    HW1 8346   9.261   1.815   7.199  0.1976  0.2997 -2.1775
 1936SOL    HW2 8347   9.388   1.764   7.136  1.3810 -0.5402  0.7825
 1937SOL     OW 8348   8.976   4.163   1.457  0.1162 -0.1840  0.1282
 1937SOL    HW1 8349   9.054   4.143   1.406 -0.6609 -1.6416 -0.4868
 1937SOL    HW2 8350   8.970   4.093   1.522  1.0642  1.5996  2.2574
 1938SOL     OW 8351   1.060   2.377   4.162 -0.2883 -0.1515  0.1361
 1938SOL    HW1 8352   1.096   2.365   4.250 -0.8889 -0.5600  0.3273
 1938SOL    HW2 8353   1.095   2.462   4.133  0.1493 -0.1553  0.6474
 1939SOL     OW 8354   4.055   6.105   4.472 -0.2824 -0.2508  0.0459
 1939SOL    HW1 8355   3.970   6.140   4.447 -1.2292 -1.1119  1.9553
 1939SOL    HW2 8356   4.035   6.029   4.527  1.6556  0.6408  2.0970
 1940SOL     OW 8357   5.482   8.233   6.332 -0.0842  0.1291 -0.4300
 1940SOL    HW1 8358   5.512   8.246   6.423 -1.0710 -0.7166  0.0250
 1940SOL    HW2 8359   5.561   8.213   6.283  0.2450 -1.1272  0.5844
 1941SOL     OW 8360   7.208   1.892   4.871 -0.6583  0.4118 -0.2654
 1941SOL    HW1 8361   7.154   1.952   4.923 -1.2519 -0.3585  0.0216
 1941SOL    HW2 8362   7.249   1.835   4.936  0.5396  1.0200 -0.4807
 1942SOL     OW 8363   4.162   5.358   5.247 -0.0008 -0.5180 -0.3266
 1942SOL    HW1 8364   4.242   5.329   5.204 -0.0884 -0.5538 -0.4652
 1942SOL    HW2 8365   4.156   5.452   5.226  1.6484  0.2288  2.2516
 1943SOL     OW 8366   9.384   6.667   7.970 -0.6589 -0.0487  0.6227
 1943SOL    HW1 8367   9.434   6.597   8.010 -0.4629  0.2854  0.9601
 1943SOL    HW2 8368   9.326   6.623   7.908 -0.5785 -0.5122  0.8807
 1944SOL     OW 8369   2.825   5.049   9.314  0.1436 -0.1155  0.0905
 1944SOL    HW1 8370   2.734   5.038   9.285 -0.2598 -0.0504  1.3357
 1944SOL    HW2 8371   2.844   4.970   9.364 -0.2685  1.2801  2.5197
 1945SOL     OW 8372  10.039   0.426   1.552 -0.1338  0.2323 -0.6528
 1945SOL    HW1 8373   9.945   0.440   1.569 -0.4117  0.1173 -2.0478
 1945SOL    HW2 8374  10.048   0.331   1.546 -0.1173  0.2920 -1.5749
 1946SOL     OW 8375   6.179   9.673   0.166  0.0201  0.2014 -0.1648
 1946SOL    HW1 8376   6.258   9.702   0.212  0.3465 -0.9504  0.0070
 1946SOL    HW2 8377   6.118   9.746   0.175  0.4378  0.3864  1.2225
 1947SOL     OW 8378   6.791   7.260   7.505  0.0855  0.1064 -0.2553
 1947SOL    HW1 8379   6.805   7.344   7.461 -0.5130  0.7407  0.7688
 1947SOL    HW2 8380   6.801   7.279   7.598 -2.4017 -0.4665  0.1549
 1948SOL     OW 8381   2.218   2.428   7.084  0.2848  0.2613 -0.5355
 1948SOL    HW1 8382   2.211   2.524   7.082  0.7068  0.3215  0.5423
 1948SOL    HW2 8383   2.132   2.398   7.056 -0.3373  0.9661  0.5739
 1949SOL     OW 8384   9.215   4.561   7.145 -0.1780  0.2051  0.7588
 1949SOL    HW1 8385   9.185   4.493   7.084  1.9388  0.9101 -1.1545
 1949SOL    HW2 8386   9.178   4.536   7.229 -0.6797 -2.5067 -0.2075
 1950SOL     OW 8387   3.440   7.768   8.264 -0.3109 -0.2872  0.0568
 1950SOL    HW1 8388   3.451   7.674   8.250 -1.3269 -0.2874 -0.8061
 1950SOL    HW2 8389   3.498   7.809   8.201  1.5614 -0.3244  1.7038
 1951SOL     OW 8390   8.434   9.635   8.918  0.5239 -0.2278  0.5867
 1951SOL    HW1 8391   8.417   9.689   8.841 -1.5728 -2.0675 -0.2626
 1951SOL    HW2 8392   8.506   9.578   8.892  0.1660 -0.4878  0.1717
 1952SOL     OW 8393   4.786   2.849   3.618 -0.6599  0.0525 -0.1596
 1952SOL    HW1 8394   4.772   2.766   3.664  1.0198  0.2238  0.7079
 1952SOL    HW2 8395   4.721   2.909   3.655 -0.9855 -0.5064  0.1820
 1953SOL     OW 8396   8.884   2.641   0.309 -0.0334  0.1174 -0.2235
 1953SOL    HW1 8397   8.889   2.608   0.398  1.4880 -1.9068 -1.0469
 1953SOL    HW2 8398   8.972   2.633   0.274 -0.2209  2.4796 -1.3872
 1954SOL     OW 8399   3.428   1.262   3.136  0.1681  0.5934  0.3373
 1954SOL    HW1 8400   3.338   1.294   3.140 -0.0072  0.0994  0.4127
 1954SOL    HW2 8401   3.477   1.332   3.095 -0.2723  0.8266  0.2120
 1955SOL     OW 8402   4.861   1.505   6.954  0.0191 -0.0734 -0.0223
 1955SOL    HW1 8403   4.850   1.589   6.997  0.5767  0.1281 -0.2730
 1955SOL    HW2 8404   4.895   1.526   6.867 -3.5260 -0.2943 -1.5454
 1956SOL     OW 8405   8.932   4.019   4.249  0.3701  0.0033  0.3361
 1956SOL    HW1 8406   8.853   4.062   4.279  0.2794  0.2639 -0.2575
 1956SOL    HW2 8407   9.003   4.060   4.298  0.1237 -0.3221  0.9620
 1957SOL     OW 8408   8.749   9.934   5.705 -0.1830  0.4619 -0.0951
 1957SOL    HW1 8409   8.690  10.001   5.671 -0.8107 -0.0515 -0.0325
 1957SOL    HW2 8410   8.813   9.921   5.634  0.0601  1.2637 -0.0264
 1958SOL     OW 8411   9.571   9.754   4.778  0.8382 -0.2652 -0.2588
 1958SOL    HW1 8412   9.482   9.719   4.766 -0.0339  1.0956  2.0098
 1958SOL    HW2 8413   9.610   9.696   4.844 -0.0769  1.9563  2.3483
 1959SOL     OW 8414   3.121   4.966   5.182  0.9155 -0.0700 -0.3968
 1959SOL    HW1 8415   3.154   5.002   5.100  2.1903  0.5370  0.3667
 1959SOL    HW2 8416   3.186   4.991   5.247  0.4314 -1.4093  0.6290
 1960SOL     OW 8417   2.475   5.197   8.209 -0.2984 -0.7431  0.4128
 1960SOL    HW1 8418   2.549   5.136   8.212 -0.9522 -1.5331  0.4740
 1960SOL    HW2 8419   2.475   5.239   8.295 -0.1777 -1.0417  0.5578
 1961SOL     OW 8420   8.401   4.770   9.553 -0.0503 -0.8210 -0.3785
 1961SOL    HW1 8421   8.420   4.788   9.461  0.7620 -0.7350 -0.1935
 1961SOL    HW2 8422   8.406   4.674   9.560 -0.2014 -0.8339 -0.4409
 1962SOL     OW 8423   0.335   5.499   5.544 -0.1122  0.2541 -0.3381
 1962SOL    HW1 8424   0.338   5.590   5.514 -0.6867  0.7579  1.1203
 1962SOL    HW2 8425   0.361   5.448   5.467  2.4580  1.7841 -0.5686
 1963SOL     OW 8426   8.064   8.776   2.771  0.3608 -0.1700 -0.6467
 1963SOL    HW1 8427   8.059   8.868   2.745  2.0933  0.2283  0.3736
 1963SOL    HW2 8428   8.158   8.759   2.782 -0.0164 -1.7469  0.2804
 1964SOL     OW 8429   9.798   4.102   6.859 -0.1955  0.0974  0.3133
 1964SOL    HW1 8430   9.824   4.041   6.928  0.6519 -0.4531 -0.4884
 1964SOL    HW2 8431   9.873   4.105   6.800 -1.0445  0.3247 -0.7597
 1965SOL     OW 8432   1.155   2.345   6.498 -0.4434 -0.4598 -0.1827
 1965SOL    HW1 8433   1.122   2.350   6.408 -0.0000 -2.1421 -0.4626
 1965SOL    HW2 8434   1.211   2.267   6.498  2.4481  1.5417  0.6128
 1966SOL     OW 8435   3.493   8.854   0.657 -0.1336 -0.2320  0.0370
 1966SOL    HW1 8436   3.482   8.759   0.661 -0.7760 -0.0843  2.4479
 1966SOL    HW2 8437   3.588   8.867   0.653 -0.0408 -0.9629 -0.1840
 1967SOL     OW 8438   1.860   6.524   3.636 -0.5637  0.0312 -1.0126
 1967SOL    HW1 8439   1.859   6.595   3.701  1.6999  0.1708 -1.0990
 1967SOL    HW2 8440   1.839   6.567   3.553 -1.2765  0.2313 -0.7315
 1968SOL     OW 8441   3.031   7.012   2.614 -0.2565  0.1764 -0.3002
 1968SOL    HW1 8442   3.062   6.986   2.701  0.5534  0.0291 -0.6244
 1968SOL    HW2 8443   2.965   6.947   2.591  0.3638 -0.4679 -0.2847
 1969SOL     OW 8444   5.596   8.839   5.508  0.4889 -0.3523  0.0272
 1969SOL    HW1 8445   5.635   8.786   5.578  0.9311  0.0104  0.0582
 1969SOL    HW2 8446   5.516   8.874   5.547  0.1879 -1.0052  0.0028
 1970SOL     OW 8447   1.922   1.344   6.683  0.3047 -0.0870 -0.1220
 1970SOL    HW1 8448   1.930   1.430   6.723 -1.6888 -0.0982  0.3733
 1970SOL    HW2 8449   1.868   1.294   6.744  0.6388 -1.3911 -0.8707
 1971SOL     OW 8450   7.167   2.000   6.059 -0.5257  0.9897 -0.5468
 1971SOL    HW1 8451   7.133   2.013   5.970 -4.2671 -0.3739  0.6119
 1971SOL    HW2 8452   7.231   1.930   6.050 -1.1580  0.6003 -2.1061
 1972SOL     OW 8453  10.150   6.498   9.575 -0.5965 -0.6373 -0.5568
 1972SOL    HW1 8454  10.228   6.463   9.616 -0.5650 -0.6017 -0.5843
 1972SOL    HW2 8455  10.171   6.590   9.557 -0.1062 -0.9828 -1.8680
 1973SOL     OW 8456   4.052   0.217   0.704  0.0102 -0.5017  0.2194
 1973SOL    HW1 8457   4.092   0.242   0.621  0.5064 -0.3945  0.4950
 1973SOL    HW2 8458   4.114   0.156   0.744 -0.2944 -0.6636  0.4477
 1974SOL     OW 8459   5.048   8.259   0.735  0.6192 -0.3238  0.1718
 1974SOL    HW1 8460   4.988   8.188   0.757  2.2723 -1.5885  0.7331
 1974SOL    HW2 8461   5.078   8.240   0.646  2.5054 -1.4212  1.0008
 1975SOL     OW 8462   2.189   0.074   5.993  0.0435  0.0392  0.4416
 1975SOL    HW1 8463   2.222   0.037   5.911  0.1254  2.0736 -0.4511
 1975SOL    HW2 8464   2.116   0.016   6.017 -0.0674 -0.4884 -1.1229
 1976SOL     OW 8465   5.672   6.167   8.608 -0.0279  0.0765 -0.6581
 1976SOL    HW1 8466   5.752   6.143   8.654 -1.1920 -0.3623  1.2252
 1976SOL    HW2 8467   5.636   6.084   8.578 -0.6827  0.0747  0.0946
 1977SOL     OW 8468   4.783   4.467   2.788 -0.0913 -0.0584 -0.3707
 1977SOL    HW1 8469   4.688   4.468   2.802 -0.0668 -0.7452 -0.1325
 1977SOL    HW2 8470   4.806   4.559   2.775 -0.8995  0.0373 -1.1979
 1978SOL     OW 8471   1.150   3.071   4.353  0.2708  0.2619  0.1917
 1978SOL    HW1 8472   1.196   3.116   4.424  1.0692 -0.9807  0.4791
 1978SOL    HW2 8473   1.072   3.124   4.337  0.6566  1.1591  1.2373
 1979SOL     OW 8474   2.922   5.879   6.584 -0.1395  0.4311 -0.5826
 1979SOL    HW1 8475   2.882   5.965   6.597  1.0602  1.1121 -1.3378
 1979SOL    HW2 8476   2.999   5.879   6.641 -0.5314 -0.4246 -0.0354
 1980SOL     OW 8477   5.549   3.735   3.673  0.1017  0.2980  0.0009
 1980SOL    HW1 8478   5.644   3.724   3.675  0.0547 -0.3048 -0.7362
 1980SOL    HW2 8479   5.531   3.768   3.585 -0.3673  0.4607  0.1564
 1981SOL     OW 8480   4.368   4.554   7.391  0.0374 -0.2915 -0.0250
 1981SOL    HW1 8481   4.455   4.560   7.351  0.3339 -1.6512  0.4090
 1981SOL    HW2 8482   4.384   4.545   7.485 -0.5713 -0.7827  0.0359
 1982SOL     OW 8483   6.649   6.562   2.186  0.5552 -0.0267 -0.3818
 1982SOL    HW1 8484   6.679   6.505   2.257  1.7765 -0.0830 -0.9332
 1982SOL    HW2 8485   6.554   6.565   2.196  0.4330 -2.5564 -0.6570
 1983SOL     OW 8486   3.388   5.397   9.231 -0.6454  0.0877  0.8463
 1983SOL    HW1 8487   3.309   5.443   9.259  0.0853  2.3726 -0.7202
 1983SOL    HW2 8488   3.384   5.397   9.135  0.7683 -0.6317  0.7663
 1984SOL     OW 8489   7.695   7.076   0.729 -0.8224  0.0000  0.4002
 1984SOL    HW1 8490   7.716   7.045   0.641 -1.1308 -0.2545  0.4132
 1984SOL    HW2 8491   7.601   7.059   0.738 -0.9682  0.8455  0.4481
 1985SOL     OW 8492   5.297   9.065   2.383 -0.0281  0.1006 -0.2397
 1985SOL    HW1 8493   5.247   9.094   2.460 -1.0571  0.3445 -1.0001
 1985SOL    HW2 8494   5.322   9.146   2.338  0.2099 -0.0599 -0.4003
 1986SOL     OW 8495   5.875   4.822   4.018  0.0132  0.3706 -0.3426
 1986SOL    HW1 8496   5.837   4.909   4.006  1.7919  0.8981 -2.5097
 1986SOL    HW2 8497   5.812   4.762   3.978 -1.2708  0.6497  1.2577
 1987SOL     OW 8498   2.954   6.022   2.418  0.1132  0.1491 -0.1381
 1987SOL    HW1 8499   2.980   6.012   2.326 -0.9113 -0.8439 -0.3227
 1987SOL    HW2 8500   2.887   5.955   2.432 -0.3268  0.8312  1.1116
 1988SOL     OW 8501  10.070   0.821   5.855  0.4014  0.0563 -0.2290
 1988SOL    HW1 8502  10.142   0.852   5.909 -1.1993  3.1914  0.1975
 1988SOL    HW2 8503  10.072   0.877   5.777 -2.2147  0.9128  0.2879
 1989SOL     OW 8504   1.993   5.839   9.119  0.3438  0.3054 -0.2995
 1989SOL    HW1 8505   2.050   5.855   9.194  0.5132  0.3265 -0.4349
 1989SOL    HW2 8506   1.957   5.751   9.135 -0.4890  0.7614  0.3740
 1990SOL     OW 8507   4.893   1.832   8.980  0.6625 -0.3057  0.4623
 1990SOL    HW1 8508   4.890   1.738   8.995  1.0938 -0.5167 -0.6681
 1990SOL    HW2 8509   4.809   1.864   9.011  0.3555 -1.1251  0.4878
 1991SOL     OW 8510   8.482   7.505   3.276 -0.0634 -0.3161  0.1091
 1991SOL    HW1 8511   8.519   7.586   3.239  1.2459 -1.2681 -0.7166
 1991SOL    HW2 8512   8.558   7.458   3.310 -0.9332 -0.7986  1.3988
 1992SOL     OW 8513   2.591   4.840   0.100 -0.4637  0.4518  0.6829
 1992SOL    HW1 8514   2.647   4.914   0.122  0.5933  0.4668 -1.8763
 1992SOL    HW2 8515   2.600   4.781   0.174  0.2453  1.9917  1.8613
 1993SOL     OW 8516   0.119   1.158   0.990  0.7819  0.1339  0.2660
 1993SOL    HW1 8517   0.096   1.180   0.900  0.8225  0.3833  0.3169
 1993SOL    HW2 8518   0.180   1.085   0.983  3.1301  2.0569 -0.0251
 1994SOL     OW 8519   1.972   2.673   8.223 -0.0783  0.1422 -0.2312
 1994SOL    HW1 8520   1.965   2.693   8.316 -1.9619  0.0044 -0.3214
 1994SOL    HW2 8521   1.885   2.693   8.187  0.9097  1.1636 -2.1591
 1995SOL     OW 8522   2.240   8.747   5.369 -0.1137 -0.0173 -0.5444
 1995SOL    HW1 8523   2.171   8.787   5.422 -0.4292  0.0992 -1.0427
 1995SOL    HW2 8524   2.284   8.821   5.327 -0.2698 -0.1473 -0.9413
 1996SOL     OW 8525   6.155   6.137   6.215 -0.1294 -0.2767 -0.2686
 1996SOL    HW1 8526   6.127   6.111   6.303  2.0053 -0.2857  0.4277
 1996SOL    HW2 8527   6.158   6.055   6.165 -0.6813 -0.3561 -0.1815
 1997SOL     OW 8528   6.160   4.647   3.044 -0.3939 -0.3519 -0.3186
 1997SOL    HW1 8529   6.082   4.619   3.091 -0.7438 -0.1915 -0.8009
 1997SOL    HW2 8530   6.130   4.718   2.986 -0.2967 -1.5625 -1.8949
 1998SOL     OW 8531   5.944   7.393   0.345  0.0774 -0.4233  0.1333
 1998SOL    HW1 8532   5.855   7.360   0.358 -0.6497  1.3820 -0.0010
 1998SOL    HW2 8533   5.965   7.438   0.427  0.3193  0.3249 -0.3258
 1999SOL     OW 8534   1.949   5.497   3.995  0.0401 -0.2239 -0.4814
 1999SOL    HW1 8535   2.024   5.543   4.032  0.6810 -0.5207 -1.3839
 1999SOL    HW2 8536   1.890   5.482   4.069  0.3168  1.0868  0.0046
 2000SOL     OW 8537   2.466   7.948   9.876  0.0440  0.5243  0.2628
 2000SOL    HW1 8538   2.507   8.023   9.919 -1.8273  1.5910  0.2524
 2000SOL    HW2 8539   2.409   7.910   9.943 -1.6172  1.2042 -0.7057
 2001SOL     OW 8540   7.134   0.947   1.124 -0.0509  0.0190 -0.1598
 2001SOL    HW1 8541   7.150   1.002   1.047  2.8292 -0.5482 -0.0191
 2001SOL    HW2 8542   7.096   0.867   1.089 -0.2055  0.3872 -0.8348
 2002SOL     OW 8543   7.994   0.368   6.589 -0.2326 -0.2889 -0.5064
 2002SOL    HW1 8544   8.027   0.456   6.571  1.0019 -0.4838  0.7383
 2002SOL    HW2 8545   7.979   0.330   6.503 -2.3673  1.7181 -1.0799
 2003SOL     OW 8546   9.327   3.588   2.657  0.2918  0.2248  0.1937
 2003SOL    HW1 8547   9.335   3.514   2.717 -0.4193  0.7739  0.9680
 2003SOL    HW2 8548   9.261   3.645   2.696 -1.3596 -0.1798 -1.9180
 2004SOL     OW 8549   9.624   2.603   2.589 -0.2737 -0.2764 -0.3729
 2004SOL    HW1 8550   9.546   2.593   2.643 -0.2406 -0.7269 -0.4012
 2004SOL    HW2 8551   9.696   2.612   2.652 -0.3855  0.4065 -0.3493
 2005SOL     OW 8552   1.659   8.849   3.768 -0.4387 -0.0700  0.5471
 2005SOL    HW1 8553   1.585   8.797   3.734  1.9261 -3.2597  0.0291
 2005SOL    HW2 8554   1.680   8.909   3.696 -0.1707 -1.7297 -0.8051
 2006SOL     OW 8555   2.136   9.406   9.073 -0.0469 -0.0142  0.5460
 2006SOL    HW1 8556   2.089   9.489   9.080 -2.2571 -1.2236  0.6497
 2006SOL    HW2 8557   2.175   9.407   8.986 -0.5761  0.8768  0.3139
 2007SOL     OW 8558   8.187   7.810   0.030  0.8574 -0.1064 -0.5115
 2007SOL    HW1 8559   8.208   7.810   0.124  0.3054 -0.3625 -0.3821
 2007SOL    HW2 8560   8.218   7.894  -0.002  0.4864  0.2396  0.0316
 2008SOL     OW 8561   1.786   6.047   1.994  0.5081  0.0831 -0.1665
 2008SOL    HW1 8562   1.751   6.131   2.022  0.4070 -0.4456  1.3611
 2008SOL    HW2 8563   1.867   6.037   2.044  0.2862 -0.9313  0.0108
 2009SOL     OW 8564   2.728   8.737   6.725 -0.3743 -0.2738 -0.1213
 2009SOL    HW1 8565   2.757   8.780   6.805  0.1170 -0.5285 -0.1569
 2009SOL    HW2 8566   2.769   8.651   6.728  0.5867  0.1325 -1.1939
 2010SOL     OW 8567   3.112   9.479  10.182  0.4487  0.5927  0.0886
 2010SOL    HW1 8568   3.139   9.570  10.187 -1.0811  1.0492  0.3392
 2010SOL    HW2 8569   3.078   9.459  10.269 -0.4863  0.1946 -0.3588
 2011SOL     OW 8570  10.054   8.014   2.520 -0.2698 -0.5414  0.0814
 2011SOL    HW1 8571   9.991   8.017   2.449  1.5966 -0.2389 -1.6110
 2011SOL    HW2 8572  10.104   8.096   2.512  0.2453 -0.6924  1.4830
 2012SOL     OW 8573   0.788   6.642   2.325  0.1175 -0.4810 -0.1965
 2012SOL    HW1 8574   0.852   6.587   2.281  0.7218 -1.0035  1.3019
 2012SOL    HW2 8575   0.711   6.640   2.269  0.8091 -1.2822 -1.1178
 2013SOL     OW 8576   9.660   9.945   8.649 -0.2202  0.1041 -0.1391
 2013SOL    HW1 8577   9.570   9.925   8.623 -0.4639  0.8311  0.1306
 2013SOL    HW2 8578   9.659   9.944   8.744  0.2604 -0.7491 -0.1418
 2014SOL     OW 8579   5.877   9.943   3.585  0.5245 -0.1170  0.3992
 2014SOL    HW1 8580   5.932   9.988   3.521 -0.6657  0.2542 -0.3699
 2014SOL    HW2 8581   5.801  10.000   3.597 -0.7440 -1.6294 -0.1893
 2015SOL     OW 8582   0.818   6.983   8.036  0.0325  0.8023  0.1133
 2015SOL    HW1 8583   0.868   6.972   7.955  0.6714 -1.2408  0.7474
 2015SOL    HW2 8584   0.761   6.906   8.039  0.9767  0.1513  2.2425
 2016SOL     OW 8585   7.660   8.592   0.642  0.0072  0.0581 -0.0439
 2016SOL    HW1 8586   7.736   8.559   0.594 -0.3229  0.6898 -1.0194
 2016SOL    HW2 8587   7.697   8.639   0.716  0.5782  0.4662 -0.5822
 2017SOL     OW 8588   9.453   0.551   3.947  0.9630 -0.6247  0.2640
 2017SOL    HW1 8589   9.480   0.525   4.035 -0.5111 -2.4373  0.1974
 2017SOL    HW2 8590   9.442   0.646   3.953 -0.7064 -0.9254  2.4701
 2018SOL     OW 8591   1.874   9.676   5.280 -0.6171  0.2005 -0.2821
 2018SOL    HW1 8592   1.818   9.605   5.248 -3.2330  1.9754  0.2535
 2018SOL    HW2 8593   1.881   9.660   5.374 -2.0389  1.1828  0.0057
 2019SOL     OW 8594   3.077   3.194   7.072 -0.1765 -0.0259  0.0381
 2019SOL    HW1 8595   3.041   3.271   7.029 -0.1346  0.6388  1.1683
 2019SOL    HW2 8596   3.002   3.154   7.116  0.2274  0.6897  1.3976
 2020SOL     OW 8597   3.759   5.637   7.213  0.1021 -0.7763 -0.4352
 2020SOL    HW1 8598   3.829   5.651   7.276 -0.1963 -1.6769  0.1085
 2020SOL    HW2 8599   3.802   5.589   7.141 -0.3870 -3.2566  0.8608
 2021SOL     OW 8600   8.654   8.514   1.882 -0.4464 -0.2077 -0.6927
 2021SOL    HW1 8601   8.623   8.424   1.893 -1.2323 -0.0774 -1.7583
 2021SOL    HW2 8602   8.721   8.525   1.950 -0.2864 -1.6165 -0.6109
 2022SOL     OW 8603   8.176   3.871   9.202  0.2790  0.4309  0.5644
 2022SOL    HW1 8604   8.271   3.862   9.195  0.1953 -0.6238  0.6866
 2022SOL    HW2 8605   8.163   3.956   9.246  1.1640  0.4781  0.7409
 2023SOL     OW 8606   0.587   6.819   7.361 -0.0559  0.1746 -0.1524
 2023SOL    HW1 8607   0.556   6.826   7.271  1.0111 -2.5635 -0.7599
 2023SOL    HW2 8608   0.513   6.848   7.414 -1.3316  0.0654 -1.8408
 2024SOL     OW 8609   5.394   7.887   2.517 -0.2409 -0.3899  0.2151
 2024SOL    HW1 8610   5.397   7.840   2.433 -1.0120  1.3502 -0.8070
 2024SOL    HW2 8611   5.441   7.969   2.501 -2.5260  1.0634  0.7589
 2025SOL     OW 8612   5.241   1.292   6.873 -0.0438 -0.0362 -0.3015
 2025SOL    HW1 8613   5.155   1.311   6.834 -0.0032 -0.1873 -0.4676
 2025SOL    HW2 8614   5.238   1.197   6.890 -0.6419  0.2774  1.4708
 2026SOL     OW 8615   0.639   4.689   4.325  0.0783  0.1062 -0.5352
 2026SOL    HW1 8616   0.586   4.711   4.249 -1.2499 -0.5205  0.2026
 2026SOL    HW2 8617   0.690   4.769   4.342  2.1021 -0.4722 -3.4325
 2027SOL     OW 8618   3.185   1.745   8.644 -0.3894 -0.2205 -0.4313
 2027SOL    HW1 8619   3.167   1.706   8.558  0.2147 -0.6093 -0.3805
 2027SOL    HW2 8620   3.279   1.734   8.656 -0.3185  0.6431 -0.1153
 2028SOL     OW 8621   9.893   4.761   2.435  0.2042  1.0964  0.4925
 2028SOL    HW1 8622   9.963   4.777   2.372 -0.1840  2.3034  0.3521
 2028SOL    HW2 8623   9.837   4.696   2.392  0.1227  1.6695 -0.2769
 2029SOL     OW 8624   0.843   6.658   6.232 -0.3477  0.0659  0.2384
 2029SOL    HW1 8625   0.905   6.729   6.245 -0.8874  0.2835  1.7636
 2029SOL    HW2 8626   0.855   6.631   6.141  0.8058  1.2026  0.0480
 2030SOL     OW 8627   1.014   7.203   1.772  0.1040  0.1677  0.0698
 2030SOL    HW1 8628   1.023   7.184   1.866  0.3159  1.8074  0.3939
 2030SOL    HW2 8629   0.920   7.195   1.755  0.0955 -0.3966  0.3530
 2031SOL     OW 8630   4.860   9.063   5.640  0.2244 -0.3377  0.0817
 2031SOL    HW1 8631   4.764   9.062   5.648  0.2021 -0.5971 -0.2250
 2031SOL    HW2 8632   4.885   8.970   5.640  0.2586 -0.3620 -2.4576
 2032SOL     OW 8633   9.538   0.258   8.194 -0.4342  0.1449  0.0538
 2032SOL    HW1 8634   9.489   0.325   8.145 -1.8732  0.7493  2.2617
 2032SOL    HW2 8635   9.612   0.306   8.231  1.4128 -0.5870 -2.5492
 2033SOL     OW 8636   4.117   6.473   3.324 -0.5886  0.0094 -0.2796
 2033SOL    HW1 8637   4.176   6.400   3.306 -0.1700  0.3937 -0.4536
 2033SOL    HW2 8638   4.109   6.473   3.420 -2.1694 -1.5077 -0.3727
 2034SOL     OW 8639   1.525   4.352   9.255 -0.1596 -0.1642 -0.1646
 2034SOL    HW1 8640   1.524   4.272   9.203  0.1587  0.6279 -1.4218
 2034SOL    HW2 8641   1.448   4.401   9.226 -1.0304 -0.5381  1.4669
 2035SOL     OW 8642   4.260   0.831   0.598 -0.1947  0.1132  0.2466
 2035SOL    HW1 8643   4.245   0.921   0.629  0.3359  0.4068 -0.3328
 2035SOL    HW2 8644   4.174   0.790   0.603 -0.7366  1.0807 -0.8088
 2036SOL     OW 8645   8.449   7.450   2.886  0.0218 -0.0045 -0.2422
 2036SOL    HW1 8646   8.502   7.423   2.961 -0.3904  1.2387  0.5172
 2036SOL    HW2 8647   8.511   7.493   2.827  0.1448  0.0053 -0.1049
 2037SOL     OW 8648   0.456   5.072   6.487 -0.0575  0.1343 -0.0397
 2037SOL    HW1 8649   0.478   5.027   6.569  0.0126 -1.5925 -0.9866
 2037SOL    HW2 8650   0.455   5.002   6.421 -1.4473  1.3038 -1.2685
 2038SOL     OW 8651   2.667   6.261   3.783  0.4992 -0.1365 -0.4900
 2038SOL    HW1 8652   2.578   6.278   3.752 -0.4852  0.8573  2.7401
 2038SOL    HW2 8653   2.656   6.217   3.867  3.0592  0.9404  0.4682
 2039SOL     OW 8654   2.878   8.181   4.178 -0.1827 -0.3416 -0.3416
 2039SOL    HW1 8655   2.873   8.114   4.246 -0.4728 -0.0699 -0.0945
 2039SOL    HW2 8656   2.790   8.185   4.142 -0.5312  0.9375  0.6361
 2040SOL     OW 8657   3.000   8.416   5.999  0.6340 -0.2679 -0.0283
 2040SOL    HW1 8658   3.076   8.381   5.953  0.9465 -0.4787  0.6362
 2040SOL    HW2 8659   3.010   8.511   5.993  0.5522 -0.2962 -0.5951
 2041SOL     OW 8660   5.123   0.706   9.110  0.3842  0.0257 -0.6035
 2041SOL    HW1 8661   5.062   0.642   9.074 -2.1899  1.9666  0.1197
 2041SOL    HW2 8662   5.159   0.751   9.033 -0.7658  0.3130 -0.9859
 2042SOL     OW 8663   2.406   7.144   1.449 -0.1589  0.2711  0.0179
 2042SOL    HW1 8664   2.457   7.076   1.404  1.1954  0.0242  1.8826
 2042SOL    HW2 8665   2.376   7.201   1.379  0.5580 -1.0000 -1.3656
 2043SOL     OW 8666   3.812   6.217   5.782 -0.1448  0.8430  0.2484
 2043SOL    HW1 8667   3.877   6.151   5.759  0.1714  1.2188  0.0630
 2043SOL    HW2 8668   3.728   6.176   5.758 -0.0273  0.1623  0.9582
 2044SOL     OW 8669   8.549   6.111  10.059  0.0803  0.6024 -0.0320
 2044SOL    HW1 8670   8.470   6.133  10.108 -1.0203 -1.5048 -0.8133
 2044SOL    HW2 8671   8.550   6.016  10.054  2.8585  0.5561  0.2202
 2045SOL     OW 8672   6.097   5.578   7.168 -0.3877 -0.4026  0.1962
 2045SOL    HW1 8673   6.115   5.585   7.262  0.7258 -0.2203 -0.0268
 2045SOL    HW2 8674   6.004   5.558   7.164 -0.6861  0.6376  1.3117
 2046SOL     OW 8675   0.763   4.556  10.038  0.9502 -0.1582 -0.3745
 2046SOL    HW1 8676   0.741   4.509   9.957  0.2255 -1.1281  0.3760
 2046SOL    HW2 8677   0.681   4.594  10.067  1.0129 -0.6282  0.4277
 2047SOL     OW 8678   5.484   1.518   3.559  0.4902 -0.1138 -0.4306
 2047SOL    HW1 8679   5.436   1.468   3.624  0.6476  3.1596  2.3302
 2047SOL    HW2 8680   5.419   1.578   3.522  1.3922  1.1993  0.0601
 2048SOL     OW 8681   4.665  10.014   5.128 -0.3181  0.2813  0.0077
 2048SOL    HW1 8682   4.623  10.061   5.201  2.3501 -1.4989  2.8186
 2048SOL    HW2 8683   4.622   9.929   5.126  0.4846 -0.1404  0.3761
 2049SOL     OW 8684   0.631   8.698   6.487  0.2676  0.2601  0.0820
 2049SOL    HW1 8685   0.563   8.766   6.487  0.4714  0.4987 -2.0047
 2049SOL    HW2 8686   0.671   8.704   6.400  0.6977 -2.1500  0.0800
 2050SOL     OW 8687   7.234   2.003   7.004 -0.0071 -0.3408  0.1768
 2050SOL    HW1 8688   7.258   1.962   7.087  1.9131  1.7735  0.7100
 2050SOL    HW2 8689   7.138   2.005   7.006  0.0173 -0.1599  2.4279
 2051SOL     OW 8690   6.668   9.995   3.930 -0.1930 -0.0637 -0.0014
 2051SOL    HW1 8691   6.659   9.976   4.023  2.0053 -1.7313 -0.0974
 2051SOL    HW2 8692   6.593   9.951   3.889 -0.2006 -0.8021  0.7882
 2052SOL     OW 8693   2.718   2.121  10.108  0.0364 -0.4516  0.4642
 2052SOL    HW1 8694   2.628   2.121  10.074  1.0717 -1.2900 -2.4575
 2052SOL    HW2 8695   2.734   2.212  10.134 -2.0845 -0.5712  2.2834
 2053SOL     OW 8696   2.177   4.096   4.471  0.7902  0.3261  0.1411
 2053SOL    HW1 8697   2.221   4.160   4.526  0.7564 -0.3202  0.9337
 2053SOL    HW2 8698   2.085   4.101   4.497  0.5648  0.9170 -0.7563
 2054SOL     OW 8699   9.717  10.052   7.568  0.0842 -0.0452  0.2163
 2054SOL    HW1 8700   9.760  10.117   7.514  1.7801 -1.0871  0.3017
 2054SOL    HW2 8701   9.772  10.044   7.646 -2.2348  1.3327  2.0878
 2055SOL     OW 8702   3.806   4.435   2.295  0.4418  0.0443 -0.4772
 2055SOL    HW1 8703   3.718   4.398   2.287  0.2329  0.3702  0.2097
 2055SOL    HW2 8704   3.843   4.429   2.207  0.2126 -1.2813 -0.5062
 2056SOL     OW 8705   8.822   3.849   7.343  0.6432 -0.4883  0.1044
 2056SOL    HW1 8706   8.881   3.871   7.414  0.2722 -1.2830  0.6691
 2056SOL    HW2 8707   8.765   3.926   7.334  1.6003  0.1819 -0.2873
 2057SOL     OW 8708   1.910   9.978   8.132  0.5845 -0.1383  0.1029
 2057SOL    HW1 8709   1.842   9.981   8.199 -1.3241 -0.0768 -1.7794
 2057SOL    HW2 8710   1.934  10.069   8.117  1.4828 -0.1962  1.1451
 2058SOL     OW 8711   7.131   9.152   8.387  0.4549 -0.3583  0.1461
 2058SOL    HW1 8712   7.102   9.077   8.439  0.8661  0.8143  2.1372
 2058SOL    HW2 8713   7.056   9.211   8.386  1.3843  0.9158  1.9358
 2059SOL     OW 8714   5.987   5.801   0.952  0.1782  0.2943  0.0689
 2059SOL    HW1 8715   6.061   5.755   0.913  0.6129  0.2119  0.9734
 2059SOL    HW2 8716   6.004   5.798   1.046 -1.1699 -0.0533  0.3074
 2060SOL     OW 8717   3.469   5.345   9.546  0.0806 -0.3622 -0.3047
 2060SOL    HW1 8718   3.473   5.369   9.639  2.2201 -1.6692 -0.0214
 2060SOL    HW2 8719   3.377   5.323   9.531 -0.1121 -1.0956  1.7742
 2061SOL     OW 8720   9.204   7.041   9.204 -0.1036  0.1177  0.0286
 2061SOL    HW1 8721   9.272   6.980   9.233  0.2131  0.3519 -0.2154
 2061SOL    HW2 8722   9.245   7.090   9.132 -0.6412  0.0289 -0.3449
 2062SOL     OW 8723   4.313   6.679   6.293 -0.2591  0.4362 -0.5096
 2062SOL    HW1 8724   4.322   6.669   6.388  0.0902 -0.9756 -0.6816
 2062SOL    HW2 8725   4.336   6.770   6.276 -3.3050  1.6025  1.1294
 2063SOL     OW 8726   6.251   4.151   3.189 -0.6489  0.5742  0.1287
 2063SOL    HW1 8727   6.205   4.076   3.151  1.1458 -0.3952 -0.1496
 2063SOL    HW2 8728   6.298   4.191   3.116 -0.1300  0.8845  0.6285
 2064SOL     OW 8729   3.240   3.679   7.514 -0.5649  0.0860  0.3746
 2064SOL    HW1 8730   3.252   3.591   7.478  0.3338  0.1044  0.6194
 2064SOL    HW2 8731   3.275   3.738   7.447  0.2277  0.1722  0.8576
 2065SOL     OW 8732   3.030   5.729   9.796 -0.4538 -0.4550  0.4939
 2065SOL    HW1 8733   2.955   5.734   9.855 -0.0959 -1.9012  1.0935
 2065SOL    HW2 8734   3.073   5.814   9.804 -1.0429 -0.2455  1.4587
 2066SOL     OW 8735   3.919   6.340   9.484 -0.0408  0.1414  0.7688
 2066SOL    HW1 8736   3.978   6.317   9.555 -0.1699  0.2127  0.8990
 2066SOL    HW2 8737   3.844   6.282   9.494  0.8891 -1.3184 -0.5883
 2067SOL     OW 8738   5.799   0.165   9.666 -0.0753 -0.4329  0.0235
 2067SOL    HW1 8739   5.714   0.177   9.624 -0.0721 -2.7508 -0.7197
 2067SOL    HW2 8740   5.853   0.236   9.631 -1.3911  0.4389 -0.2845
 2068SOL     OW 8741   1.800   1.457   5.673 -0.2767  0.1809 -0.0142
 2068SOL    HW1 8742   1.810   1.363   5.657  1.7554  0.2781  0.4737
 2068SOL    HW2 8743   1.722   1.482   5.624  0.1675 -1.4323 -1.6017
 2069SOL     OW 8744   0.217   5.949  10.107  0.2948 -0.3272  0.3686
 2069SOL    HW1 8745   0.266   6.031  10.114 -0.4600 -0.0878  3.5682
 2069SOL    HW2 8746   0.263   5.887  10.163  0.0081 -1.6836 -0.8526
 2070SOL     OW 8747   8.258   0.992   2.278 -0.0521 -0.1612 -0.2688
 2070SOL    HW1 8748   8.334   1.000   2.335 -1.7402 -0.1921  2.0692
 2070SOL    HW2 8749   8.272   1.058   2.210  2.4613 -0.7578 -0.3800
 2071SOL     OW 8750   6.664   9.403   5.654 -0.3006 -0.0394  0.6671
 2071SOL    HW1 8751   6.635   9.322   5.696 -2.1976  0.6122  0.6550
 2071SOL    HW2 8752   6.694   9.375   5.567  0.5986 -0.9404  1.2564
 2072SOL     OW 8753   2.774   4.087   3.475  0.3841 -0.3463 -0.2296
 2072SOL    HW1 8754   2.853   4.069   3.527 -0.7746  1.5867  2.2976
 2072SOL    HW2 8755   2.714   4.016   3.497 -0.1731  0.5668  1.2985
 2073SOL     OW 8756   2.610   8.545   1.088 -0.1096  0.2032  0.6624
 2073SOL    HW1 8757   2.571   8.632   1.081 -1.3033 -0.3808 -0.2956
 2073SOL    HW2 8758   2.668   8.550   1.164  0.3486  2.0174  0.1969
 2074SOL     OW 8759   5.040   7.682   2.449  0.2363 -0.2832  0.0932
 2074SOL    HW1 8760   5.091   7.604   2.470  0.7793 -0.0588 -0.3627
 2074SOL    HW2 8761   5.075   7.712   2.365  0.2182  0.6051  0.3900
 2075SOL     OW 8762   3.631   7.917   8.167  0.1172  0.0377 -0.2595
 2075SOL    HW1 8763   3.658   8.009   8.172  1.9339 -0.5408  1.0063
 2075SOL    HW2 8764   3.711   7.870   8.144 -0.4372 -1.4088  0.7018
 2076SOL     OW 8765   4.896   6.003   1.831  0.1273 -0.2652  0.0084
 2076SOL    HW1 8766   4.907   6.028   1.739  0.0722 -0.2921 -0.0057
 2076SOL    HW2 8767   4.985   6.003   1.867  0.4844 -2.8572 -0.7231
 2077SOL     OW 8768   3.883   8.137   7.404 -0.6951  0.5078  0.3378
 2077SOL    HW1 8769   3.945   8.120   7.333 -0.7762  1.5837  0.0102
 2077SOL    HW2 8770   3.937   8.138   7.483 -0.3380  1.1852  0.0832
 2078SOL     OW 8771   5.870   2.023   9.821 -0.2805  0.2806  0.2970
 2078SOL    HW1 8772   5.849   2.018   9.728  1.9292  1.8522 -0.3183
 2078SOL    HW2 8773   5.941   1.960   9.833 -0.8461 -0.2316  1.0391
 2079SOL     OW 8774   2.069  10.108   7.804 -0.2018  0.1379  0.0819
 2079SOL    HW1 8775   2.162  10.089   7.788 -0.3892 -0.1756 -0.6525
 2079SOL    HW2 8776   2.032  10.122   7.717 -0.6379  1.2471  0.4396
 2080SOL     OW 8777   5.096   1.118   9.795  0.1414 -0.2605  0.2450
 2080SOL    HW1 8778   5.055   1.080   9.717 -1.3766  0.6617  0.5756
 2080SOL    HW2 8779   5.024   1.132   9.856  1.3399 -1.1294  1.9030
 2081SOL     OW 8780   2.918   2.110   6.943  0.0988 -0.3997 -0.0121
 2081SOL    HW1 8781   2.984   2.179   6.952 -1.8802  1.5716  0.0621
 2081SOL    HW2 8782   2.880   2.125   6.856  0.6283 -2.3115 -0.5808
 2082SOL     OW 8783   0.999  10.106   4.768 -0.2050 -0.2136  0.1728
 2082SOL    HW1 8784   1.069  10.114   4.704 -2.2332  1.4024 -1.9322
 2082SOL    HW2 8785   1.040  10.128   4.852  2.1724 -1.0799 -0.7383
 2083SOL     OW 8786   2.689   0.195   9.625 -0.2695 -0.7444 -0.0897
 2083SOL    HW1 8787   2.693   0.273   9.680  1.2109 -1.6705  1.1499
 2083SOL    HW2 8788   2.727   0.222   9.541 -3.9223  1.0955 -1.2491
 2084SOL     OW 8789   7.181   4.967   5.646 -0.0255  0.0007 -0.5925
 2084SOL    HW1 8790   7.213   5.010   5.568 -1.7014  0.2227 -1.1760
 2084SOL    HW2 8791   7.133   4.890   5.614  1.0505 -1.0850  0.3198
 2085SOL     OW 8792   5.173   3.796   1.385 -0.5758 -0.2192  0.0864
 2085SOL    HW1 8793   5.106   3.729   1.367 -0.8148  0.1773 -0.4929
 2085SOL    HW2 8794   5.246   3.746   1.421 -0.6858 -0.8217 -0.5062
 2086SOL     OW 8795   8.586   5.457   9.258 -0.3186  0.1458  0.8950
 2086SOL    HW1 8796   8.564   5.392   9.191 -0.1046  1.1212 -0.1399
 2086SOL    HW2 8797   8.674   5.432   9.287 -1.5613 -2.0166  2.9421
 2087SOL     OW 8798   5.260   9.665   3.314 -0.0014  1.3118  0.2329
 2087SOL    HW1 8799   5.294   9.691   3.400 -0.2379  0.2539  0.6474
 2087SOL    HW2 8800   5.179   9.618   3.333  0.8830 -0.5163 -0.4517
 2088SOL     OW 8801   2.009  10.162   7.539 -0.0623  0.0067  0.2002
 2088SOL    HW1 8802   2.027  10.254   7.515 -1.7425  0.3269  0.1054
 2088SOL    HW2 8803   2.020  10.114   7.457 -0.1919  0.2795  0.0219
 2089SOL     OW 8804   5.808   7.094   5.461 -0.0239  0.2112 -0.0952
 2089SOL    HW1 8805   5.863   7.026   5.424 -0.3257 -0.0179 -0.1249
 2089SOL    HW2 8806   5.819   7.085   5.556 -0.3941 -0.1596 -0.0828
 2090SOL     OW 8807   9.253   6.217   5.134  0.0815  0.1237 -0.1806
 2090SOL    HW1 8808   9.238   6.307   5.163 -0.8696 -0.9581  2.8831
 2090SOL    HW2 8809   9.189   6.202   5.066  1.3367  2.2753 -1.8884
 2091SOL     OW 8810   8.262   5.688   0.721 -0.1629 -0.3037  0.2778
 2091SOL    HW1 8811   8.327   5.752   0.695  0.6902 -0.7758  1.2173
 2091SOL    HW2 8812   8.197   5.738   0.771 -0.4011  0.1165 -0.4441
 2092SOL     OW 8813   9.467   0.997   3.260  0.1452 -0.1295  0.3896
 2092SOL    HW1 8814   9.389   1.012   3.314  1.2674  0.6085  1.8361
 2092SOL    HW2 8815   9.520   1.076   3.273  2.3141 -1.7348  1.4286
 2093SOL     OW 8816   7.072   1.385   6.924 -0.0331  0.5218 -0.3221
 2093SOL    HW1 8817   7.056   1.425   6.839 -0.6231 -1.0326 -0.9460
 2093SOL    HW2 8818   6.986   1.366   6.959  0.2532 -1.3416 -0.5838
 2094SOL     OW 8819   9.431   6.165   1.284  0.1680 -0.4034 -0.0909
 2094SOL    HW1 8820   9.373   6.232   1.320 -0.8377 -0.6104 -1.2857
 2094SOL    HW2 8821   9.464   6.118   1.360  1.0166  1.5383  0.7789
 2095SOL     OW 8822   9.905   1.145   7.940  0.2129  0.1601 -0.2807
 2095SOL    HW1 8823   9.981   1.142   7.882  0.4473  1.6329 -0.0786
 2095SOL    HW2 8824   9.930   1.091   8.015  1.1507  0.8158 -0.1139
 2096SOL     OW 8825   8.893   0.505   8.329 -0.1601 -0.2281  0.0808
 2096SOL    HW1 8826   8.874   0.412   8.341  0.2866 -0.3038  0.1969
 2096SOL    HW2 8827   8.948   0.528   8.404  1.4177 -0.3458 -1.0018
 2097SOL     OW 8828   3.817   8.451   0.104  0.2555  0.0375 -0.3800
 2097SOL    HW1 8829   3.833   8.377   0.045  1.2565  0.5727 -0.7801
 2097SOL    HW2 8830   3.737   8.427   0.150  0.2285 -1.0189 -0.9569
 2098SOL     OW 8831   4.536   7.876   8.817  0.5490 -0.1086 -0.4865
 2098SOL    HW1 8832   4.596   7.934   8.771 -0.4465 -1.4128 -3.5568
 2098SOL    HW2 8833   4.450   7.917   8.808  0.3837 -0.2036  0.5446
 2099SOL     OW 8834   7.491   8.257   8.123  0.2750  0.0240  0.6725
 2099SOL    HW1 8835   7.556   8.218   8.065 -1.2429  0.8567 -1.6522
 2099SOL    HW2 8836   7.491   8.350   8.101 -1.6612  0.0432  0.6483
 2100SOL     OW 8837   1.179   9.602   6.636  0.4844 -0.3500 -0.4556
 2100SOL    HW1 8838   1.250   9.617   6.699 -0.1083  2.0263 -0.3199
 2100SOL    HW2 8839   1.135   9.686   6.629 -0.7257 -1.1275 -2.5339
 2101SOL     OW 8840   7.448   7.902   9.711  0.3722 -0.0163 -0.3283
 2101SOL    HW1 8841   7.467   7.987   9.752 -0.6367  0.4109 -0.7332
 2101SOL    HW2 8842   7.353   7.901   9.701  0.3204 -1.4942  0.2832
 2102SOL     OW 8843   0.044   2.896   5.395 -0.3253  0.2858 -0.3998
 2102SOL    HW1 8844   0.085   2.817   5.361  0.1653  0.2281  0.3204
 2102SOL    HW2 8845   0.045   2.957   5.321  0.9357  0.2388 -0.4363
 2103SOL     OW 8846   7.376   1.910   7.236  0.1120  0.5862 -0.0812
 2103SOL    HW1 8847   7.324   1.942   7.309 -0.6291  0.7141 -0.6522
 2103SOL    HW2 8848   7.431   1.984   7.211  0.5300  0.4680  0.4914
 2104SOL     OW 8849   0.384   6.306   7.538 -0.0686 -0.7025 -0.0704
 2104SOL    HW1 8850   0.444   6.319   7.465  0.8971  0.2341  0.8638
 2104SOL    HW2 8851   0.441   6.298   7.615 -1.1561  0.8731  0.9322
 2105SOL     OW 8852   1.055   1.131   9.622 -0.4792  0.2535  0.9101
 2105SOL    HW1 8853   1.044   1.093   9.709 -0.1714  0.4157  1.0185
 2105SOL    HW2 8854   1.024   1.062   9.562  0.2045 -0.2262  1.0986
 2106SOL     OW 8855   6.612   1.673   5.445 -0.1723 -0.2379  0.6775
 2106SOL    HW1 8856   6.547   1.651   5.512 -0.3047  0.2485  0.7142
 2106SOL    HW2 8857   6.671   1.598   5.443 -0.5834 -0.5654  0.8341
 2107SOL     OW 8858   8.880   6.653   3.358  0.0022 -0.0930 -0.5538
 2107SOL    HW1 8859   8.813   6.682   3.296 -0.6040  0.5539  0.4060
 2107SOL    HW2 8860   8.831   6.609   3.427  0.5437  0.5638  0.2544
 2108SOL     OW 8861   7.513   5.544   3.711  0.0422 -0.0114  0.4938
 2108SOL    HW1 8862   7.591   5.561   3.659  0.5657 -0.6471  1.0721
 2108SOL    HW2 8863   7.447   5.518   3.646  0.4130  0.1481  0.0487
 2109SOL     OW 8864   3.945   2.872   3.436  0.2476 -0.5804  0.1631
 2109SOL    HW1 8865   4.007   2.908   3.372 -0.1591 -0.2561 -0.0557
 2109SOL    HW2 8866   3.883   2.822   3.383  1.5398 -2.6846  0.5876
 2110SOL     OW 8867   7.691   3.979   7.573 -0.5884  0.4673 -0.0900
 2110SOL    HW1 8868   7.747   3.914   7.615 -0.6263  0.9583  0.7272
 2110SOL    HW2 8869   7.752   4.040   7.532 -0.5441  0.4180 -0.0976
 2111SOL     OW 8870   1.881   0.871   5.940 -0.2766  0.3828  0.0006
 2111SOL    HW1 8871   1.964   0.919   5.944 -0.5554  1.0463 -1.7282
 2111SOL    HW2 8872   1.815   0.937   5.961 -0.6831  0.8770 -2.6255
 2112SOL     OW 8873   9.312   3.561   7.555 -0.1946 -0.0102  0.1674
 2112SOL    HW1 8874   9.243   3.503   7.588  1.5960 -2.4053 -0.1132
 2112SOL    HW2 8875   9.272   3.608   7.483 -1.8833 -0.4596  0.7797
 2113SOL     OW 8876   3.210   4.818   6.723 -0.4139  0.2500 -0.1187
 2113SOL    HW1 8877   3.289   4.779   6.760 -1.7354 -0.2023  2.3671
 2113SOL    HW2 8878   3.160   4.744   6.690 -2.5203 -0.2488  3.8135
 2114SOL     OW 8879   1.262   4.714   8.189  0.5216  0.1614  0.1826
 2114SOL    HW1 8880   1.276   4.680   8.100  0.7810  1.2206 -0.1916
 2114SOL    HW2 8881   1.214   4.796   8.176  0.2397  0.1386  1.0456
 2115SOL     OW 8882   3.427   8.652   0.951 -0.1343 -0.3134  0.0169
 2115SOL    HW1 8883   3.447   8.616   0.865  2.6036 -1.2014  0.9855
 2115SOL    HW2 8884   3.346   8.703   0.937 -0.6536 -1.7786 -2.6747
 2116SOL     OW 8885   8.972   9.112   2.221 -0.3585  0.0218 -0.0333
 2116SOL    HW1 8886   9.052   9.154   2.189 -0.9228  0.7556 -0.4997
 2116SOL    HW2 8887   8.930   9.179   2.275  0.0680 -0.8535  1.4182
 2117SOL     OW 8888   8.123   8.749   1.612 -0.0605  0.5466  0.3538
 2117SOL    HW1 8889   8.083   8.798   1.683 -2.8673  0.4831 -1.1383
 2117SOL    HW2 8890   8.089   8.660   1.621 -1.6925  0.8932 -1.9349
 2118SOL     OW 8891   4.001   4.380   5.128  0.7319  0.0118  0.1184
 2118SOL    HW1 8892   3.991   4.286   5.111 -0.1422  0.3986 -1.5611
 2118SOL    HW2 8893   4.096   4.394   5.126  0.7577 -0.2537 -3.0032
 2119SOL     OW 8894   5.044   9.387   6.995 -0.3919 -0.2119 -0.3096
 2119SOL    HW1 8895   5.033   9.439   7.074  1.3578 -0.1983 -0.0449
 2119SOL    HW2 8896   4.981   9.316   7.004 -0.3123 -0.1258  1.0242
 2120SOL     OW 8897   4.154   7.903   8.892  0.8403 -0.1130  0.2464
 2120SOL    HW1 8898   4.225   7.949   8.846  1.2350 -0.8378  0.1220
 2120SOL    HW2 8899   4.075   7.948   8.864  1.2946  1.0716  0.8217
 2121SOL     OW 8900   8.703   6.952   2.844  0.2702  0.6769  0.0942
 2121SOL    HW1 8901   8.738   6.866   2.864  1.3118  0.9322 -0.5457
 2121SOL    HW2 8902   8.756   7.013   2.896 -1.0348  0.8708  1.2164
 2122SOL     OW 8903   9.462   3.101   6.730  0.3867  0.4806 -0.0931
 2122SOL    HW1 8904   9.417   3.025   6.693  1.5815 -1.3366  2.1084
 2122SOL    HW2 8905   9.391   3.156   6.765 -0.3047 -1.2401  1.2866
 2123SOL     OW 8906   8.415   0.368   1.363 -0.1242 -0.6525  0.1996
 2123SOL    HW1 8907   8.365   0.435   1.411  0.0954 -1.5123  1.6299
 2123SOL    HW2 8908   8.482   0.339   1.424  0.3291 -1.5757 -0.7232
 2124SOL     OW 8909   1.523   4.899   5.401 -0.3506  0.3175 -0.0186
 2124SOL    HW1 8910   1.511   4.874   5.310  0.9325 -1.6960  0.3254
 2124SOL    HW2 8911   1.617   4.893   5.415 -0.6357 -0.4879  1.7186
 2125SOL     OW 8912   4.183   5.053   8.400 -0.2987 -0.4306  0.2189
 2125SOL    HW1 8913   4.177   5.141   8.436  2.0069 -0.2024  0.1382
 2125SOL    HW2 8914   4.093   5.029   8.378 -1.0591  1.5153  1.1369
 2126SOL     OW 8915   3.078   1.361   1.374 -0.2752  0.4520 -0.4446
 2126SOL    HW1 8916   2.997   1.412   1.382 -0.2234  0.5828 -0.7656
 2126SOL    HW2 8917   3.065   1.308   1.295 -0.4597 -0.2649  0.0666
 2127SOL     OW 8918   2.785   2.705   0.118 -0.0949  0.2248  0.4096
 2127SOL    HW1 8919   2.731   2.722   0.040 -1.4420 -0.1513  1.2525
 2127SOL    HW2 8920   2.760   2.773   0.180  0.1773 -0.1565  0.9371
 2128SOL     OW 8921   2.300   8.820   4.254  0.2158  0.3179  0.0571
 2128SOL    HW1 8922   2.271   8.736   4.217 -0.5256  0.5991 -0.0116
 2128SOL    HW2 8923   2.222   8.856   4.296  1.0743 -0.0562  2.0222
 2129SOL     OW 8924   3.604   7.908   0.700 -0.1786 -0.6377 -0.4783
 2129SOL    HW1 8925   3.514   7.937   0.715  0.8315  1.1294  2.6023
 2129SOL    HW2 8926   3.604   7.815   0.722 -1.1888 -0.5929 -0.2803
 2130SOL     OW 8927   4.869   3.858   3.965  0.7624  0.2654  0.1500
 2130SOL    HW1 8928   4.856   3.939   4.013  0.3942  1.0429 -1.2499
 2130SOL    HW2 8929   4.949   3.873   3.914 -0.4670  0.5347 -1.7198
 2131SOL     OW 8930   2.199   2.857   4.912 -0.0467 -0.6210  0.5319
 2131SOL    HW1 8931   2.262   2.806   4.860  0.3452  0.7043 -0.3295
 2131SOL    HW2 8932   2.217   2.948   4.887 -2.1122 -0.2095  0.5143
 2132SOL     OW 8933   7.178   6.714   1.103 -0.5987 -0.4726  0.4339
 2132SOL    HW1 8934   7.119   6.781   1.069  0.9473  0.2242 -0.9321
 2132SOL    HW2 8935   7.222   6.756   1.177 -2.4461 -1.3077  2.0753
 2133SOL     OW 8936   2.449   6.988   7.736  0.3408 -0.4115 -0.4381
 2133SOL    HW1 8937   2.488   6.901   7.738  1.2536 -0.0178 -0.5062
 2133SOL    HW2 8938   2.524   7.047   7.730 -0.2588  0.3862 -0.1765
 2134SOL     OW 8939   5.043   7.405   8.929  0.1741  0.3308 -0.0924
 2134SOL    HW1 8940   4.956   7.408   8.889  0.3178 -1.2382 -0.5417
 2134SOL    HW2 8941   5.027   7.374   9.018  0.2700 -0.0134 -0.1927
 2135SOL     OW 8942   5.948   2.578   6.723  0.4097  0.1747  0.2412
 2135SOL    HW1 8943   5.934   2.673   6.716  0.0407  0.1003 -0.0374
 2135SOL    HW2 8944   5.863   2.544   6.750 -0.1205 -0.3485 -2.0083
 2136SOL     OW 8945   6.084   7.849   5.363  0.5306 -0.2321 -0.4690
 2136SOL    HW1 8946   6.121   7.922   5.413  1.4155 -0.8303 -0.2362
 2136SOL    HW2 8947   6.138   7.844   5.284  0.3414 -0.5035 -0.5816
 2137SOL     OW 8948   8.375   2.017   6.511 -0.1274 -0.8542 -0.0476
 2137SOL    HW1 8949   8.335   2.079   6.572 -2.3750 -1.3157 -0.9689
 2137SOL    HW2 8950   8.390   2.068   6.431  1.1559 -0.6797  0.3042
 2138SOL     OW 8951   3.103   1.057   0.138  0.2046  0.6768 -0.7606
 2138SOL    HW1 8952   3.123   1.023   0.226  0.2706  0.7192 -0.7586
 2138SOL    HW2 8953   3.036   0.999   0.104  0.5936  0.3154 -0.9112
 2139SOL     OW 8954   7.126   7.155   2.067  1.0348  0.3231  0.0992
 2139SOL    HW1 8955   7.195   7.110   2.018 -1.2224 -1.7843 -1.2956
 2139SOL    HW2 8956   7.052   7.156   2.007 -0.2487  2.2887  1.6680
 2140SOL     OW 8957   9.243   3.665   9.344 -0.2307 -0.0611  0.4255
 2140SOL    HW1 8958   9.306   3.717   9.296 -0.9250 -0.5760 -1.0627
 2140SOL    HW2 8959   9.167   3.723   9.356  0.5581  0.6064  2.3413
 2141SOL     OW 8960   3.454   9.728   5.066  0.0485  0.0194 -0.0817
 2141SOL    HW1 8961   3.492   9.732   5.154  0.2115  2.2772 -0.2327
 2141SOL    HW2 8962   3.383   9.664   5.074 -1.1102  1.5136  2.1833
 2142SOL     OW 8963   2.427   6.378   8.218  0.4761  0.4501 -0.1144
 2142SOL    HW1 8964   2.444   6.448   8.154 -0.6371 -0.7081 -1.7249
 2142SOL    HW2 8965   2.503   6.321   8.212 -0.4968 -0.7200 -1.8931
 2143SOL     OW 8966   3.764   0.384   3.262 -0.4351  0.3632 -0.2540
 2143SOL    HW1 8967   3.701   0.445   3.299 -1.0567  0.7046 -1.8475
 2143SOL    HW2 8968   3.736   0.372   3.171  1.4615  0.0751 -0.8292
 2144SOL     OW 8969   1.929   6.019   6.859 -0.3441  0.0472  0.6037
 2144SOL    HW1 8970   1.903   6.111   6.868 -0.4836  0.3976 -2.7036
 2144SOL    HW2 8971   1.855   5.977   6.815  0.9373 -0.9585 -0.6562
 2145SOL     OW 8972   3.241   0.434   3.525  0.1163 -0.4266 -0.0257
 2145SOL    HW1 8973   3.279   0.362   3.576  0.7854 -0.0202  0.0607
 2145SOL    HW2 8974   3.150   0.439   3.553  0.9063  0.9470  2.4477
 2146SOL     OW 8975   7.770   4.815   1.524  0.3323  1.4115  0.1763
 2146SOL    HW1 8976   7.766   4.910   1.534 -0.8749  1.1850  1.8960
 2146SOL    HW2 8977   7.707   4.781   1.587  1.5342 -0.5894  0.3277
 2147SOL     OW 8978   4.370   6.878   7.569 -0.4489 -0.5948 -0.0398
 2147SOL    HW1 8979   4.313   6.816   7.523 -1.0592  0.0030 -0.1093
 2147SOL    HW2 8980   4.339   6.964   7.539  0.7633 -0.2751 -0.3945
 2148SOL     OW 8981   5.999   7.317   4.908 -0.4460  0.0485 -0.0413
 2148SOL    HW1 8982   5.978   7.241   4.962 -1.0946  0.5385  0.3919
 2148SOL    HW2 8983   6.063   7.366   4.960 -0.6782  0.2478  0.0572
 2149SOL     OW 8984   8.101   5.453   8.236  0.6291  0.0793  0.6493
 2149SOL    HW1 8985   8.083   5.512   8.309 -0.7414  1.2144 -0.5554
 2149SOL    HW2 8986   8.195   5.435   8.241  0.9568  1.8978  1.3971
 2150SOL     OW 8987   1.002   9.251   3.040  0.1539  0.0097 -0.0673
 2150SOL    HW1 8988   0.979   9.269   3.131  1.9400 -0.6325  0.5313
 2150SOL    HW2 8989   0.974   9.329   2.992 -0.2942  0.5864  1.1125
 2151SOL     OW 8990   2.406   7.673   5.720  0.7525 -0.1057  0.3248
 2151SOL    HW1 8991   2.357   7.755   5.723  0.7680 -0.1163  0.9590
 2151SOL    HW2 8992   2.410   7.650   5.627  0.3649  0.3792  0.1894
 2152SOL     OW 8993   4.896   8.514   6.023  0.1498  0.0190  0.2124
 2152SOL    HW1 8994   4.906   8.605   5.995  0.7382  0.1009  0.6744
 2152SOL    HW2 8995   4.905   8.463   5.942 -1.9900  0.4609 -0.3347
 2153SOL     OW 8996   7.928   6.669   7.606 -0.1365  0.5629 -0.5284
 2153SOL    HW1 8997   7.861   6.734   7.628  1.1601  1.1111  1.9044
 2153SOL    HW2 8998   7.878   6.591   7.584 -1.6230  1.1969  0.4716
 2154SOL     OW 8999   9.956   3.629   6.147  0.0441 -0.0244 -0.0616
 2154SOL    HW1 9000   9.974   3.551   6.095 -2.4461 -0.5776 -0.1479
 2154SOL    HW2 9001   9.982   3.702   6.090 -0.9834 -0.6870 -1.4305
 2155SOL     OW 9002   9.211   6.529   9.593  0.0795  0.1899 -0.8381
 2155SOL    HW1 9003   9.238   6.560   9.507 -2.9819 -0.4606 -2.1313
 2155SOL    HW2 9004   9.186   6.437   9.578  1.8498 -0.6742  1.2870
 2156SOL     OW 9005   6.306   6.123   9.956 -0.1494  0.5075 -0.1470
 2156SOL    HW1 9006   6.262   6.150   9.875  1.0106 -0.3595 -1.0610
 2156SOL    HW2 9007   6.341   6.205   9.992 -2.1320  1.1652  0.3946
 2157SOL     OW 9008   6.408   8.918   8.073  0.2157  0.5061  0.2281
 2157SOL    HW1 9009   6.446   8.925   8.161  0.7659  1.8964 -0.1110
 2157SOL    HW2 9010   6.450   8.842   8.035  1.6183  1.1896  0.3799
 2158SOL     OW 9011   8.299   8.210   6.174  0.7590 -0.7434 -0.3150
 2158SOL    HW1 9012   8.363   8.281   6.180  0.6272 -0.6274 -0.2591
 2158SOL    HW2 9013   8.325   8.160   6.097  0.8995 -0.6792 -0.3081
 2159SOL     OW 9014   8.151   6.236   9.848  0.0239  0.6940  0.1144
 2159SOL    HW1 9015   8.214   6.251   9.778 -1.4359  0.4480 -1.2921
 2159SOL    HW2 9016   8.077   6.193   9.804 -0.9048  0.5259  1.8120
 2160SOL     OW 9017   6.648   7.946   5.509  0.2813 -0.0340 -0.4405
 2160SOL    HW1 9018   6.723   7.886   5.502  0.1813 -0.2779  0.6421
 2160SOL    HW2 9019   6.667   8.014   5.444  0.4214 -1.1935 -1.6442
 2161SOL     OW 9020   8.079   0.198   6.215 -0.3383 -0.3712  0.0539
 2161SOL    HW1 9021   8.133   0.139   6.163  0.0692 -1.0298  1.2017
 2161SOL    HW2 9022   8.066   0.152   6.298 -0.1063  1.0937  0.9170
 2162SOL     OW 9023   9.625   5.783   4.862  0.8499  0.0645 -0.2011
 2162SOL    HW1 9024   9.702   5.818   4.906 -0.1328  1.2387  0.6035
 2162SOL    HW2 9025   9.618   5.834   4.781  1.0023 -0.1529 -0.3528
 2163SOL     OW 9026   1.697   5.903   9.951  0.1458  0.0384  0.0482
 2163SOL    HW1 9027   1.764   5.890   9.884 -0.1188 -0.2526 -0.1597
 2163SOL    HW2 9028   1.618   5.864   9.914  0.4269 -1.7421  1.2808
 2164SOL     OW 9029   6.169   0.895   4.446  0.2347 -0.4018 -0.5124
 2164SOL    HW1 9030   6.246   0.839   4.459  1.0295  0.9502  0.8192
 2164SOL    HW2 9031   6.189   0.945   4.367  0.1599 -0.9576 -0.8863
 2165SOL     OW 9032   8.897   3.124   5.254 -0.3150  0.6365  0.4833
 2165SOL    HW1 9033   8.840   3.080   5.191  1.7079  0.2909 -1.1687
 2165SOL    HW2 9034   8.903   3.214   5.222 -0.1524  0.7406  0.8053
 2166SOL     OW 9035   5.838   6.366   2.363 -0.1246 -0.4074 -0.4847
 2166SOL    HW1 9036   5.902   6.437   2.363 -0.3184 -0.2306 -0.6417
 2166SOL    HW2 9037   5.755   6.408   2.385  0.3752 -1.1824  3.0488
 2167SOL     OW 9038   7.450   3.679   3.681  0.1661 -0.0647 -0.2889
 2167SOL    HW1 9039   7.502   3.675   3.601  1.0773  1.2340  0.2160
 2167SOL    HW2 9040   7.474   3.600   3.729  2.3292  0.8897  0.2926
 2168SOL     OW 9041   2.618   1.886   6.716 -0.6283  0.4482  0.3329
 2168SOL    HW1 9042   2.688   1.898   6.651  0.5548 -2.8548  0.9250
 2168SOL    HW2 9043   2.657   1.829   6.782 -3.0454  0.7628  2.0766
 2169SOL     OW 9044   4.660   2.319   4.477 -0.1006 -0.4947  0.5557
 2169SOL    HW1 9045   4.666   2.253   4.546  0.8421 -0.3344  0.6434
 2169SOL    HW2 9046   4.698   2.277   4.400  3.4166  0.9550  1.4038
 2170SOL     OW 9047   2.436   7.923   1.710  0.0157 -0.0059  0.6646
 2170SOL    HW1 9048   2.437   7.905   1.616 -1.1180  1.1588  0.4137
 2170SOL    HW2 9049   2.386   7.851   1.748 -0.6152  0.1892  0.2126
 2171SOL     OW 9050   5.034   7.356   0.729  0.5794 -0.6627  0.3035
 2171SOL    HW1 9051   5.035   7.425   0.662  1.2440 -1.6339 -0.6833
 2171SOL    HW2 9052   5.115   7.370   0.778 -0.0816  0.2782  1.1683
 2172SOL     OW 9053   5.029   5.578   0.848 -0.2865 -0.7283  0.3682
 2172SOL    HW1 9054   5.032   5.603   0.756  1.1743  0.5229  0.7419
 2172SOL    HW2 9055   5.077   5.496   0.852  0.0097 -0.5714  0.0762
 2173SOL     OW 9056   2.312   3.871   8.858 -0.5599 -0.2790  0.3194
 2173SOL    HW1 9057   2.317   3.904   8.947 -0.5498  0.1907  0.1442
 2173SOL    HW2 9058   2.402   3.877   8.825 -0.9997  1.9279 -0.5790
 2174SOL     OW 9059   6.245   6.458   1.209  0.2679  0.7241  0.4410
 2174SOL    HW1 9060   6.311   6.420   1.268 -0.3546 -4.2511 -1.7871
 2174SOL    HW2 9061   6.162   6.420   1.239 -0.5226  0.9761 -1.3783
 2175SOL     OW 9062   7.649   5.020   8.860 -0.3463  0.7564  0.2297
 2175SOL    HW1 9063   7.729   5.041   8.811 -0.3433 -1.0879 -0.5781
 2175SOL    HW2 9064   7.681   4.997   8.947 -0.0673  0.7470  0.1267
 2176SOL     OW 9065   4.962   6.456  10.021  0.1240 -0.0353  0.1922
 2176SOL    HW1 9066   5.005   6.415  10.096 -0.0777 -1.3123 -0.3708
 2176SOL    HW2 9067   4.878   6.410  10.014  0.2985 -0.1854 -1.0214
 2177SOL     OW 9068   1.215   6.945   5.707 -0.1554  0.2584 -0.3977
 2177SOL    HW1 9069   1.237   6.954   5.614  1.6584  2.6122  0.2367
 2177SOL    HW2 9070   1.164   7.023   5.728  1.6947  1.0721  1.2058
 2178SOL     OW 9071   5.573   6.572   4.062 -0.0977  0.3912 -0.0093
 2178SOL    HW1 9072   5.659   6.592   4.025  1.0337 -1.4040  1.5858
 2178SOL    HW2 9073   5.592   6.527   4.144 -2.5710  0.1262  0.4510
 2179SOL     OW 9074   3.633   9.987   9.636  0.2961 -0.6868  0.5165
 2179SOL    HW1 9075   3.626   9.940   9.553  2.4611 -1.1129  0.5402
 2179SOL    HW2 9076   3.701  10.053   9.621  0.2545 -0.3512  1.7489
 2180SOL     OW 9077   8.414   1.246   9.170 -0.1342  0.3677 -0.3280
 2180SOL    HW1 9078   8.404   1.341   9.157 -0.0696  0.2188 -1.5075
 2180SOL    HW2 9079   8.471   1.218   9.098  0.1794 -0.5011  0.2639
 2181SOL     OW 9080   2.063   5.935   8.263 -0.2104 -0.7375 -0.5273
 2181SOL    HW1 9081   2.128   5.867   8.249  0.5466 -0.6368  2.1989
 2181SOL    HW2 9082   2.007   5.900   8.333 -0.1083  1.2103  0.5629
 2182SOL     OW 9083   5.178   5.885   1.580  0.1115  0.3555 -0.0054
 2182SOL    HW1 9084   5.109   5.851   1.523 -0.5663  1.1612  0.3081
 2182SOL    HW2 9085   5.213   5.960   1.533 -0.4233  1.0002  0.5973
 2183SOL     OW 9086   2.671   1.370   3.563 -0.0839 -0.3682  0.2216
 2183SOL    HW1 9087   2.694   1.280   3.541 -0.9112 -0.4924 -0.1349
 2183SOL    HW2 9088   2.716   1.424   3.498 -0.2973 -0.5697 -0.0876
 2184SOL     OW 9089   3.375   4.634   5.885 -0.2183  0.3356 -0.4621
 2184SOL    HW1 9090   3.398   4.724   5.909 -0.4379  0.5962 -1.2153
 2184SOL    HW2 9091   3.309   4.644   5.817 -1.0759 -0.4099  0.2632
 2185SOL     OW 9092   8.045   0.830   2.773 -0.4467  0.1081 -0.5131
 2185SOL    HW1 9093   8.012   0.748   2.808 -0.9921  0.6202  0.2022
 2185SOL    HW2 9094   8.138   0.830   2.794 -0.4784 -0.2531 -0.3706
 2186SOL     OW 9095   3.378   0.376   5.195 -0.2013 -0.1273 -0.5650
 2186SOL    HW1 9096   3.453   0.323   5.223 -1.0606 -1.4906 -0.7744
 2186SOL    HW2 9097   3.306   0.344   5.249 -1.0154 -0.0646 -1.6090
 2187SOL     OW 9098   8.710   6.343   4.588 -0.1391  0.2526 -0.5418
 2187SOL    HW1 9099   8.763   6.360   4.666  0.2867  0.6025 -0.9051
 2187SOL    HW2 9100   8.620   6.353   4.618 -0.0097 -0.4879  0.1159
 2188SOL     OW 9101   6.336   8.000   4.877  0.4550  0.0412 -0.1466
 2188SOL    HW1 9102   6.271   7.978   4.943  0.5807 -0.3859 -0.1643
 2188SOL    HW2 9103   6.416   8.016   4.927  0.5803 -0.4012 -0.2042
 2189SOL     OW 9104   5.289   1.110   8.740  0.0701  1.0005 -0.5199
 2189SOL    HW1 9105   5.240   1.192   8.749 -0.5664  0.6461 -0.7596
 2189SOL    HW2 9106   5.368   1.135   8.691 -0.2990  1.3989 -0.9167
 2190SOL     OW 9107   7.747   3.435   5.278  0.1581  0.8877  0.2077
 2190SOL    HW1 9108   7.676   3.457   5.339  0.2298  0.4357  0.4550
 2190SOL    HW2 9109   7.827   3.458   5.326  0.1797  1.4525 -0.0931
 2191SOL     OW 9110   4.349   6.976   6.236  0.0699  0.5460 -0.3996
 2191SOL    HW1 9111   4.293   7.021   6.173  0.6362  0.9518 -0.6180
 2191SOL    HW2 9112   4.386   7.046   6.290 -0.8779  0.1575  0.7823
 2192SOL     OW 9113   8.814   0.384   6.942 -0.3388 -0.0370 -0.0547
 2192SOL    HW1 9114   8.847   0.461   6.896 -1.5378 -0.1270 -1.0644
 2192SOL    HW2 9115   8.860   0.310   6.902 -0.7656 -0.0383 -0.5470
 2193SOL     OW 9116   4.145   9.811   0.386 -0.4476 -0.3287 -0.4671
 2193SOL    HW1 9117   4.121   9.893   0.342 -1.6330 -0.0301  0.7054
 2193SOL    HW2 9118   4.088   9.745   0.347  2.8673 -1.3394 -3.9196
 2194SOL     OW 9119   0.833   0.163   8.649 -0.1914  0.4994 -0.0041
 2194SOL    HW1 9120   0.881   0.090   8.689 -0.2434  0.1875 -0.5150
 2194SOL    HW2 9121   0.894   0.237   8.657 -0.3610  0.5381  1.0166
 2195SOL     OW 9122   5.705   2.469   6.812 -0.4888  0.1192 -0.1356
 2195SOL    HW1 9123   5.667   2.425   6.735 -2.5931  2.0798 -0.2817
 2195SOL    HW2 9124   5.680   2.413   6.885  1.8694 -1.9759 -0.8794
 2196SOL     OW 9125   2.600   8.953   5.269  0.2678  0.0431 -0.0951
 2196SOL    HW1 9126   2.621   8.917   5.355  1.0882  1.0927  0.1612
 2196SOL    HW2 9127   2.682   8.992   5.239 -0.6715  2.0490 -0.1703
 2197SOL     OW 9128   5.203   6.580   5.511  0.0899 -0.1075 -0.2123
 2197SOL    HW1 9129   5.271   6.586   5.578 -0.2924  0.5918  0.1316
 2197SOL    HW2 9130   5.247   6.545   5.434  0.4573 -1.2871  0.5229
 2198SOL     OW 9131   6.087   4.717   1.571  0.5939 -0.2573  0.4250
 2198SOL    HW1 9132   6.157   4.658   1.598  0.1304 -0.4931  1.1212
 2198SOL    HW2 9133   6.018   4.705   1.637  0.6062  1.2542  0.7300
 2199SOL     OW 9134   9.615   9.016   5.103 -0.8506  0.1316 -0.3702
 2199SOL    HW1 9135   9.564   8.941   5.074 -1.3454  0.6008 -0.7462
 2199SOL    HW2 9136   9.552   9.073   5.147 -0.9041  1.2295 -1.7945
 2200SOL     OW 9137   9.908   2.196   2.746  0.5191  0.0163  0.1454
 2200SOL    HW1 9138   9.825   2.232   2.716  0.7686  0.9802  0.5978
 2200SOL    HW2 9139   9.974   2.240   2.693  0.9281  1.3564  1.7156
 2201SOL     OW 9140  10.097   7.733   2.992 -0.3076 -0.5118  0.0851
 2201SOL    HW1 9141  10.086   7.785   2.912  1.9625 -1.8056 -1.1146
 2201SOL    HW2 9142  10.191   7.739   3.012 -0.9120  0.1444  2.9182
 2202SOL     OW 9143   3.144   2.436   3.684 -0.2772  0.9885  0.3428
 2202SOL    HW1 9144   3.072   2.379   3.708  0.3524 -0.1622 -0.4611
 2202SOL    HW2 9145   3.112   2.525   3.702 -1.8188  0.4818  0.1272
 2203SOL     OW 9146   7.782   2.196   5.958 -0.2143 -0.1983 -0.6621
 2203SOL    HW1 9147   7.688   2.210   5.946 -0.2295 -0.2331 -0.5852
 2203SOL    HW2 9148   7.792   2.186   6.053 -0.2753 -1.2746 -0.7704
 2204SOL     OW 9149   2.788   1.923   0.856  0.1106 -0.0858 -0.4183
 2204SOL    HW1 9150   2.740   1.958   0.931 -1.0613  0.1319 -1.2640
 2204SOL    HW2 9151   2.722   1.876   0.805  1.0873 -1.0056 -0.8471
 2205SOL     OW 9152   1.355   5.792   9.686 -0.1747  0.5784 -0.4539
 2205SOL    HW1 9153   1.334   5.764   9.597 -0.1159  0.9605 -0.5859
 2205SOL    HW2 9154   1.272   5.824   9.722 -0.7052 -1.6578  0.3960
 2206SOL     OW 9155   5.401   9.106   5.542  0.0960 -0.0438 -0.4026
 2206SOL    HW1 9156   5.395   9.137   5.451  1.8839  0.4886 -0.3615
 2206SOL    HW2 9157   5.465   9.164   5.582 -0.8181 -0.1712  1.2652
 2207SOL     OW 9158   3.908   6.962   2.406  0.4543  0.3778  0.1540
 2207SOL    HW1 9159   3.984   6.993   2.456  0.3904 -0.6608  0.9118
 2207SOL    HW2 9160   3.882   6.881   2.449  0.5341 -0.6792 -1.7152
 2208SOL     OW 9161   5.470   8.415   3.902 -0.5883 -0.3471  0.6139
 2208SOL    HW1 9162   5.501   8.327   3.925  0.9705 -0.3580 -1.3649
 2208SOL    HW2 9163   5.546   8.456   3.860 -1.5707  1.6505  0.7582
 2209SOL     OW 9164   5.693   7.336   0.015 -0.1289  0.0460 -0.5695
 2209SOL    HW1 9165   5.639   7.411   0.037  1.2785  0.4160  1.8433
 2209SOL    HW2 9166   5.670   7.270   0.081  0.7509 -0.5729 -0.8705
 2210SOL     OW 9167   8.623   3.975   2.678  0.1165 -0.0181 -0.0848
 2210SOL    HW1 9168   8.561   3.902   2.676 -1.0012  0.8271  2.0756
 2210SOL    HW2 9169   8.652   3.985   2.587 -2.0075 -1.2195 -0.9205
 2211SOL     OW 9170   3.179   3.065   0.080  0.3182 -0.5922  0.2525
 2211SOL    HW1 9171   3.225   3.091   0.000  4.1965 -1.8386  1.9996
 2211SOL    HW2 9172   3.118   2.996   0.050 -2.5304  2.9001 -2.5332
 2212SOL     OW 9173   9.909   7.783   6.768 -0.0015 -0.3193 -0.3038
 2212SOL    HW1 9174   9.966   7.830   6.830  0.7608 -1.0752 -0.4199
 2212SOL    HW2 9175   9.844   7.848   6.742  0.7755  0.5534 -0.1233
 2213SOL     OW 9176   7.230   0.030   5.043  0.6758  0.2064  0.6078
 2213SOL    HW1 9177   7.154   0.025   4.985  0.6269 -0.3663  0.7173
 2213SOL    HW2 9178   7.301   0.060   4.987  0.2875  1.1132  0.5854
 2214SOL     OW 9179   8.637   7.212   5.178  0.1212  0.2542 -0.1955
 2214SOL    HW1 9180   8.598   7.139   5.227 -0.8773 -0.0512 -1.4278
 2214SOL    HW2 9181   8.636   7.183   5.087  1.7575  0.9162 -0.4458
 2215SOL     OW 9182   1.684   3.381   6.377  0.5549  1.1400 -0.1594
 2215SOL    HW1 9183   1.764   3.341   6.412  0.1506  0.3208 -0.1660
 2215SOL    HW2 9184   1.656   3.442   6.444  1.6632  2.0651 -0.5242
 2216SOL     OW 9185   0.003   4.188   8.979 -0.2434 -0.1517  0.3815
 2216SOL    HW1 9186   0.089   4.215   9.010 -0.7047  0.5260  1.0946
 2216SOL    HW2 9187  -0.059   4.228   9.041 -1.0419 -1.0519  0.1804
 2217SOL     OW 9188   3.114   4.963   3.662 -0.0888  0.0867  0.3732
 2217SOL    HW1 9189   3.114   4.995   3.572 -0.0920 -1.9482 -0.3963
 2217SOL    HW2 9190   3.023   4.944   3.681  0.0929 -1.0347  0.1926
 2218SOL     OW 9191   3.036   7.435   7.122  0.0627 -0.2397 -0.2095
 2218SOL    HW1 9192   3.018   7.383   7.045  1.7799  0.0669 -0.8350
 2218SOL    HW2 9193   3.023   7.526   7.093 -2.1877 -0.2295  0.6777
 2219SOL     OW 9194   9.589   3.562   8.162  0.6018  0.1664 -0.4922
 2219SOL    HW1 9195   9.510   3.591   8.209  1.3830 -0.5700  1.3335
 2219SOL    HW2 9196   9.619   3.640   8.115 -0.5396  0.7721 -0.2306
 2220SOL     OW 9197   8.181  10.189   8.816  0.2654  0.4573  0.1204
 2220SOL    HW1 9198   8.121  10.115   8.815 -0.2438  0.8770 -1.5051
 2220SOL    HW2 9199   8.182  10.218   8.907 -1.2959 -0.1237  0.3270
 2221SOL     OW 9200  10.102   9.105   8.626 -0.8294 -0.2413  0.1780
 2221SOL    HW1 9201  10.037   9.134   8.690  0.0304  0.6515  0.6618
 2221SOL    HW2 9202  10.115   9.012   8.647 -0.4234  0.0830  1.4258
 2222SOL     OW 9203   5.041   8.375   3.195  0.0467 -0.4746 -0.6527
 2222SOL    HW1 9204   5.006   8.464   3.201  2.8240  0.7878 -2.3916
 2222SOL    HW2 9205   5.129   8.381   3.234 -0.5201 -2.9640  1.1770
 2223SOL     OW 9206   8.286   6.690   0.733  0.1103 -0.6820 -0.0440
 2223SOL    HW1 9207   8.196   6.665   0.712  0.0444 -0.5497  0.0816
 2223SOL    HW2 9208   8.338   6.652   0.662 -0.4253  2.2478 -2.1177
 2224SOL     OW 9209  10.034   6.273   2.097  0.2770  0.2489  0.2927
 2224SOL    HW1 9210  10.114   6.313   2.063  0.5953  0.7251  1.5435
 2224SOL    HW2 9211   9.968   6.289   2.030  1.0047  0.6931 -0.3208
 2225SOL     OW 9212   0.273   0.264   1.273 -0.2827 -0.0745  0.2894
 2225SOL    HW1 9213   0.244   0.306   1.354  0.3241 -1.2160  1.1134
 2225SOL    HW2 9214   0.264   0.332   1.206  1.4820  1.6490  1.7332
 2226SOL     OW 9215   4.287   6.254   2.549  0.3148  0.8688 -0.6302
 2226SOL    HW1 9216   4.378   6.282   2.540  0.8348  0.0782  1.8099
 2226SOL    HW2 9217   4.287   6.161   2.526  0.0684  0.9352 -0.9040
 2227SOL     OW 9218   0.961   3.527   6.625  0.3814 -0.5885  0.2600
 2227SOL    HW1 9219   1.003   3.446   6.656  2.1677  0.3427  0.3483
 2227SOL    HW2 9220   0.963   3.520   6.530  1.1060 -0.3784  0.2545
 2228SOL     OW 9221   1.781   3.737   7.864  0.3889 -0.4253 -0.5396
 2228SOL    HW1 9222   1.763   3.667   7.801  0.3419 -0.5257 -0.4158
 2228SOL    HW2 9223   1.875   3.753   7.856  0.8161 -1.9842  0.9508
 2229SOL     OW 9224   0.510   6.261   7.792  0.1356 -0.3668  0.4523
 2229SOL    HW1 9225   0.568   6.293   7.861 -1.5908  2.0579  0.8247
 2229SOL    HW2 9226   0.444   6.208   7.837 -2.1098  2.7659  0.9831
 2230SOL     OW 9227   5.615   7.835   9.785  0.1955  0.6902  0.1177
 2230SOL    HW1 9228   5.538   7.888   9.765  0.2808  0.9796  0.5440
 2230SOL    HW2 9229   5.587   7.780   9.859  1.1613  2.5873  1.9664
 2231SOL     OW 9230   2.163   3.296   5.256 -0.0993  0.7015  0.2044
 2231SOL    HW1 9231   2.151   3.253   5.341  0.1861 -0.4303 -0.3142
 2231SOL    HW2 9232   2.207   3.378   5.277  0.0971  0.3667  1.1403
 2232SOL     OW 9233   7.947   6.997   5.053 -0.3341  0.0290 -0.0229
 2232SOL    HW1 9234   8.040   6.973   5.054 -0.0841  1.0299  1.5734
 2232SOL    HW2 9235   7.908   6.949   5.126 -1.3896 -1.4492 -1.4893
 2233SOL     OW 9236   3.020   9.413   2.278 -0.1341  0.0843  0.8129
 2233SOL    HW1 9237   2.940   9.427   2.329 -0.1398  1.7810  0.3628
 2233SOL    HW2 9238   3.091   9.439   2.337  0.0102 -0.2215  0.7752
 2234SOL     OW 9239   3.229   2.911   3.232  0.1240 -0.3318  0.2520
 2234SOL    HW1 9240   3.299   2.855   3.265  1.7867  0.3525 -1.9909
 2234SOL    HW2 9241   3.249   2.998   3.269 -0.0990 -0.3401  0.3921
 2235SOL     OW 9242   6.957   0.755   2.742 -0.1003  0.0907 -0.0006
 2235SOL    HW1 9243   7.000   0.682   2.786 -0.1072  1.0960  1.7189
 2235SOL    HW2 9244   7.010   0.831   2.764 -1.7308  1.0558  0.6368
 2236SOL     OW 9245   1.102   3.119   6.087 -0.5932 -0.6242 -0.1680
 2236SOL    HW1 9246   1.140   3.060   6.152  0.7566 -0.1337 -0.4754
 2236SOL    HW2 9247   1.096   3.065   6.007  1.2767 -0.1909 -0.6350
 2237SOL     OW 9248   5.520   7.923   9.327  0.0431 -0.3340 -0.6725
 2237SOL    HW1 9249   5.438   7.971   9.331 -0.1470 -0.7084  0.0689
 2237SOL    HW2 9250   5.494   7.831   9.331  0.1261 -0.7217 -5.8758
 2238SOL     OW 9251   6.572   7.375   7.183 -0.0563 -0.3429 -0.3127
 2238SOL    HW1 9252   6.522   7.430   7.243 -2.2299 -1.0478 -1.4229
 2238SOL    HW2 9253   6.573   7.288   7.224  0.8767 -0.1839  0.0293
 2239SOL     OW 9254   7.758   1.459   5.996 -0.1540  0.3393 -0.6497
 2239SOL    HW1 9255   7.852   1.466   6.008 -0.2810  0.7656  0.0916
 2239SOL    HW2 9256   7.720   1.490   6.078 -0.9602  1.0754 -1.2860
 2240SOL     OW 9257   4.392   2.112  10.161 -0.0679 -0.7273  1.0120
 2240SOL    HW1 9258   4.452   2.159  10.219 -1.6484 -1.1646  3.1047
 2240SOL    HW2 9259   4.309   2.159  10.170 -0.2586 -0.6308 -1.1644
 2241SOL     OW 9260   5.691   3.736   1.395 -0.3320  0.2687 -0.3510
 2241SOL    HW1 9261   5.624   3.674   1.368 -0.5529  0.4871 -0.3006
 2241SOL    HW2 9262   5.743   3.689   1.460 -1.6848  0.8064  1.1299
 2242SOL     OW 9263   5.771   7.122   3.978  0.3688 -0.1422 -0.0870
 2242SOL    HW1 9264   5.734   7.047   4.025 -2.2946  2.6560  2.5553
 2242SOL    HW2 9265   5.704   7.146   3.914  0.0627  1.4552  0.7983
 2243SOL     OW 9266   1.692   5.398   9.644 -0.6426  0.1468  0.0296
 2243SOL    HW1 9267   1.769   5.439   9.683 -0.9449 -0.4815  1.3112
 2243SOL    HW2 9268   1.625   5.403   9.712 -1.2523 -0.7605 -0.4989
 2244SOL     OW 9269   3.907   9.470   3.896  0.0783 -0.4005  0.1043
 2244SOL    HW1 9270   3.871   9.523   3.967  0.8740  1.3652 -0.7848
 2244SOL    HW2 9271   3.831   9.424   3.860 -0.8355  1.0648  0.1121
 2245SOL     OW 9272   9.571   3.446   2.366 -0.1898  0.1937 -0.3247
 2245SOL    HW1 9273   9.572   3.498   2.447  0.6093 -0.0992 -0.1477
 2245SOL    HW2 9274   9.632   3.374   2.383 -0.2766 -0.0522 -1.0676
 2246SOL     OW 9275   8.208  10.053   1.672 -0.3418  0.0677  0.4402
 2246SOL    HW1 9276   8.240   9.995   1.741 -0.0349 -0.3636 -0.0593
 2246SOL    HW2 9277   8.287  10.085   1.629 -0.5563 -1.2350 -0.9922
 2247SOL     OW 9278   3.967   9.324   6.259 -0.5991 -0.4516  0.0754
 2247SOL    HW1 9279   3.987   9.231   6.264  1.7205  0.0234  0.2569
 2247SOL    HW2 9280   4.040   9.367   6.304 -1.0376  1.5192 -1.0261
 2248SOL     OW 9281   0.231   3.840   7.956  0.1018  0.0948  0.3420
 2248SOL    HW1 9282   0.182   3.766   7.919 -0.7213 -1.1173  3.6774
 2248SOL    HW2 9283   0.170   3.913   7.951 -0.2716 -0.2331 -0.0126
 2249SOL     OW 9284   7.694   1.036   3.090 -0.0777 -0.0313  0.1220
 2249SOL    HW1 9285   7.759   1.069   3.030  0.4842 -1.3406 -0.0166
 2249SOL    HW2 9286   7.743   0.981   3.151 -0.8568  0.0393  0.8299
 2250SOL     OW 9287   7.201   0.119   1.459 -0.1932 -0.5369 -0.4384
 2250SOL    HW1 9288   7.290   0.154   1.468 -0.1902 -0.5259 -0.5115
 2250SOL    HW2 9289   7.195   0.093   1.367  0.0596 -1.4211 -0.2089
 2251SOL     OW 9290   5.497   9.866   1.439 -0.1277 -0.1879 -0.0953
 2251SOL    HW1 9291   5.582   9.910   1.427  0.8548 -2.2606 -1.0012
 2251SOL    HW2 9292   5.471   9.888   1.528  2.7276 -1.7399  1.1903
 2252SOL     OW 9293   2.443   1.784   3.500  0.1968  0.6422  0.7646
 2252SOL    HW1 9294   2.382   1.836   3.553  0.1821  1.6975 -0.2702
 2252SOL    HW2 9295   2.528   1.801   3.540  0.1411  1.1560  0.6700
 2253SOL     OW 9296   6.881   3.274   9.336  0.0466  0.3060 -0.0468
 2253SOL    HW1 9297   6.894   3.321   9.418  1.3565 -0.0513 -0.0323
 2253SOL    HW2 9298   6.969   3.269   9.297 -0.5115  0.2507 -1.3477
 2254SOL     OW 9299   1.369   8.873   8.280 -0.0056  0.2455 -0.4931
 2254SOL    HW1 9300   1.358   8.778   8.289  1.4228  0.0436 -0.8209
 2254SOL    HW2 9301   1.382   8.887   8.187  4.9897  0.1575  0.0726
 2255SOL     OW 9302   5.004   5.425   1.762 -0.0975  0.5071 -0.5907
 2255SOL    HW1 9303   5.004   5.334   1.791 -2.2780  0.2760 -1.2309
 2255SOL    HW2 9304   5.001   5.476   1.843 -0.1691 -0.0128 -0.2636
 2256SOL     OW 9305   3.891   7.349   1.581 -0.2926  0.8094  0.3569
 2256SOL    HW1 9306   3.831   7.413   1.620 -0.6843  0.9836 -0.5035
 2256SOL    HW2 9307   3.940   7.400   1.517 -2.0020 -0.1422 -1.7859
 2257SOL     OW 9308   5.418   1.085   9.813  0.0591 -0.1600 -0.4956
 2257SOL    HW1 9309   5.471   1.164   9.801 -0.3139  0.0697 -0.6063
 2257SOL    HW2 9310   5.337   1.116   9.854 -0.7729 -0.2643 -2.0382
 2258SOL     OW 9311   8.936   5.587   0.213  0.6195  0.4577 -0.1590
 2258SOL    HW1 9312   9.024   5.608   0.183  1.0549  0.2143  0.9110
 2258SOL    HW2 9313   8.898   5.672   0.238  0.5619  0.5586 -0.5900
 2259SOL     OW 9314   5.333   3.000   2.891  0.1535  0.5977 -0.0164
 2259SOL    HW1 9315   5.424   3.028   2.900  0.3064 -0.2683  1.1785
 2259SOL    HW2 9316   5.282   3.081   2.903  0.7289  0.9741 -0.0559
 2260SOL     OW 9317   8.134   1.201   5.485  0.3286 -0.0976  0.0718
 2260SOL    HW1 9318   8.144   1.202   5.580  0.8415  2.0503  0.0155
 2260SOL    HW2 9319   8.041   1.182   5.471 -0.3617  2.3530  1.0924
 2261SOL     OW 9320   2.031  10.122   0.563 -0.5202 -0.3560 -0.0567
 2261SOL    HW1 9321   1.973  10.050   0.587  0.0723 -0.5712  0.7369
 2261SOL    HW2 9322   2.019  10.132   0.469 -0.5739 -1.5159 -0.1738
 2262SOL     OW 9323   1.678   0.318   0.985 -0.2262 -0.2396  0.0199
 2262SOL    HW1 9324   1.590   0.342   1.016 -0.1143 -0.3282  0.4043
 2262SOL    HW2 9325   1.714   0.263   1.054 -0.2343 -1.0006 -0.5752
 2263SOL     OW 9326   7.499   2.531   9.629  0.2955  0.2086 -0.1212
 2263SOL    HW1 9327   7.534   2.448   9.596  0.0016 -0.7552  1.9087
 2263SOL    HW2 9328   7.544   2.545   9.712 -1.5661  0.7080  0.8412
 2264SOL     OW 9329   0.349   5.130   5.879  0.3040 -0.1005 -0.1490
 2264SOL    HW1 9330   0.269   5.166   5.839 -0.1693 -1.1248 -0.1465
 2264SOL    HW2 9331   0.341   5.149   5.972  0.0430 -0.2365 -0.1446
 2265SOL     OW 9332   7.718   3.514   3.558  0.3172 -0.1984 -0.5103
 2265SOL    HW1 9333   7.784   3.477   3.500  0.8569 -1.6093  0.9529
 2265SOL    HW2 9334   7.740   3.479   3.645 -1.1796  0.8898  0.3381
 2266SOL     OW 9335   5.344   9.447   5.588 -0.2597  0.5494 -0.6020
 2266SOL    HW1 9336   5.428   9.404   5.574  0.1594  0.5219  1.8706
 2266SOL    HW2 9337   5.289   9.379   5.627 -0.3717  1.5380  0.9696
 2267SOL     OW 9338   0.277   3.533   0.588 -0.2069 -0.8000  0.8516
 2267SOL    HW1 9339   0.315   3.620   0.605  0.1295 -0.8975  0.6107
 2267SOL    HW2 9340   0.253   3.535   0.496  0.5229 -1.2324  0.6446
 2268SOL     OW 9341   9.576   6.723   4.564  0.2475  0.4803  0.8128
 2268SOL    HW1 9342   9.639   6.671   4.516  1.4315 -0.2197  3.0346
 2268SOL    HW2 9343   9.556   6.671   4.642 -2.8734  0.8120  0.3237
 2269SOL     OW 9344   1.895   9.011   1.250  0.1719  0.3378  0.0197
 2269SOL    HW1 9345   1.989   9.025   1.237  0.1964  0.7619  0.6289
 2269SOL    HW2 9346   1.869   9.081   1.311 -0.2988 -0.5154  0.8044
 2270SOL     OW 9347   3.042   3.914   1.031  0.5670  0.4912  0.3381
 2270SOL    HW1 9348   2.953   3.918   0.997  0.3594 -0.5860  0.7304
 2270SOL    HW2 9349   3.098   3.907   0.953  0.0758 -2.3292  0.2141
 2271SOL     OW 9350   2.146   3.052   1.838 -0.5934 -0.0586 -0.5211
 2271SOL    HW1 9351   2.217   2.989   1.843  0.7312  1.2089 -2.8286
 2271SOL    HW2 9352   2.103   3.045   1.923 -0.8826 -4.4698 -0.8776
 2272SOL     OW 9353   6.794   5.371   0.995 -0.0378 -0.2127  0.0096
 2272SOL    HW1 9354   6.874   5.341   1.037  0.0849  0.7116  0.4398
 2272SOL    HW2 9355   6.771   5.451   1.041 -1.7327 -0.9617  0.5202
 2273SOL     OW 9356   3.045   6.924   5.616 -0.0657 -0.2990  0.1816
 2273SOL    HW1 9357   3.071   6.905   5.526  3.4974  2.0662  0.6031
 2273SOL    HW2 9358   3.072   6.847   5.666 -1.5121 -1.3680 -0.6934
 2274SOL     OW 9359   4.402   9.338   3.650  0.1646  0.0500 -0.2836
 2274SOL    HW1 9360   4.440   9.350   3.563  0.5648 -1.0648 -0.2656
 2274SOL    HW2 9361   4.418   9.421   3.695 -0.1979  0.6956 -1.3252
 2275SOL     OW 9362   4.877   8.737   9.538 -0.4412  0.1012 -0.3115
 2275SOL    HW1 9363   4.934   8.660   9.548 -2.2114 -1.1366  0.5715
 2275SOL    HW2 9364   4.884   8.760   9.445  2.3637  0.6974 -0.0028
 2276SOL     OW 9365   8.411   8.033   7.354  0.3497 -0.8793 -0.3003
 2276SOL    HW1 9366   8.355   8.000   7.424 -1.6627 -1.4590 -2.1229
 2276SOL    HW2 9367   8.490   7.979   7.358 -0.9478 -2.8231 -0.2710
 2277SOL     OW 9368   6.311   1.161   6.750 -0.0525 -0.3150  0.0011
 2277SOL    HW1 9369   6.298   1.225   6.680 -1.5814 -0.6559 -0.0411
 2277SOL    HW2 9370   6.265   1.082   6.720 -0.2442 -0.6505  1.1337
 2278SOL     OW 9371   2.270   5.724   9.714 -0.0761 -0.0208 -0.1441
 2278SOL    HW1 9372   2.190   5.773   9.731 -0.0564 -1.0394  3.0590
 2278SOL    HW2 9373   2.340   5.779   9.750  0.2100 -1.1172  1.0027
 2279SOL     OW 9374   9.629   7.586   0.400 -0.1976  0.1431  0.3107
 2279SOL    HW1 9375   9.669   7.646   0.338  0.2596 -1.1129 -0.6216
 2279SOL    HW2 9376   9.602   7.642   0.473 -0.0099  1.5069 -0.6501
 2280SOL     OW 9377   2.566   8.667   2.235  0.4949 -0.2650  0.1839
 2280SOL    HW1 9378   2.564   8.626   2.322  1.9165 -0.8672 -0.0394
 2280SOL    HW2 9379   2.583   8.760   2.253  4.6364 -0.9776  0.4668
 2281SOL     OW 9380   3.466   4.671   9.150 -0.0748 -0.4071  0.2588
 2281SOL    HW1 9381   3.512   4.587   9.147  1.6956  0.5552 -0.4353
 2281SOL    HW2 9382   3.436   4.685   9.060  1.4666  0.6843 -0.0934
 2282SOL     OW 9383   4.861   1.106   8.362 -0.1338  0.3729 -0.4216
 2282SOL    HW1 9384   4.952   1.121   8.387  0.0726  1.3995 -1.7145
 2282SOL    HW2 9385   4.816   1.188   8.384 -0.5477  0.2219 -0.6925
 2283SOL     OW 9386   8.412   1.021   7.212 -0.1845 -0.0505  0.3799
 2283SOL    HW1 9387   8.350   1.077   7.259 -2.4112 -1.0836 -1.2144
 2283SOL    HW2 9388   8.394   0.933   7.245  0.8990 -0.2694  0.3860
 2284SOL     OW 9389   7.762   0.180   1.677 -0.2824  0.4149  0.3716
 2284SOL    HW1 9390   7.841   0.132   1.650  0.6654  1.1282  1.8127
 2284SOL    HW2 9391   7.794   0.268   1.697 -1.4881  0.7573  0.8073
 2285SOL     OW 9392   4.524   4.825   7.679  0.1424  0.2888 -0.0570
 2285SOL    HW1 9393   4.601   4.832   7.622 -0.7569 -1.3884 -1.5036
 2285SOL    HW2 9394   4.551   4.765   7.748  0.5430  0.7223  0.1735
 2286SOL     OW 9395   0.118   9.890   8.931 -0.2553  0.2237 -0.3779
 2286SOL    HW1 9396   0.103   9.961   8.994 -1.8270 -1.0921  0.7788
 2286SOL    HW2 9397   0.210   9.898   8.907 -0.0600  1.7899  0.8264
 2287SOL     OW 9398   7.099   1.572   1.304 -0.7058 -0.0528  0.1497
 2287SOL    HW1 9399   7.166   1.520   1.348 -0.8380 -1.6187 -1.4639
 2287SOL    HW2 9400   7.138   1.660   1.296  1.0914 -0.8971 -0.6256
 2288SOL     OW 9401   9.449   1.270   6.232  0.0606  0.6241 -0.0245
 2288SOL    HW1 9402   9.432   1.275   6.138  0.8081  1.9056 -0.1083
 2288SOL    HW2 9403   9.506   1.345   6.249  1.6134 -0.7979  1.0837
 2289SOL     OW 9404   1.467   7.577   8.994  0.4470  0.3642 -0.3202
 2289SOL    HW1 9405   1.442   7.564   9.085  1.1911  3.3091  0.3716
 2289SOL    HW2 9406   1.554   7.537   8.987  1.5424  2.4007  1.0139
 2290SOL     OW 9407   6.489   6.055   4.865  0.4626  0.2734  0.4536
 2290SOL    HW1 9408   6.563   5.995   4.857  0.5876  0.6178 -1.3382
 2290SOL    HW2 9409   6.453   6.039   4.952  1.1582 -1.6162  0.4078
 2291SOL     OW 9410   8.670   2.972   2.266  0.2855  0.0840  0.1368
 2291SOL    HW1 9411   8.752   3.012   2.237  0.3429  0.3365  0.6297
 2291SOL    HW2 9412   8.633   3.037   2.326 -0.2877 -0.0196 -0.1075
 2292SOL     OW 9413   8.282   9.541   4.848  1.1025  0.0682 -0.4798
 2292SOL    HW1 9414   8.243   9.495   4.774  2.0443 -0.8498 -0.4267
 2292SOL    HW2 9415   8.361   9.491   4.868  0.7681  0.2063  1.2644
 2293SOL     OW 9416   0.915   2.283   2.583  0.4131 -0.3047  0.0583
 2293SOL    HW1 9417   0.947   2.199   2.550  2.3991  0.5426 -0.2756
 2293SOL    HW2 9418   0.980   2.347   2.553 -0.6679  1.2527  0.9335
 2294SOL     OW 9419   6.918   2.058   0.056  0.0764  0.2952  0.2180
 2294SOL    HW1 9420   6.976   2.120   0.099  2.1381  0.6204 -2.8214
 2294SOL    HW2 9421   6.943   1.973   0.093  0.6809  0.7303  0.8254
 2295SOL     OW 9422   6.504   7.404   8.569  0.3939  0.2183 -0.2943
 2295SOL    HW1 9423   6.448   7.404   8.491  0.1084  0.2755 -0.0924
 2295SOL    HW2 9424   6.593   7.408   8.535  0.2725  0.1791 -0.6203
 2296SOL     OW 9425   9.968   2.628   2.127  0.0355 -0.1693 -0.2831
 2296SOL    HW1 9426  10.049   2.580   2.114  0.7639  1.2559 -1.1187
 2296SOL    HW2 9427   9.917   2.573   2.186  1.5018 -1.1987  0.0533
 2297SOL     OW 9428   1.602   1.691   0.077 -0.0599  0.6705  0.1812
 2297SOL    HW1 9429   1.637   1.780   0.085 -0.0320  0.7457 -0.7749
 2297SOL    HW2 9430   1.656   1.650   0.010 -0.1631 -0.0292  0.5254
 2298SOL     OW 9431   6.572   0.641   5.108  0.0870 -0.0351  0.0710
 2298SOL    HW1 9432   6.484   0.677   5.110 -0.0592 -0.4222  0.7837
 2298SOL    HW2 9433   6.628   0.713   5.139 -0.1276 -0.2219  0.8772
 2299SOL     OW 9434   2.199   8.594   1.188 -0.2939 -0.2865  0.0164
 2299SOL    HW1 9435   2.187   8.504   1.219 -2.5755  0.7024  2.1685
 2299SOL    HW2 9436   2.118   8.613   1.141  0.3026  0.5582 -0.6720
 2300SOL     OW 9437   5.569   9.849   6.860 -0.0700 -0.1043  0.1479
 2300SOL    HW1 9438   5.529   9.762   6.858  1.4650 -0.8112 -0.8332
 2300SOL    HW2 9439   5.623   9.852   6.781  0.3517  1.5114  0.4864
 2301SOL     OW 9440   6.976   4.285   1.605  0.2091 -0.2123  0.7077
 2301SOL    HW1 9441   6.987   4.378   1.584  2.9380 -0.6940 -0.2346
 2301SOL    HW2 9442   7.013   4.276   1.693  1.0525 -0.6153  0.3157
 2302SOL     OW 9443   9.814   5.313   9.515 -0.4146 -0.2503 -0.1539
 2302SOL    HW1 9444   9.734   5.306   9.568 -1.4523  1.3141 -1.4613
 2302SOL    HW2 9445   9.842   5.222   9.502 -0.3318 -0.6704  2.7435
 2303SOL     OW 9446   1.815   2.130   3.006  0.7127  0.0067  0.3945
 2303SOL    HW1 9447   1.865   2.190   3.061  2.5886 -0.2083 -1.0246
 2303SOL    HW2 9448   1.736   2.110   3.057  3.1694 -1.5875  3.7866
 2304SOL     OW 9449   1.336   5.126   9.080 -0.6125  0.0298  0.3026
 2304SOL    HW1 9450   1.341   5.166   9.166  1.1458  0.3885  0.0484
 2304SOL    HW2 9451   1.366   5.036   9.093  0.4454  0.3246 -0.0823
 2305SOL     OW 9452   4.681   5.725   7.309 -0.3954  0.0149 -0.2052
 2305SOL    HW1 9453   4.756   5.668   7.291 -0.7826 -0.6618  0.3300
 2305SOL    HW2 9454   4.623   5.673   7.363  0.4506  1.7732  2.5263
 2306SOL     OW 9455   5.847   6.126  10.034  0.0852 -0.8405  0.0070
 2306SOL    HW1 9456   5.789   6.106  10.107  1.1545 -0.5829  0.9459
 2306SOL    HW2 9457   5.932   6.143  10.075  0.2405  1.2659 -1.1174
 2307SOL     OW 9458   5.031   6.416   6.005  0.2108  0.3501 -0.1894
 2307SOL    HW1 9459   5.052   6.497   5.958  2.5692  0.7209  1.3851
 2307SOL    HW2 9460   5.056   6.346   5.945 -2.7626  0.7298 -1.9531
 2308SOL     OW 9461   2.753   0.806   1.322 -0.4098  0.3329  0.2831
 2308SOL    HW1 9462   2.695   0.797   1.398 -0.3954  0.0577  0.2610
 2308SOL    HW2 9463   2.789   0.894   1.330 -1.0663  0.6141  0.1262
 2309SOL     OW 9464   3.688   4.042   2.713  0.6422 -0.4548 -0.2048
 2309SOL    HW1 9465   3.646   4.027   2.797  0.3093  0.1617 -0.2594
 2309SOL    HW2 9466   3.644   3.982   2.653 -0.7365  0.7622 -0.4414
 2310SOL     OW 9467   4.446   6.037   3.259  0.3636 -0.3088 -0.1553
 2310SOL    HW1 9468   4.416   6.016   3.347 -1.0742 -0.8063 -0.7442
 2310SOL    HW2 9469   4.434   5.956   3.209  2.6158 -0.4823 -0.4539
 2311SOL     OW 9470   2.852   1.232   7.355 -0.0177 -0.2462 -0.0575
 2311SOL    HW1 9471   2.839   1.249   7.448 -0.0065  0.4371 -0.1785
 2311SOL    HW2 9472   2.877   1.317   7.318 -0.3430 -0.4427 -0.7435
 2312SOL     OW 9473   4.007  10.132   5.765 -0.0996  0.3838  0.3624
 2312SOL    HW1 9474   3.999  10.115   5.859  3.2388 -1.8272  0.3241
 2312SOL    HW2 9475   4.065  10.208   5.759 -0.8664  0.9555  0.0871
 2313SOL     OW 9476   7.162   5.489   2.700 -0.0574  0.2927 -0.5928
 2313SOL    HW1 9477   7.090   5.543   2.733 -0.2211  0.3351 -1.0196
 2313SOL    HW2 9478   7.201   5.542   2.631 -0.1471 -0.0865 -0.9376
 2314SOL     OW 9479   8.633   6.244   2.730  0.3777 -0.5302  0.1788
 2314SOL    HW1 9480   8.689   6.289   2.666  1.6143  0.5644  1.9770
 2314SOL    HW2 9481   8.547   6.239   2.687  1.1695  0.1901 -1.5558
 2315SOL     OW 9482   7.861   1.712   2.395  0.4792 -0.5945  0.4022
 2315SOL    HW1 9483   7.882   1.796   2.436 -0.4868  0.2738 -0.7937
 2315SOL    HW2 9484   7.944   1.679   2.362  0.9396 -0.3246  1.2908
 2316SOL     OW 9485   4.133   6.230   0.501  0.3788  0.2272 -0.3907
 2316SOL    HW1 9486   4.209   6.173   0.511 -0.0973 -0.5345 -1.1236
 2316SOL    HW2 9487   4.097   6.238   0.590  0.8302 -0.0850 -0.1810
 2317SOL     OW 9488   0.449   0.855   5.364  0.6439  0.4149 -0.3411
 2317SOL    HW1 9489   0.496   0.829   5.444  1.0550  1.1535 -0.3462
 2317SOL    HW2 9490   0.456   0.779   5.307  2.6366  0.8417 -0.7072
 2318SOL     OW 9491   4.658   0.991   4.424  0.3613  0.4145 -0.0585
 2318SOL    HW1 9492   4.634   0.995   4.517  0.6803 -2.9655  0.2393
 2318SOL    HW2 9493   4.616   0.911   4.392  0.4498  1.4014 -2.7958
 2319SOL     OW 9494   9.201   3.058   0.529 -0.5545 -0.1209 -0.0538
 2319SOL    HW1 9495   9.175   2.967   0.512  0.2776 -0.5498  0.9261
 2319SOL    HW2 9496   9.132   3.093   0.585 -0.2680 -0.5296  0.5653
 2320SOL     OW 9497   9.596   0.220   4.524  0.7152 -0.2019  0.0850
 2320SOL    HW1 9498   9.680   0.251   4.489  0.4132  0.0302 -0.4462
 2320SOL    HW2 9499   9.558   0.168   4.453 -0.9088  2.0832 -0.8203
 2321SOL     OW 9500   4.362   8.230   8.387  0.1266  0.3665  0.1594
 2321SOL    HW1 9501   4.273   8.260   8.406 -0.6242 -2.0012  0.5717
 2321SOL    HW2 9502   4.350   8.143   8.349  2.3055 -0.3822  1.0871
 2322SOL     OW 9503  10.105   4.940   2.839  0.1051  0.0683 -0.0543
 2322SOL    HW1 9504  10.069   4.978   2.758 -0.9224 -0.6170  0.0798
 2322SOL    HW2 9505  10.175   4.882   2.808 -0.0979  0.0202 -0.4331
 2323SOL     OW 9506   8.452   4.977   4.296 -0.9061 -0.0436  0.1025
 2323SOL    HW1 9507   8.511   4.996   4.369  1.2587 -0.0008 -1.6289
 2323SOL    HW2 9508   8.473   4.888   4.271 -1.1915  0.1717 -0.8944
 2324SOL     OW 9509   3.935   2.344   7.843  0.4440 -0.7561  0.8635
 2324SOL    HW1 9510   4.012   2.289   7.860  1.4143  0.8347  1.6742
 2324SOL    HW2 9511   3.969   2.433   7.838 -1.3130 -0.0548  0.9104
 2325SOL     OW 9512   0.317   1.601   7.352 -0.3541 -0.4215 -0.3555
 2325SOL    HW1 9513   0.335   1.552   7.432  0.0487 -1.1946 -0.9212
 2325SOL    HW2 9514   0.376   1.677   7.357 -1.7082  0.5687  1.0116
 2326SOL     OW 9515   0.786   3.503   9.546 -0.4850 -0.3433  0.5989
 2326SOL    HW1 9516   0.788   3.553   9.464 -1.6729  0.8163  1.2749
 2326SOL    HW2 9517   0.715   3.440   9.534 -0.0527 -0.8009  0.3903
 2327SOL     OW 9518   0.383   6.675   9.991  0.1230  0.0501  0.4292
 2327SOL    HW1 9519   0.404   6.689  10.083  0.4518  1.6064  0.1306
 2327SOL    HW2 9520   0.339   6.755   9.964 -1.4260 -1.0320 -0.3668
 2328SOL     OW 9521   5.970   4.254   6.601  0.4509 -0.0882  0.2714
 2328SOL    HW1 9522   6.033   4.185   6.582  0.0190 -0.0201 -1.5231
 2328SOL    HW2 9523   6.012   4.334   6.570 -0.4777 -0.0310 -0.8488
 2329SOL     OW 9524   3.221   3.276   2.488  0.3258  0.4486  0.3085
 2329SOL    HW1 9525   3.212   3.349   2.549 -0.7313 -0.2528  1.0011
 2329SOL    HW2 9526   3.298   3.298   2.436  2.1572  0.3438  2.8662
 2330SOL     OW 9527   6.617   7.854   2.870  0.5646 -0.2888 -0.1085
 2330SOL    HW1 9528   6.562   7.862   2.793  0.6446 -2.3858 -0.4117
 2330SOL    HW2 9529   6.585   7.922   2.930 -1.7666 -0.9186 -0.6007
 2331SOL     OW 9530   3.839   4.754   1.878 -0.1777 -0.4178 -0.4594
 2331SOL    HW1 9531   3.772   4.709   1.930  0.1189  0.2085  0.4758
 2331SOL    HW2 9532   3.790   4.801   1.812 -0.5013 -2.0841 -1.4417
 2332SOL     OW 9533   4.853   0.266   5.235 -0.5676  0.1815  0.3187
 2332SOL    HW1 9534   4.765   0.258   5.272  0.0250 -0.5909  1.5827
 2332SOL    HW2 9535   4.882   0.354   5.261 -0.5179 -0.0064  0.9123
 2333SOL     OW 9536   8.841   0.314   9.656  0.2040 -0.5069  0.0496
 2333SOL    HW1 9537   8.793   0.303   9.574 -1.0936 -0.3016  0.7563
 2333SOL    HW2 9538   8.821   0.404   9.683  1.5549 -0.1933  0.0025
 2334SOL     OW 9539   3.573   9.141   0.401  0.4846 -0.3770 -0.0434
 2334SOL    HW1 9540   3.519   9.068   0.371  0.1551  0.1297 -0.7087
 2334SOL    HW2 9541   3.663   9.113   0.385  0.2751  0.4005 -2.7595
 2335SOL     OW 9542   3.798  10.160   2.830 -0.4597 -0.1958  0.2496
 2335SOL    HW1 9543   3.783  10.119   2.745 -0.4314 -2.5950  1.3538
 2335SOL    HW2 9544   3.889  10.189   2.827 -0.6876  0.4232 -0.8138
 2336SOL     OW 9545   6.294   0.187   6.904  0.2733  0.5054 -0.3456
 2336SOL    HW1 9546   6.388   0.184   6.886  0.3736  0.3782  0.1627
 2336SOL    HW2 9547   6.273   0.097   6.932 -0.4920 -0.0997 -2.7880
 2337SOL     OW 9548   7.657   1.433   8.136 -0.5118  0.1062 -0.3710
 2337SOL    HW1 9549   7.615   1.462   8.217 -0.5889 -0.0448 -0.3564
 2337SOL    HW2 9550   7.748   1.463   8.144 -0.5920  0.3429 -0.3559
 2338SOL     OW 9551   3.053   3.623   8.117 -0.3729  0.5459 -0.8232
 2338SOL    HW1 9552   3.121   3.635   8.050  0.4345  0.5884 -0.0018
 2338SOL    HW2 9553   3.027   3.712   8.140 -0.2341  0.5445 -0.6594
 2339SOL     OW 9554   1.684   1.594   9.375 -0.4006  0.1542 -0.4563
 2339SOL    HW1 9555   1.626   1.651   9.325  0.2380  0.4197 -0.9143
 2339SOL    HW2 9556   1.626   1.539   9.427 -1.0686  0.0876 -1.2641
 2340SOL     OW 9557   2.880   7.421   5.406 -0.3235 -0.9099  0.5954
 2340SOL    HW1 9558   2.893   7.370   5.326 -0.4143  0.7703 -0.4943
 2340SOL    HW2 9559   2.966   7.420   5.449  0.0055 -0.8834 -0.0638
 2341SOL     OW 9560   2.379   1.710  10.030  0.5394 -0.0339  0.0881
 2341SOL    HW1 9561   2.350   1.788  10.076 -1.0350 -0.8979  0.5667
 2341SOL    HW2 9562   2.324   1.706   9.951  0.0918 -1.0699  0.4461
 2342SOL     OW 9563   1.283   1.085   2.509 -0.0563  0.4233  0.4151
 2342SOL    HW1 9564   1.260   1.163   2.459  0.7735 -0.6435 -1.6967
 2342SOL    HW2 9565   1.218   1.020   2.483 -0.5059  0.2616  1.8641
 2343SOL     OW 9566   6.302   8.242   0.992 -0.4456  0.0730  0.0277
 2343SOL    HW1 9567   6.284   8.299   1.067 -1.0436 -0.7210  0.4995
 2343SOL    HW2 9568   6.395   8.223   0.999 -0.5407 -0.1584  0.6869
 2344SOL     OW 9569   0.828   2.046   4.706 -0.1709  0.0650  0.1046
 2344SOL    HW1 9570   0.809   2.073   4.795 -1.5339  1.1767 -0.5030
 2344SOL    HW2 9571   0.910   1.996   4.712 -0.6757 -0.5303  2.0628
 2345SOL     OW 9572   6.635   4.999   4.397 -0.4536  0.0052 -0.3188
 2345SOL    HW1 9573   6.724   4.990   4.430 -1.2667  0.2625  2.0182
 2345SOL    HW2 9574   6.598   5.071   4.448 -2.0436 -0.1981 -1.1609
 2346SOL     OW 9575   6.534   5.485   0.253  0.1613  0.1314  0.3199
 2346SOL    HW1 9576   6.550   5.579   0.245  1.2644 -0.0240  0.6034
 2346SOL    HW2 9577   6.620   5.447   0.271 -0.0403 -1.0936 -1.1620
 2347SOL     OW 9578   0.789   5.098   7.348 -0.7052  0.0269 -0.2259
 2347SOL    HW1 9579   0.853   5.101   7.419 -0.0316 -1.3563 -0.7452
 2347SOL    HW2 9580   0.830   5.145   7.276 -0.3957 -0.5770 -0.4505
 2348SOL     OW 9581   2.142   5.154   9.024 -0.7213  0.5275 -0.3452
 2348SOL    HW1 9582   2.202   5.226   9.007 -0.9488  0.7552 -0.1694
 2348SOL    HW2 9583   2.082   5.154   8.950  0.7977 -1.0405 -1.6306
 2349SOL     OW 9584   4.451   8.054   3.794 -0.0956 -0.1917  0.2667
 2349SOL    HW1 9585   4.496   7.970   3.782 -0.0581 -0.2250  0.6259
 2349SOL    HW2 9586   4.521   8.119   3.795 -0.1815 -0.0763 -0.7458
 2350SOL     OW 9587   9.427   0.640   5.806  1.0307  0.1003  0.0977
 2350SOL    HW1 9588   9.335   0.621   5.790  0.9460 -1.3024  1.9642
 2350SOL    HW2 9589   9.463   0.662   5.720 -0.8393 -0.2272 -0.7905
 2351SOL     OW 9590   5.181   6.395   0.452  0.3363 -0.0263 -0.3570
 2351SOL    HW1 9591   5.149   6.362   0.536  0.2994  0.2036 -0.2818
 2351SOL    HW2 9592   5.260   6.343   0.435 -0.3756 -0.9771 -0.8072
 2352SOL     OW 9593   5.885   3.675   3.176  0.1926 -0.3046 -0.8934
 2352SOL    HW1 9594   5.907   3.760   3.215 -0.6305 -0.8440  0.7881
 2352SOL    HW2 9595   5.818   3.696   3.111 -1.3062  0.1576  0.7441
 2353SOL     OW 9596   4.766   6.359   5.412 -0.0622 -0.3782  0.1519
 2353SOL    HW1 9597   4.811   6.334   5.331 -0.7495 -0.9775 -0.0570
 2353SOL    HW2 9598   4.677   6.324   5.401 -0.1732 -0.4130  1.1492
 2354SOL     OW 9599   6.585   9.946   3.514 -0.4694 -0.1320 -0.0847
 2354SOL    HW1 9600   6.613   9.943   3.423 -2.1697 -0.0731 -0.6252
 2354SOL    HW2 9601   6.591   9.855   3.544  3.2711  0.3094  0.7800
 2355SOL     OW 9602   7.094   7.529   4.602  0.4328 -0.2966 -0.1001
 2355SOL    HW1 9603   7.160   7.586   4.642  0.8659  0.4806 -1.8941
 2355SOL    HW2 9604   7.117   7.441   4.634 -0.2917  0.4906  2.7339
 2356SOL     OW 9605   0.452   5.680   6.196  0.4988 -0.1390 -0.0329
 2356SOL    HW1 9606   0.492   5.767   6.200  0.2220  0.0452 -1.0355
 2356SOL    HW2 9607   0.525   5.620   6.183  0.5206  0.1355 -1.2203
 2357SOL     OW 9608   5.266   2.598   1.777 -0.6552  1.0056  0.1202
 2357SOL    HW1 9609   5.179   2.615   1.814 -0.1440  4.2963 -0.0330
 2357SOL    HW2 9610   5.253   2.604   1.682 -0.4205  0.5108  0.0538
 2358SOL     OW 9611   9.323   4.183   7.028  0.3678  0.2380 -0.0179
 2358SOL    HW1 9612   9.362   4.160   6.943  1.5824  1.6897  0.1250
 2358SOL    HW2 9613   9.236   4.215   7.006 -0.2118 -1.5916 -0.4888
 2359SOL     OW 9614   1.666   0.080   5.733 -0.2715  0.0624 -0.1155
 2359SOL    HW1 9615   1.726   0.138   5.780 -0.1541 -0.6727  0.6581
 2359SOL    HW2 9616   1.672  -0.003   5.780 -0.2122 -0.6660 -1.3907
 2360SOL     OW 9617   3.227   6.154   6.895  0.3488 -0.0861 -0.5842
 2360SOL    HW1 9618   3.300   6.217   6.898 -1.0571  1.5519  0.5653
 2360SOL    HW2 9619   3.236   6.104   6.976 -0.0601  0.4222 -0.2229
 2361SOL     OW 9620   2.776   0.690  10.112 -0.1865 -0.1268  0.3428
 2361SOL    HW1 9621   2.777   0.627  10.184  0.6677 -0.5170 -0.0022
 2361SOL    HW2 9622   2.683   0.703  10.093 -0.4131 -0.3036  1.2610
 2362SOL     OW 9623   9.119   2.441   2.158 -0.6310  0.2026  0.1523
 2362SOL    HW1 9624   9.063   2.440   2.081 -1.6757  0.2678  0.8992
 2362SOL    HW2 9625   9.073   2.386   2.222  0.0571  0.4140  0.8393
 2363SOL     OW 9626   9.825  10.010   7.832 -0.2571  0.4390  0.3871
 2363SOL    HW1 9627   9.903  10.020   7.886  0.2472  0.5957 -0.3701
 2363SOL    HW2 9628   9.752  10.020   7.893  0.3220 -0.4870  1.2233
 2364SOL     OW 9629   4.569   8.360   6.728 -0.2386  0.0685  0.8198
 2364SOL    HW1 9630   4.596   8.282   6.679  1.3934 -1.1251  3.4457
 2364SOL    HW2 9631   4.637   8.425   6.710 -1.2573  0.6773 -0.8659
 2365SOL     OW 9632   2.444  10.151  10.197 -0.5306 -0.7316  0.4303
 2365SOL    HW1 9633   2.403  10.093  10.262 -2.2977 -1.0494 -0.9098
 2365SOL    HW2 9634   2.409  10.237  10.218 -0.6956 -0.7492  0.2294
 2366SOL     OW 9635  10.181   9.068   2.280  0.4847  0.0371  0.3597
 2366SOL    HW1 9636  10.270   9.066   2.315  0.8021 -0.9595 -0.4839
 2366SOL    HW2 9637  10.169   8.982   2.240 -1.0571 -0.0292  0.9460
 2367SOL     OW 9638   1.466   7.758   2.320  0.0717  0.0003 -0.4505
 2367SOL    HW1 9639   1.555   7.745   2.290  0.0520  1.5650 -1.2463
 2367SOL    HW2 9640   1.428   7.821   2.258 -1.3232 -0.0322  0.3309
 2368SOL     OW 9641   6.362   4.311   6.665  0.1283 -0.6433  0.1959
 2368SOL    HW1 9642   6.315   4.374   6.719 -0.2018 -1.5866  1.0263
 2368SOL    HW2 9643   6.449   4.348   6.654 -0.3274  0.3664 -0.0383
 2369SOL     OW 9644   3.663   5.429   3.485 -0.1981  0.4410  0.3090
 2369SOL    HW1 9645   3.604   5.438   3.410 -0.8847 -2.4167  0.4583
 2369SOL    HW2 9646   3.742   5.388   3.449 -0.3763 -0.5672  1.0452
 2370SOL     OW 9647   9.527   3.120   0.069 -0.2517 -0.1332 -0.2436
 2370SOL    HW1 9648   9.472   3.183   0.115  0.5647  1.0902 -0.9160
 2370SOL    HW2 9649   9.616   3.141   0.098  0.1520 -0.1199 -1.4641
 2371SOL     OW 9650   2.250   0.498   5.110 -0.7383  0.2984  0.7255
 2371SOL    HW1 9651   2.210   0.411   5.112  1.3258 -0.6150  4.1671
 2371SOL    HW2 9652   2.227   0.537   5.194  0.1421  2.2838  0.0651
 2372SOL     OW 9653   4.476   7.094   1.431  0.4130  1.1741  0.5502
 2372SOL    HW1 9654   4.524   7.173   1.408  0.5142  0.2570 -2.7500
 2372SOL    HW2 9655   4.384   7.116   1.415  0.5653  0.2226 -1.9163
 2373SOL     OW 9656   5.158   7.618   1.982 -0.7467  0.0330 -0.2575
 2373SOL    HW1 9657   5.179   7.584   1.895  0.4608 -0.4519  0.2099
 2373SOL    HW2 9658   5.142   7.539   2.034 -0.9909  0.3067  0.0808
 2374SOL     OW 9659   6.171   8.504   4.200  0.5089 -0.0010  0.6490
 2374SOL    HW1 9660   6.176   8.421   4.153 -1.6505  0.1295  0.0986
 2374SOL    HW2 9661   6.247   8.505   4.257  1.0272 -1.9657  0.0245
 2375SOL     OW 9662   0.578   3.026   5.010  0.2387 -0.1592  0.4110
 2375SOL    HW1 9663   0.555   2.969   5.083 -0.8221  0.4499  0.5610
 2375SOL    HW2 9664   0.526   3.106   5.024 -1.4480 -0.7603 -2.0252
 2376SOL     OW 9665   0.668   1.203   6.578  0.4822  0.0018 -0.1649
 2376SOL    HW1 9666   0.586   1.251   6.590  1.3750  1.6796 -0.6692
 2376SOL    HW2 9667   0.657   1.157   6.495  0.0075  0.1208 -0.1715
 2377SOL     OW 9668   2.983   1.680   0.491  0.1710 -0.0944 -0.0062
 2377SOL    HW1 9669   3.008   1.590   0.469  1.5607 -0.4037  2.6276
 2377SOL    HW2 9670   2.891   1.675   0.516  0.1640 -0.7151 -0.1549
 2378SOL     OW 9671   5.953  10.085   0.979  0.4351 -0.3078  0.1812
 2378SOL    HW1 9672   6.049  10.083   0.983  0.4438  0.6159  0.4194
 2378SOL    HW2 9673   5.931  10.010   0.923  1.2030 -1.5456  1.5035
 2379SOL     OW 9674   8.203   3.464   2.203 -0.1845  0.0311 -0.1698
 2379SOL    HW1 9675   8.146   3.517   2.147 -0.2356 -0.4700 -0.5976
 2379SOL    HW2 9676   8.205   3.378   2.160 -0.6713 -0.5236  0.9067
 2380SOL     OW 9677   8.496   2.611   9.128  0.3368  0.0811 -0.1612
 2380SOL    HW1 9678   8.402   2.623   9.115 -0.0039 -0.9383  1.2627
 2380SOL    HW2 9679   8.508   2.516   9.129  1.5980  0.1999 -1.7591
 2381SOL     OW 9680   6.277   3.612   9.088  0.1578 -0.2307  0.1540
 2381SOL    HW1 9681   6.298   3.647   9.174 -0.1004  0.6217 -0.1261
 2381SOL    HW2 9682   6.200   3.660   9.060 -0.2684 -1.1012 -0.1991
 2382SOL     OW 9683   9.112   8.720   9.256 -0.2313 -0.5191  0.4062
 2382SOL    HW1 9684   9.059   8.648   9.221 -0.0099 -0.4813 -0.0114
 2382SOL    HW2 9685   9.083   8.797   9.208  1.6763 -0.8563 -1.3668
 2383SOL     OW 9686   7.503   3.962   8.689  0.1476  0.5196 -0.6673
 2383SOL    HW1 9687   7.565   3.966   8.616  0.1593 -0.2756 -0.7137
 2383SOL    HW2 9688   7.446   3.888   8.667 -0.1211  0.5545 -0.0874
 2384SOL     OW 9689   2.990   2.208   9.500 -0.0849 -0.2887 -0.4271
 2384SOL    HW1 9690   3.055   2.250   9.557 -0.4998  0.0460 -0.1951
 2384SOL    HW2 9691   2.917   2.187   9.559 -1.0957  1.3108 -1.0806
 2385SOL     OW 9692  10.169   5.731   7.883 -0.0337 -0.3572  0.1031
 2385SOL    HW1 9693  10.103   5.667   7.908 -0.0179 -0.8241 -1.0230
 2385SOL    HW2 9694  10.176   5.723   7.788  1.4023 -0.0795  0.1672
 2386SOL     OW 9695   4.922   6.360   2.559  0.4695  0.5285  0.0006
 2386SOL    HW1 9696   4.919   6.303   2.482  0.2197  2.3144 -1.3435
 2386SOL    HW2 9697   4.851   6.422   2.546  0.1312  0.5755  1.9309
 2387SOL     OW 9698   7.936   7.768   6.998  0.2825  0.4933 -0.1302
 2387SOL    HW1 9699   7.882   7.808   6.930  0.4496  0.1971 -0.4391
 2387SOL    HW2 9700   8.026   7.786   6.970  0.3443  1.1843  0.5023
 2388SOL     OW 9701   2.262   3.880   2.728  0.5018 -0.3622 -0.1680
 2388SOL    HW1 9702   2.309   3.962   2.744  0.9042 -0.7277  0.5145
 2388SOL    HW2 9703   2.309   3.839   2.655  1.3853 -0.8356  0.6613
 2389SOL     OW 9704   1.396   2.656   4.648  0.1802 -0.5280 -0.1495
 2389SOL    HW1 9705   1.307   2.689   4.631  1.2022  2.3019 -0.3920
 2389SOL    HW2 9706   1.452   2.716   4.599  2.3264 -1.3096  1.3002
 2390SOL     OW 9707   1.506   5.046   6.151  0.1180  1.1552 -0.1036
 2390SOL    HW1 9708   1.416   5.066   6.178 -0.5244 -0.0208 -1.3507
 2390SOL    HW2 9709   1.551   5.026   6.233 -1.2073 -0.0011  0.3511
 2391SOL     OW 9710   9.932   3.581   2.852 -0.0742 -0.0000  0.1570
 2391SOL    HW1 9711   9.992   3.623   2.790 -1.5768  0.4295 -1.0525
 2391SOL    HW2 9712   9.849   3.628   2.839 -1.0676 -1.5852  0.7094
 2392SOL     OW 9713   2.377   3.191   2.020  0.1545  0.5729 -0.1660
 2392SOL    HW1 9714   2.447   3.248   2.051  1.1420 -0.1752 -1.0222
 2392SOL    HW2 9715   2.368   3.212   1.927 -1.5958  1.5299  0.1848
 2393SOL     OW 9716   5.779   2.056   3.765  0.3570  0.6441  0.1797
 2393SOL    HW1 9717   5.712   1.992   3.790 -0.1732  0.6667 -1.1476
 2393SOL    HW2 9718   5.765   2.129   3.824  1.0763 -0.5147  1.8361
 2394SOL     OW 9719   3.440   7.018   0.935  0.3847  0.0812 -0.0134
 2394SOL    HW1 9720   3.384   7.057   0.868  1.2330  1.1996 -0.0944
 2394SOL    HW2 9721   3.379   6.991   1.004 -0.1821  2.6560  0.5855
 2395SOL     OW 9722   9.826   5.377   4.548  0.2434 -0.0497 -0.4999
 2395SOL    HW1 9723   9.794   5.299   4.593  0.4751  1.1783  1.8737
 2395SOL    HW2 9724   9.838   5.349   4.458 -1.4237 -2.2644 -0.0929
 2396SOL     OW 9725   2.847   6.524   4.112  0.0521  0.1946 -0.0836
 2396SOL    HW1 9726   2.913   6.565   4.169 -1.3487  2.7204 -0.1979
 2396SOL    HW2 9727   2.796   6.469   4.170  0.5961  0.3074  0.5121
 2397SOL     OW 9728   6.754   3.068   2.825 -0.6064  0.8867 -0.1552
 2397SOL    HW1 9729   6.740   3.011   2.901  0.0648  0.8766 -0.0342
 2397SOL    HW2 9730   6.747   3.157   2.860  1.9608  0.9094  0.3821
 2398SOL     OW 9731   0.347  10.185   3.049 -0.4982  0.3452 -0.4087
 2398SOL    HW1 9732   0.371  10.242   3.123  0.2875  0.6820 -0.9132
 2398SOL    HW2 9733   0.256  10.209   3.029 -0.8506 -0.0418  0.7118
 2399SOL     OW 9734   1.517   2.230   1.543 -0.7002 -0.2712 -0.4254
 2399SOL    HW1 9735   1.499   2.255   1.453 -0.0018 -0.9465 -0.7530
 2399SOL    HW2 9736   1.540   2.137   1.539  1.2382  0.1432  0.1725
 2400SOL     OW 9737   4.743   8.008   8.380  0.4290  0.5634 -0.2155
 2400SOL    HW1 9738   4.697   8.072   8.326  1.3063 -0.1636 -1.8626
 2400SOL    HW2 9739   4.826   8.050   8.402  0.3708  0.5819 -0.0331
 2401SOL     OW 9740   0.716   3.767   4.110 -0.3750  0.6128 -0.1249
 2401SOL    HW1 9741   0.752   3.855   4.115 -0.3965  0.5814  0.5852
 2401SOL    HW2 9742   0.624   3.780   4.087  0.0703  0.6909 -1.9934
 2402SOL     OW 9743   8.817   2.762   3.976  0.0201  0.3220  0.4891
 2402SOL    HW1 9744   8.829   2.827   3.906  1.1251 -0.4758 -0.0979
 2402SOL    HW2 9745   8.847   2.806   4.055 -0.2262  0.8863  0.2695
 2403SOL     OW 9746   2.118   2.480   3.257  0.1382  0.0469  0.4673
 2403SOL    HW1 9747   2.179   2.516   3.192  1.0451 -3.7528 -0.8673
 2403SOL    HW2 9748   2.169   2.475   3.338  0.8426 -0.7971 -0.0249
 2404SOL     OW 9749   5.271   7.672   6.308  0.0455  0.1442 -0.3861
 2404SOL    HW1 9750   5.230   7.629   6.233  0.6096 -0.0045 -0.6092
 2404SOL    HW2 9751   5.344   7.721   6.271 -0.6882  1.4413 -0.1621
 2405SOL     OW 9752   3.869   0.981   9.168  0.0754  0.1434 -0.2168
 2405SOL    HW1 9753   3.776   0.966   9.150 -0.6521  0.5495  2.8832
 2405SOL    HW2 9754   3.881   1.075   9.156  0.3402 -0.0442 -1.5414
 2406SOL     OW 9755   0.718   6.709   4.886 -0.4428  0.3138  0.0362
 2406SOL    HW1 9756   0.781   6.677   4.950 -0.6083  1.1720  0.6290
 2406SOL    HW2 9757   0.771   6.741   4.813 -0.2249  0.2226  0.1557
 2407SOL     OW 9758   2.002   3.395   2.046 -0.2111  0.3288 -0.0665
 2407SOL    HW1 9759   1.940   3.326   2.069 -0.7567  0.2056 -1.8592
 2407SOL    HW2 9760   1.968   3.432   1.965  1.9584  0.4070 -0.9709
 2408SOL     OW 9761   1.040   7.247   3.794  0.4253  0.1188 -0.0310
 2408SOL    HW1 9762   1.123   7.238   3.748  1.0480 -0.8128  1.2649
 2408SOL    HW2 9763   1.058   7.307   3.866  0.0956 -0.4577  0.5369
 2409SOL     OW 9764   5.781   7.178   4.530 -0.4871  0.4149  0.7874
 2409SOL    HW1 9765   5.788   7.188   4.435  0.1588  0.6231  0.8578
 2409SOL    HW2 9766   5.833   7.250   4.566  1.4623 -1.2072  1.2993
 2410SOL     OW 9767   7.182   0.989   0.058 -0.1459 -0.2808  0.4204
 2410SOL    HW1 9768   7.088   0.979   0.040 -0.2069 -0.9299  1.0367
 2410SOL    HW2 9769   7.212   0.900   0.078  0.3971  0.0562  1.1511
 2411SOL     OW 9770   4.804   5.535   1.040  0.0712  0.3760  0.5058
 2411SOL    HW1 9771   4.771   5.485   1.115 -2.8389  1.5116  0.0311
 2411SOL    HW2 9772   4.876   5.482   1.006 -0.0137 -1.2501  2.7628
 2412SOL     OW 9773   8.176   6.928   8.251  0.3050  0.3491 -0.1859
 2412SOL    HW1 9774   8.169   6.878   8.169  1.5787 -1.0293  0.5110
 2412SOL    HW2 9775   8.214   6.865   8.313 -1.9482  0.9537  1.8413
 2413SOL     OW 9776   7.768   3.407   3.806 -0.1345 -0.3927  0.1825
 2413SOL    HW1 9777   7.802   3.321   3.781  1.5210  0.2186  0.2540
 2413SOL    HW2 9778   7.785   3.413   3.900  2.9685  1.3682 -0.4081
 2414SOL     OW 9779   7.032   6.764   6.239  0.1319 -0.5222  0.2934
 2414SOL    HW1 9780   7.042   6.675   6.205  0.1381 -0.2937 -0.3129
 2414SOL    HW2 9781   7.045   6.755   6.333  1.3838 -0.9777  0.0941
 2415SOL     OW 9782   7.724   2.539   3.754 -0.0909 -0.3899  0.6168
 2415SOL    HW1 9783   7.686   2.561   3.839  0.3098  1.4292  0.3434
 2415SOL    HW2 9784   7.655   2.559   3.691 -0.3188 -1.5528  0.4823
 2416SOL     OW 9785   4.229   6.536   1.881 -0.2943  0.6288  0.0494
 2416SOL    HW1 9786   4.163   6.571   1.822 -1.3170 -1.3104  0.0264
 2416SOL    HW2 9787   4.309   6.531   1.828 -0.1207  2.8786  0.0522
 2417SOL     OW 9788   2.626   2.790   3.513 -0.8123 -0.6396  0.2336
 2417SOL    HW1 9789   2.604   2.714   3.568  3.3539 -1.1860  1.3313
 2417SOL    HW2 9790   2.679   2.846   3.570  1.3002  0.1008 -2.3724
 2418SOL     OW 9791   2.199   7.795   4.679 -0.5813  0.9906  0.6625
 2418SOL    HW1 9792   2.281   7.839   4.698  0.1102 -0.1588  0.4210
 2418SOL    HW2 9793   2.152   7.855   4.621  0.5483  1.1857 -0.0567
 2419SOL     OW 9794   1.066   0.049   8.740  0.1810 -0.0891  0.3758
 2419SOL    HW1 9795   1.146   0.057   8.687 -0.4417  2.1507 -0.2851
 2419SOL    HW2 9796   1.097   0.021   8.826  1.4823 -1.0201 -0.3710
 2420SOL     OW 9797   9.131   8.962   7.194 -0.0394  0.0749 -0.0556
 2420SOL    HW1 9798   9.113   8.947   7.286 -4.5066  2.1352 -0.4459
 2420SOL    HW2 9799   9.183   8.886   7.166 -2.0744 -2.6425  3.1864
 2421SOL     OW 9800   9.078   9.720   9.550 -0.6763 -0.5984  0.4641
 2421SOL    HW1 9801   9.033   9.686   9.473 -1.8355 -1.1469  1.3780
 2421SOL    HW2 9802   9.101   9.642   9.601  0.6654 -0.2813  0.3728
 2422SOL     OW 9803   2.850   4.652   7.764 -0.0233  0.4936 -0.3839
 2422SOL    HW1 9804   2.756   4.661   7.774 -0.0580 -0.3715  0.1101
 2422SOL    HW2 9805   2.872   4.710   7.691 -1.0617 -0.0179 -1.1086
 2423SOL     OW 9806   0.732   7.780   7.701  0.7642  0.0774 -0.1053
 2423SOL    HW1 9807   0.709   7.687   7.696 -0.3073  0.2546  1.1791
 2423SOL    HW2 9808   0.760   7.803   7.612  1.3564 -1.5544 -0.3472
 2424SOL     OW 9809   1.304   2.226   0.913 -0.0905 -0.2465 -0.3235
 2424SOL    HW1 9810   1.335   2.307   0.872  1.2885  0.2644  1.6739
 2424SOL    HW2 9811   1.221   2.251   0.955 -0.8270 -0.4468 -1.6306
 2425SOL     OW 9812   0.835   7.865   0.698  0.4587  0.0359 -0.0516
 2425SOL    HW1 9813   0.791   7.780   0.694  1.3797 -0.4382 -0.1618
 2425SOL    HW2 9814   0.785   7.915   0.762 -0.9675 -0.0779 -1.0594
 2426SOL     OW 9815   0.294   6.025   6.221  0.3140  0.1452 -0.4340
 2426SOL    HW1 9816   0.244   5.946   6.201 -1.1258  0.3932  2.0494
 2426SOL    HW2 9817   0.295   6.074   6.139 -0.9536 -1.2577 -1.3087
 2427SOL     OW 9818   2.988   3.390   3.129 -0.0568  0.0663 -0.1449
 2427SOL    HW1 9819   3.041   3.324   3.084 -1.1051 -1.7710  1.2271
 2427SOL    HW2 9820   3.052   3.449   3.169  0.9124 -0.5748 -0.7361
 2428SOL     OW 9821   2.342   2.092   5.165  0.1715 -0.3121 -0.0598
 2428SOL    HW1 9822   2.254   2.072   5.132  1.2577 -0.0360 -3.2092
 2428SOL    HW2 9823   2.342   2.187   5.178  0.6051 -0.0577 -1.8898
 2429SOL     OW 9824   4.370   9.202   5.365 -0.4214  0.1499  0.2081
 2429SOL    HW1 9825   4.409   9.195   5.452  0.9432  1.5798 -0.2688
 2429SOL    HW2 9826   4.312   9.277   5.371  1.3772  1.6533 -0.7209
 2430SOL     OW 9827   0.913   1.829   8.939  0.3753 -0.3695 -0.1361
 2430SOL    HW1 9828   0.888   1.834   8.846 -0.0993 -0.8769 -0.0423
 2430SOL    HW2 9829   0.968   1.751   8.944  1.6403  0.5095 -0.2629
 2431SOL     OW 9830   3.089   1.377   2.571 -0.3497  0.1674 -0.4134
 2431SOL    HW1 9831   3.135   1.309   2.619  0.1045 -1.2066 -2.6878
 2431SOL    HW2 9832   3.153   1.447   2.561  0.4893 -0.7128 -1.4135
 2432SOL     OW 9833   8.554   1.920   2.417  0.6365  0.5245 -0.3971
 2432SOL    HW1 9834   8.473   1.929   2.467 -0.3586 -3.3424 -1.1634
 2432SOL    HW2 9835   8.620   1.896   2.482 -0.0529 -1.7484 -0.5092
 2433SOL     OW 9836   4.490   5.022   5.909 -0.5186 -0.6513  0.1123
 2433SOL    HW1 9837   4.477   4.980   5.994  0.7530 -1.4611 -0.0824
 2433SOL    HW2 9838   4.445   4.965   5.846 -0.1929 -0.8618  0.0641
 2434SOL     OW 9839   9.447   3.474   4.202  0.3671  0.1883 -0.0194
 2434SOL    HW1 9840   9.518   3.539   4.200 -0.4327  1.0374 -3.4550
 2434SOL    HW2 9841   9.475   3.406   4.140 -0.8972 -0.4908  0.1376
 2435SOL     OW 9842   4.288   1.380   9.039 -0.3869  0.0970  0.2901
 2435SOL    HW1 9843   4.319   1.296   9.073  0.8921  0.8018  0.9008
 2435SOL    HW2 9844   4.247   1.359   8.955  0.0259 -1.1110  0.3929
 2436SOL     OW 9845   1.400   8.312   2.093 -0.1862  0.4046  0.4317
 2436SOL    HW1 9846   1.435   8.364   2.021  0.8815  1.7812  1.9123
 2436SOL    HW2 9847   1.306   8.329   2.092 -0.2750 -0.0617 -0.9820
 2437SOL     OW 9848   6.408   0.369   2.865 -0.5293 -0.1732 -0.1008
 2437SOL    HW1 9849   6.345   0.381   2.794 -1.3233  1.5813  0.8709
 2437SOL    HW2 9850   6.457   0.291   2.840 -1.6106 -0.2922 -1.9672
 2438SOL     OW 9851   1.493   0.094   4.406  0.6221 -0.0674 -0.5690
 2438SOL    HW1 9852   1.502   0.028   4.474  0.7583 -0.2554 -0.7676
 2438SOL    HW2 9853   1.497   0.045   4.324  1.3622  0.2435 -0.7322
 2439SOL     OW 9854   0.302   7.003   8.822 -0.4003  0.1026  0.5210
 2439SOL    HW1 9855   0.301   7.064   8.896 -0.5407  0.9678 -0.1968
 2439SOL    HW2 9856   0.247   7.044   8.756 -0.7539 -0.9518  0.1509
 2440SOL     OW 9857   4.771   7.661   0.996  0.5363  0.7032  0.1167
 2440SOL    HW1 9858   4.807   7.572   0.999  0.4516  0.7203  1.9637
 2440SOL    HW2 9859   4.676   7.648   0.994  0.4667  0.7581  2.1369
 2441SOL     OW 9860   2.097   7.450   1.427  0.6221 -0.3000  0.0617
 2441SOL    HW1 9861   2.047   7.529   1.446  0.7409 -0.1319 -0.3327
 2441SOL    HW2 9862   2.187   7.472   1.449  0.7284 -0.1730 -0.4897
 2442SOL     OW 9863   8.685   0.612   1.603 -0.3200 -0.2852 -0.1437
 2442SOL    HW1 9864   8.758   0.604   1.541 -1.3659  0.5879 -1.5111
 2442SOL    HW2 9865   8.702   0.545   1.669  2.0526  0.2990 -0.1148
 2443SOL     OW 9866   5.011   4.500   3.820 -0.5991  0.2052 -0.3051
 2443SOL    HW1 9867   5.051   4.530   3.901 -2.3151 -1.1729  1.0778
 2443SOL    HW2 9868   5.038   4.408   3.813 -0.0091  0.4625 -1.5937
 2444SOL     OW 9869   0.663   0.148   4.516  0.4786 -0.8262 -0.1614
 2444SOL    HW1 9870   0.634   0.065   4.552 -0.5441 -0.6453 -0.5656
 2444SOL    HW2 9871   0.749   0.162   4.556  0.6118 -2.0175 -0.0115
 2445SOL     OW 9872   5.641   7.075   7.018  0.5202  0.1593  0.7883
 2445SOL    HW1 9873   5.686   6.996   6.988 -1.3181 -1.2338  1.5885
 2445SOL    HW2 9874   5.603   7.113   6.939 -2.0779 -2.0582  0.8812
 2446SOL     OW 9875   4.884   8.921   3.855 -0.4145  0.1570 -0.3946
 2446SOL    HW1 9876   4.955   8.856   3.863 -1.8260 -1.7368 -2.5277
 2446SOL    HW2 9877   4.916   8.983   3.789 -0.4663 -0.3544 -0.9134
 2447SOL     OW 9878   6.756   9.726   1.331  0.2371  0.1195  0.1638
 2447SOL    HW1 9879   6.800   9.675   1.399  0.5863 -0.7607 -0.7099
 2447SOL    HW2 9880   6.690   9.776   1.378 -0.8775 -1.9748  0.9032
 2448SOL     OW 9881   6.918   1.348   5.754  0.1875 -0.1244  0.1726
 2448SOL    HW1 9882   7.013   1.334   5.755  0.3180  0.8182  1.3579
 2448SOL    HW2 9883   6.881   1.261   5.770  0.8286 -0.6158 -0.9358
 2449SOL     OW 9884   7.516   8.900   7.253  0.2705 -0.2618  0.4032
 2449SOL    HW1 9885   7.569   8.825   7.227 -0.4731 -1.2103  1.6252
 2449SOL    HW2 9886   7.531   8.910   7.347 -0.8439  0.1377  0.5556
 2450SOL     OW 9887   8.941   5.105   5.798  0.0937  0.3382  0.5010
 2450SOL    HW1 9888   8.846   5.093   5.800 -0.0195  1.0213 -0.2629
 2450SOL    HW2 9889   8.958   5.143   5.712  0.8484  1.8758  1.3037
 2451SOL     OW 9890   5.472   9.098   5.825 -0.4344 -0.1853 -0.0840
 2451SOL    HW1 9891   5.380   9.095   5.853  0.0803 -1.2914  1.5257
 2451SOL    HW2 9892   5.481   9.023   5.766 -0.7212  0.2899 -0.7337
 2452SOL     OW 9893   4.866   3.592   4.056 -0.2984 -0.0671 -0.0415
 2452SOL    HW1 9894   4.949   3.567   4.098 -0.6855 -0.9216  0.2339
 2452SOL    HW2 9895   4.877   3.684   4.033  0.5626 -0.0551  0.4012
 2453SOL     OW 9896   8.451   4.519   3.473  0.1960  0.1279  0.2335
 2453SOL    HW1 9897   8.392   4.528   3.398  0.4196 -0.1251  0.0243
 2453SOL    HW2 9898   8.538   4.511   3.433  0.3072 -0.0731  0.5182
 2454SOL     OW 9899   3.145   5.492   4.587 -0.2691  0.1420  0.1018
 2454SOL    HW1 9900   3.233   5.456   4.586 -1.7488 -3.6962 -0.4660
 2454SOL    HW2 9901   3.110   5.467   4.672 -1.2700  0.4107 -0.2214
 2455SOL     OW 9902   7.431   2.383   7.951 -0.2289 -0.2275 -0.0223
 2455SOL    HW1 9903   7.448   2.312   7.890 -1.1176  0.0520 -0.6031
 2455SOL    HW2 9904   7.414   2.340   8.035 -0.6835 -0.6936 -0.3567
 2456SOL     OW 9905   1.430   8.822   1.617  0.0134 -0.0144  0.2637
 2456SOL    HW1 9906   1.524   8.825   1.600  0.0066 -2.1118 -0.3174
 2456SOL    HW2 9907   1.421   8.775   1.700 -0.5106  0.4423  0.4714
 2457SOL     OW 9908   3.395   5.592   4.126  0.2422  0.2308 -0.6841
 2457SOL    HW1 9909   3.475   5.554   4.088  0.9926  0.2821  0.8215
 2457SOL    HW2 9910   3.390   5.679   4.087  1.1196  0.3563 -0.5422
 2458SOL     OW 9911   6.615   9.922   0.121  0.0252 -0.2816 -0.2749
 2458SOL    HW1 9912   6.642   9.846   0.069 -1.5352  1.0862 -3.1737
 2458SOL    HW2 9913   6.531   9.895   0.160  0.2681 -0.6338  0.0060
 2459SOL     OW 9914   3.186   5.267   5.694 -0.2401 -0.1905 -0.0069
 2459SOL    HW1 9915   3.263   5.220   5.664  0.6065  0.1391  1.5881
 2459SOL    HW2 9916   3.196   5.271   5.789 -1.1964  1.6464  0.0338
 2460SOL     OW 9917   1.008   9.472   8.961 -0.5034  0.4076  0.5734
 2460SOL    HW1 9918   1.051   9.472   9.047  1.2697  2.4000 -0.2793
 2460SOL    HW2 9919   1.006   9.564   8.935  0.2067 -0.3040 -2.1303
 2461SOL     OW 9920   5.840   6.019   6.295  0.2202  0.7294 -0.3400
 2461SOL    HW1 9921   5.794   6.080   6.238  0.9333  1.1452 -0.4696
 2461SOL    HW2 9922   5.771   5.960   6.327  0.0850 -0.6817 -3.0686
 2462SOL     OW 9923   5.656   5.943   0.468  0.0870  0.4462 -0.2204
 2462SOL    HW1 9924   5.612   5.926   0.552  1.0446  0.5684  0.3088
 2462SOL    HW2 9925   5.649   6.038   0.457  2.3998  0.8143  1.1047
 2463SOL     OW 9926   9.422   3.856   9.824  0.0306 -0.1870 -0.2813
 2463SOL    HW1 9927   9.485   3.928   9.816  0.2049 -0.1591  1.1798
 2463SOL    HW2 9928   9.356   3.889   9.885 -1.3885 -0.2427 -1.7436
 2464SOL     OW 9929   4.929   0.856   8.029  0.2856  0.6296  0.2938
 2464SOL    HW1 9930   4.934   0.833   8.122  0.9619 -0.4626 -0.0061
 2464SOL    HW2 9931   4.836   0.845   8.007  0.3735 -0.5840  0.4809
 2465SOL     OW 9932   7.566   4.596   7.335  0.0201 -0.1772 -0.2127
 2465SOL    HW1 9933   7.477   4.594   7.371  1.0152 -1.2450  2.3618
 2465SOL    HW2 9934   7.601   4.509   7.353  2.5759  1.1317  1.5959
 2466SOL     OW 9935   1.252   0.161   6.404 -0.3293  0.1616  0.3947
 2466SOL    HW1 9936   1.237   0.113   6.485 -1.7558 -0.2058 -0.0760
 2466SOL    HW2 9937   1.193   0.236   6.410 -0.9478 -0.2400 -0.6086
 2467SOL     OW 9938   1.600   5.462   7.538 -0.9664 -0.1946 -0.6131
 2467SOL    HW1 9939   1.566   5.505   7.616  1.5523 -1.4640  1.2569
 2467SOL    HW2 9940   1.559   5.375   7.538 -2.3212  0.4216 -1.7188
 2468SOL     OW 9941   2.382   8.481   5.348 -0.5431  0.2433 -0.3016
 2468SOL    HW1 9942   2.358   8.573   5.337  0.4989  0.6279  0.6014
 2468SOL    HW2 9943   2.431   8.460   5.268  1.0444  1.0757  0.4415
 2469SOL     OW 9944   2.089   9.406   3.696 -0.6460  0.2809 -0.3061
 2469SOL    HW1 9945   2.038   9.345   3.642 -0.0270 -0.8969  0.4132
 2469SOL    HW2 9946   2.087   9.488   3.647  0.1901 -0.8485 -2.3324
 2470SOL     OW 9947   5.625   0.958   4.053 -0.0297  0.5432 -0.0024
 2470SOL    HW1 9948   5.691   1.003   4.001  1.1541 -2.0920 -0.8585
 2470SOL    HW2 9949   5.656   0.966   4.143 -0.0320  1.7284 -0.1006
 2471SOL     OW 9950   1.245   1.902   0.472  0.6350 -0.1058 -0.2789
 2471SOL    HW1 9951   1.223   1.972   0.533  0.8479 -0.0652 -0.2461
 2471SOL    HW2 9952   1.164   1.853   0.461 -0.1829  1.5924 -2.1987
 2472SOL     OW 9953   6.715   5.635   9.988 -0.1858 -0.2380 -0.0836
 2472SOL    HW1 9954   6.727   5.608   9.897 -0.1321  2.1791 -0.8193
 2472SOL    HW2 9955   6.623   5.660   9.994 -0.2169 -0.4917  0.5550
 2473SOL     OW 9956   2.474   9.631   7.435 -0.2685  0.2664 -0.4539
 2473SOL    HW1 9957   2.384   9.657   7.452  0.0238  1.1539 -0.1953
 2473SOL    HW2 9958   2.510   9.703   7.382  0.7164  0.6444  0.7064
 2474SOL     OW 9959   4.826   3.005   7.441  0.1535 -0.1971 -0.1934
 2474SOL    HW1 9960   4.756   3.053   7.398 -1.1675 -0.7206  1.3447
 2474SOL    HW2 9961   4.897   3.068   7.449 -0.7207  0.8120 -0.3038
 2475SOL     OW 9962   6.799   5.785   6.108  0.6937  0.2475 -0.0246
 2475SOL    HW1 9963   6.704   5.777   6.102  0.8551 -1.0549 -1.0274
 2475SOL    HW2 9964   6.816   5.804   6.201 -0.5358  0.5012  0.1556
 2476SOL     OW 9965   9.974   6.509   6.751  0.0166  0.2920 -0.0147
 2476SOL    HW1 9966   9.994   6.420   6.779  0.3303  0.0075 -1.1179
 2476SOL    HW2 9967   9.993   6.564   6.827  0.2851 -0.5333  0.5089
 2477SOL     OW 9968   2.066   8.555   9.441  0.1674 -0.5816 -0.1220
 2477SOL    HW1 9969   2.100   8.524   9.357 -1.1254 -1.8917 -0.1798
 2477SOL    HW2 9970   2.085   8.484   9.503  0.0250 -0.1487  0.4233
 2478SOL     OW 9971   1.629   6.439   7.510 -0.1857  0.2850  0.0684
 2478SOL    HW1 9972   1.558   6.430   7.574 -2.0049  0.8035 -1.8484
 2478SOL    HW2 9973   1.631   6.356   7.464 -0.4703  0.7553 -0.8059
 2479SOL     OW 9974   9.390   4.470   3.252  0.0156  0.4819  0.1442
 2479SOL    HW1 9975   9.454   4.404   3.226  0.4343  0.5527  0.9918
 2479SOL    HW2 9976   9.306   4.433   3.225  0.4417  0.6228 -1.4467
 2480SOL     OW 9977   9.878   6.197   2.501 -0.1570 -0.8590 -0.4443
 2480SOL    HW1 9978   9.828   6.274   2.473  0.3822 -0.1605  0.5083
 2480SOL    HW2 9979   9.814   6.141   2.544 -0.1048  0.0847  0.8708
 2481SOL     OW 9980   9.660   8.847   6.826  0.3623  0.5869 -0.3710
 2481SOL    HW1 9981   9.609   8.792   6.885  0.7951 -0.6097 -1.0959
 2481SOL    HW2 9982   9.626   8.827   6.739  1.1368  0.7869 -0.7274
 2482SOL     OW 9983   6.216   7.504   1.162 -0.4508  0.3669  0.1788
 2482SOL    HW1 9984   6.275   7.462   1.099 -0.0006  1.5631 -0.2030
 2482SOL    HW2 9985   6.130   7.467   1.143 -0.2033  0.2336 -0.6926
 2483SOL     OW 9986   1.072   0.347   5.591 -0.0845 -0.3268  0.1469
 2483SOL    HW1 9987   1.132   0.343   5.665 -3.3043  0.5681  2.8938
 2483SOL    HW2 9988   1.050   0.440   5.583  0.4942 -0.3596 -2.1769
 2484SOL     OW 9989   0.769   9.735   3.913 -0.0396 -0.3697 -0.3934
 2484SOL    HW1 9990   0.752   9.707   4.003 -1.2001  1.5799  0.0042
 2484SOL    HW2 9991   0.859   9.706   3.897  0.4355 -0.1394  1.6293
 2485SOL     OW 9992   4.756   8.807   4.532  0.0021  0.7013  0.2300
 2485SOL    HW1 9993   4.725   8.765   4.452  0.2375 -0.4879  0.7645
 2485SOL    HW2 9994   4.778   8.897   4.504 -2.0037  0.9694 -0.5587
 2486SOL     OW 9995   1.700   4.776   1.864  0.4529  0.2437 -0.2211
 2486SOL    HW1 9996   1.680   4.727   1.784  0.1481  0.3314 -0.1993
 2486SOL    HW2 9997   1.779   4.825   1.843 -0.3150  1.2301 -0.8823
 2487SOL     OW 9998   0.760   4.847   0.254  0.7139 -1.1325 -0.2600
 2487SOL    HW1 9999   0.789   4.842   0.346  1.4477  0.4125 -0.3833
 2487SOL    HW210000   0.670   4.877   0.259  0.8469 -0.7649 -0.0490
 2488SOL     OW10001   2.865   1.047   6.744  0.0997  0.6336  0.4368
 2488SOL    HW110002   2.918   1.125   6.758  0.8032  0.3643 -0.6470
 2488SOL    HW210003   2.918   0.992   6.685 -0.2262 -0.8223  1.4839
 2489SOL     OW10004   1.036   2.387   9.246 -0.6055 -0.0757 -0.5529
 2489SOL    HW110005   0.971   2.435   9.297  0.6467  0.5688  0.4756
 2489SOL    HW210006   0.985   2.323   9.196 -2.1628  1.3666 -0.8696
 2490SOL     OW10007   3.412   2.261   7.444 -0.2001  0.8982 -0.1462
 2490SOL    HW110008   3.444   2.208   7.516  1.2278  1.3433 -0.4478
 2490SOL    HW210009   3.319   2.240   7.438  0.5917 -2.5357 -1.1210
 2491SOL     OW10010   8.802   7.166   1.907  0.1593  0.3455 -0.7098
 2491SOL    HW110011   8.861   7.182   1.833  1.8883  0.1630  0.6072
 2491SOL    HW210012   8.824   7.078   1.936 -2.0223 -0.4278 -1.3041
 2492SOL     OW10013   9.160   6.982   7.430  0.4403 -0.1933  0.1210
 2492SOL    HW110014   9.082   7.008   7.480  0.9125  0.0000  0.7558
 2492SOL    HW210015   9.165   6.887   7.444  1.2754  0.0325  1.4640
 2493SOL     OW10016   1.337   7.666   9.709  0.2106 -0.1714 -0.4861
 2493SOL    HW110017   1.402   7.705   9.650 -0.7369  2.2588  0.0007
 2493SOL    HW210018   1.346   7.717   9.790 -1.1258 -0.9594  0.1706
 2494SOL     OW10019   1.184   1.558   1.396  0.1784 -0.3046 -0.0010
 2494SOL    HW110020   1.133   1.638   1.403 -0.8596 -0.8470 -1.1285
 2494SOL    HW210021   1.161   1.507   1.473  0.9286  0.5280  0.7773
 2495SOL     OW10022   7.151   0.936   5.184  0.8069  0.1812  0.2319
 2495SOL    HW110023   7.073   0.988   5.164 -0.4551 -1.6851  0.1971
 2495SOL    HW210024   7.168   0.954   5.277  0.9450  1.3495 -0.0023
 2496SOL     OW10025   4.580   6.475   1.252  0.2833 -0.0094  0.3146
 2496SOL    HW110026   4.620   6.401   1.296 -0.2857 -0.7016 -0.3286
 2496SOL    HW210027   4.511   6.437   1.198 -1.7740  1.2184  1.9674
 2497SOL     OW10028   0.946   0.341   4.168 -0.4805 -0.1356 -0.3474
 2497SOL    HW110029   0.984   0.253   4.165 -1.0836 -0.3968 -0.4163
 2497SOL    HW210030   0.952   0.367   4.259  1.3156  0.4683 -0.6191
 2498SOL     OW10031   3.745   2.244   2.225  0.1238 -0.2067  0.3871
 2498SOL    HW110032   3.727   2.173   2.164  0.4389 -0.4599  0.5885
 2498SOL    HW210033   3.695   2.222   2.304 -2.2103  1.3354 -0.6092
 2499SOL     OW10034   7.567   9.797   6.624 -0.2226 -0.2340  0.2797
 2499SOL    HW110035   7.608   9.731   6.680 -1.6148 -1.1860  0.2105
 2499SOL    HW210036   7.533   9.863   6.685 -0.1469 -0.3498  0.4460
 2500SOL     OW10037   9.813   2.494   2.308  0.4514 -0.1697  0.0792
 2500SOL    HW110038   9.837   2.408   2.342  1.3581 -0.0735 -0.3051
 2500SOL    HW210039   9.725   2.482   2.272  0.7031 -1.0266 -0.2732
 2501SOL     OW10040   2.897   3.860   3.684  0.7160 -0.5801 -0.0961
 2501SOL    HW110041   2.840   3.851   3.760  0.2743  0.6795 -0.2613
 2501SOL    HW210042   2.849   3.818   3.612  0.6254 -0.7675  0.0743
 2502SOL     OW10043   6.526   7.936   4.691 -0.2012 -0.1204 -0.2189
 2502SOL    HW110044   6.529   7.841   4.696 -1.0913 -0.2095 -1.2823
 2502SOL    HW210045   6.470   7.963   4.764  1.3860 -0.2919  1.0958
 2503SOL     OW10046   1.714   1.255   0.994  0.1390  0.8253 -0.3506
 2503SOL    HW110047   1.727   1.187   1.059 -0.5554 -0.1660 -1.2270
 2503SOL    HW210048   1.623   1.282   1.005 -0.0127  0.5779 -0.9704
 2504SOL     OW10049   8.360   3.830   0.421  0.9048  0.3565  0.0617
 2504SOL    HW110050   8.321   3.743   0.411  0.7434  0.4734 -0.3672
 2504SOL    HW210051   8.440   3.825   0.368  1.2294  0.2669  0.5570
 2505SOL     OW10052   7.758   9.033   1.804  0.8260 -0.4093  0.2919
 2505SOL    HW110053   7.845   9.059   1.833  0.0698  1.9132  0.5591
 2505SOL    HW210054   7.698   9.078   1.864 -0.5613 -2.6331  0.6415
 2506SOL     OW10055   8.154   5.709   7.734  0.1530  0.1825  0.6401
 2506SOL    HW110056   8.166   5.685   7.826  0.0833  2.6106  1.3374
 2506SOL    HW210057   8.210   5.787   7.723  2.3779 -1.7305 -2.1513
 2507SOL     OW10058   8.795   1.803   5.439  0.7011 -0.3623 -0.5108
 2507SOL    HW110059   8.770   1.773   5.527 -1.2324 -1.1073 -1.2715
 2507SOL    HW210060   8.753   1.740   5.381 -1.3522  2.3537 -2.0972
 2508SOL     OW10061   8.319   1.565   0.956  0.5349  0.2117 -0.2733
 2508SOL    HW110062   8.322   1.630   1.026 -0.1065  0.9505 -0.9216
 2508SOL    HW210063   8.280   1.611   0.882  0.8309 -0.6784 -0.9949
 2509SOL     OW10064   0.278   0.682  10.042 -0.1162 -0.3138 -0.2373
 2509SOL    HW110065   0.214   0.650   9.978  0.0442  0.5194 -0.8252
 2509SOL    HW210066   0.314   0.761  10.001  1.1713 -0.6932  0.1533
 2510SOL     OW10067   8.216   1.937   5.607 -0.4491 -0.2099  0.1682
 2510SOL    HW110068   8.242   1.891   5.687  2.2583 -1.1484 -1.1835
 2510SOL    HW210069   8.207   1.867   5.542  1.8672  0.9271 -1.4415
 2511SOL     OW10070   0.954   9.524   6.225 -0.2844 -0.2655 -0.0735
 2511SOL    HW110071   0.887   9.587   6.200 -2.0103 -1.6883  0.8700
 2511SOL    HW210072   0.929   9.495   6.312  2.6869  0.6317  1.1208
 2512SOL     OW10073   2.779   3.057   6.886  0.0365  0.0206 -0.2581
 2512SOL    HW110074   2.727   3.127   6.847  1.5233  0.5792 -1.2828
 2512SOL    HW210075   2.789   2.992   6.816  1.1930  0.1884 -0.2665
 2513SOL     OW10076   5.447   8.395   2.994 -0.6614  0.1558 -0.6450
 2513SOL    HW110077   5.459   8.332   3.065  0.2659  0.0788 -0.8667
 2513SOL    HW210078   5.383   8.354   2.937 -0.1082 -0.5626 -0.7553
 2514SOL     OW10079   6.541   8.713   8.331 -0.2979  0.6519 -0.1352
 2514SOL    HW110080   6.449   8.688   8.334 -0.3802  1.0345  0.9795
 2514SOL    HW210081   6.540   8.809   8.328  0.0682  0.6877  0.7662
 2515SOL     OW10082   0.452   3.842   2.939  0.2806 -0.0689 -0.7845
 2515SOL    HW110083   0.404   3.819   2.860  0.6611  2.1035 -1.6820
 2515SOL    HW210084   0.431   3.934   2.954  4.6650  1.1739 -1.6113
 2516SOL     OW10085   4.894   5.229   1.508 -0.0848 -0.4001  0.4008
 2516SOL    HW110086   4.799   5.219   1.502 -0.0288 -0.3507 -0.5420
 2516SOL    HW210087   4.909   5.323   1.495  0.0555 -0.3214  1.0936
 2517SOL     OW10088   8.212   2.288   3.258 -0.1380  0.1711  1.0917
 2517SOL    HW110089   8.267   2.215   3.288 -0.3468 -0.7293 -0.6643
 2517SOL    HW210090   8.274   2.359   3.242  0.3069 -0.2707  0.8327
 2518SOL     OW10091   7.599   6.151   2.377 -0.2407  0.1444  0.1059
 2518SOL    HW110092   7.549   6.229   2.400 -0.6952 -0.1644  0.1820
 2518SOL    HW210093   7.648   6.176   2.299  0.9752  1.0572  1.1343
 2519SOL     OW10094   4.545   0.211   6.449 -0.4520  0.8890 -0.1661
 2519SOL    HW110095   4.483   0.268   6.495  0.6979  1.8670  0.1718
 2519SOL    HW210096   4.593   0.167   6.519 -0.5779  0.3125 -0.4346
 2520SOL     OW10097   9.414   4.663   2.612  0.5066  0.2018 -0.0182
 2520SOL    HW110098   9.476   4.593   2.592  0.3029 -0.4311  1.5388
 2520SOL    HW210099   9.331   4.633   2.575  0.5771 -0.0595  0.0373
 2521SOL     OW10100   7.989   4.522   2.801  0.1075 -0.3362 -0.0248
 2521SOL    HW110101   7.896   4.503   2.815 -1.0662  3.6719 -1.4577
 2521SOL    HW210102   7.992   4.617   2.790  3.9540 -0.6912 -3.2046
 2522SOL     OW10103   0.221   9.271   5.024 -0.0760  0.2273  0.6309
 2522SOL    HW110104   0.205   9.351   5.074 -1.4635  0.3927 -0.0506
 2522SOL    HW210105   0.144   9.216   5.041 -0.9061  0.5749 -1.8496
 2523SOL     OW10106  10.135   2.041   0.778 -0.2554 -0.0845  0.6722
 2523SOL    HW110107  10.053   2.091   0.780 -0.9912 -1.3323  2.3519
 2523SOL    HW210108  10.200   2.102   0.812 -0.1730  1.3721 -1.8899
 2524SOL     OW10109   6.577   3.029   2.174  0.5961  0.3845  0.0063
 2524SOL    HW110110   6.566   2.970   2.249 -1.2778 -1.1833 -1.4274
 2524SOL    HW210111   6.630   2.979   2.111  1.1156  1.2112 -0.2283
 2525SOL     OW10112   4.903   4.088   5.713  0.7390 -0.2717  0.6763
 2525SOL    HW110113   4.865   4.124   5.794 -0.2378 -0.7502  0.4337
 2525SOL    HW210114   4.845   4.119   5.644  0.1985 -1.8555  0.4033
 2526SOL     OW10115   8.699   6.275   8.384  0.2291  0.4309 -0.2915
 2526SOL    HW110116   8.761   6.259   8.313  0.5240  0.1364  0.0314
 2526SOL    HW210117   8.655   6.191   8.396 -0.5873  0.7695 -0.8533
 2527SOL     OW10118   7.373   9.711   5.753  0.0031 -0.3105  0.2225
 2527SOL    HW110119   7.467   9.729   5.760  0.0817 -1.1682  1.3344
 2527SOL    HW210120   7.368   9.624   5.714 -0.3627  0.6252 -1.8855
 2528SOL     OW10121   6.869   8.328   4.084 -0.1714  0.0520  0.9398
 2528SOL    HW110122   6.815   8.322   4.006 -0.7868  0.9192  1.2848
 2528SOL    HW210123   6.837   8.257   4.141 -0.2315 -0.1063  0.7061
 2529SOL     OW10124   5.168   4.078   4.087  0.3248  0.0706  0.3521
 2529SOL    HW110125   5.244   4.066   4.144 -0.2014 -0.0441  1.0424
 2529SOL    HW210126   5.160   3.994   4.040  0.4891  0.0061  0.4365
 2530SOL     OW10127   4.077   3.434   1.354 -0.6807  0.1886 -0.1350
 2530SOL    HW110128   3.994   3.466   1.319 -0.9818 -1.6230 -1.1486
 2530SOL    HW210129   4.054   3.389   1.435 -1.0213 -2.2470 -1.5428
 2531SOL     OW10130  10.058   0.792   6.744  0.0223  0.0109  0.1366
 2531SOL    HW110131  10.066   0.800   6.649  0.9749  3.6413  0.4471
 2531SOL    HW210132  10.146   0.769   6.774 -0.2019 -0.8033  0.1820
 2532SOL     OW10133   5.019  10.139   4.184  0.2335  0.5245  0.2349
 2532SOL    HW110134   4.943  10.194   4.203 -0.7702 -0.4284 -0.9910
 2532SOL    HW210135   5.069  10.139   4.266 -0.6616  1.8070  0.8034
 2533SOL     OW10136   8.296   1.131   8.034  0.3890  0.0733  0.2379
 2533SOL    HW110137   8.254   1.140   7.948 -1.9966 -1.8115  1.1713
 2533SOL    HW210138   8.361   1.062   8.021 -0.1622 -0.4106  0.0099
 2534SOL     OW10139   5.462   4.396   4.715  0.1554  0.0110 -0.3443
 2534SOL    HW110140   5.548   4.399   4.756 -0.6917 -0.0871  1.5165
 2534SOL    HW210141   5.441   4.303   4.709  0.2625  0.0289 -0.9404
 2535SOL     OW10142   2.961   4.459   9.159  0.0040 -0.3869  0.2839
 2535SOL    HW110143   3.043   4.427   9.197  0.3698  1.3137  0.9935
 2535SOL    HW210144   2.976   4.455   9.064  1.0112  0.1218  0.4078
 2536SOL     OW10145   3.412   5.883   6.820  0.3124  0.2507  0.3758
 2536SOL    HW110146   3.450   5.857   6.904  0.1382  2.3661  1.1361
 2536SOL    HW210147   3.488   5.904   6.765  0.3708  0.8132  0.6666
 2537SOL     OW10148   9.021   1.980   0.526 -0.4721 -0.0764 -0.4706
 2537SOL    HW110149   9.046   1.901   0.575 -0.6436  0.5270  0.6129
 2537SOL    HW210150   9.029   2.051   0.590 -2.9334  0.4232 -0.6654
 2538SOL     OW10151   2.070   0.122   2.312 -0.0791 -0.2748  0.3359
 2538SOL    HW110152   2.070   0.169   2.395 -2.7456 -0.4637  0.5043
 2538SOL    HW210153   2.072   0.191   2.245  0.8594 -0.0904  0.5473
 2539SOL     OW10154   9.722   7.875   8.561  0.1439 -0.0622 -0.0187
 2539SOL    HW110155   9.683   7.846   8.644  0.0726 -0.0122 -0.0334
 2539SOL    HW210156   9.659   7.939   8.527 -0.3241 -0.8253 -0.6064
 2540SOL     OW10157   3.641   8.206   8.171 -0.1208 -0.0700 -0.0276
 2540SOL    HW110158   3.573   8.238   8.230 -0.8672 -1.3266 -0.1829
 2540SOL    HW210159   3.706   8.277   8.168 -1.6967  1.3955 -0.3404
 2541SOL     OW10160   3.265   4.078   8.593 -0.0239  0.3197  0.0931
 2541SOL    HW110161   3.236   4.144   8.530  0.1628 -1.0397 -1.4570
 2541SOL    HW210162   3.359   4.093   8.601  0.0043  0.2889 -0.1852
 2542SOL     OW10163   1.610   0.888   9.212 -0.0588  0.0706  0.2452
 2542SOL    HW110164   1.609   0.828   9.137 -4.0239  2.2068 -1.5480
 2542SOL    HW210165   1.624   0.974   9.174 -0.4261  0.9902  2.1434
 2543SOL     OW10166   3.014   1.462   8.229 -0.5628  0.8383 -0.5865
 2543SOL    HW110167   3.077   1.436   8.162 -1.4310 -1.7794 -0.4227
 2543SOL    HW210168   2.929   1.458   8.185 -1.2848 -2.1909  0.9629
 2544SOL     OW10169   9.180   9.954   9.085  0.6563 -0.0023  0.1524
 2544SOL    HW110170   9.213   9.886   9.143  0.4308  0.0183  0.3041
 2544SOL    HW210171   9.229  10.033   9.109  0.1862  0.1344  0.6788
 2545SOL     OW10172   5.577   9.411   0.605 -0.0839  0.0841 -0.1730
 2545SOL    HW110173   5.498   9.360   0.624 -1.0926  1.4573 -0.6338
 2545SOL    HW210174   5.646   9.366   0.654 -1.2323 -0.8436  0.6407
 2546SOL     OW10175   4.512   7.008   9.948  0.0840  0.2427  0.0464
 2546SOL    HW110176   4.531   7.100   9.965 -1.2572  0.6647 -0.7208
 2546SOL    HW210177   4.584   6.978   9.892  1.0821  0.5233  1.1385
 2547SOL     OW10178   2.514   2.795   3.258  0.0037 -0.1207  0.1934
 2547SOL    HW110179   2.594   2.793   3.206  0.0988 -0.7454  0.3591
 2547SOL    HW210180   2.544   2.784   3.348 -0.1902  0.6082  0.3511
 2548SOL     OW10181   7.510   6.514   9.067 -0.0363 -0.4070 -0.2484
 2548SOL    HW110182   7.535   6.562   8.988 -0.8156 -1.8111 -1.3780
 2548SOL    HW210183   7.422   6.547   9.088 -0.8776 -1.8085 -1.4476
 2549SOL     OW10184   8.484   1.009   0.471  0.5834  0.3051 -0.0782
 2549SOL    HW110185   8.563   1.001   0.525  1.4033  0.1427 -1.2864
 2549SOL    HW210186   8.415   1.030   0.533  1.7333  1.3023  0.8867
 2550SOL     OW10187   0.754   6.010   7.590 -0.6871 -0.1212  0.6916
 2550SOL    HW110188   0.697   6.021   7.666 -2.8676 -1.0764 -0.7587
 2550SOL    HW210189   0.785   5.920   7.596 -0.5803 -0.0894  0.6212
 2551SOL     OW10190  10.118   9.049   7.828 -0.3354  0.4813 -0.0299
 2551SOL    HW110191  10.028   9.038   7.859 -0.7470 -0.0012 -1.3546
 2551SOL    HW210192  10.168   9.074   7.906 -1.0609 -2.1316  1.3265
 2552SOL     OW10193   3.992   3.910   2.422 -0.0732  0.6237 -0.5960
 2552SOL    HW110194   4.082   3.926   2.394  0.1224 -2.0392 -1.6069
 2552SOL    HW210195   4.000   3.845   2.492 -1.2847 -0.9418 -1.8663
 2553SOL     OW10196   5.337   9.043   0.206  0.0919 -0.7047  0.1035
 2553SOL    HW110197   5.393   9.071   0.133 -1.7475  0.3720 -0.9472
 2553SOL    HW210198   5.313   8.953   0.185  0.7203 -0.8679  0.0969
 2554SOL     OW10199   6.757   8.305   3.459 -0.2536 -0.0410  0.0880
 2554SOL    HW110200   6.838   8.338   3.420 -0.6765  1.3742  0.3900
 2554SOL    HW210201   6.699   8.289   3.384 -0.3204  0.6562 -0.0144
 2555SOL     OW10202   1.141   9.780   3.540 -0.1801  0.0543  0.2130
 2555SOL    HW110203   1.121   9.818   3.454 -0.4393 -1.3543 -0.3485
 2555SOL    HW210204   1.235   9.795   3.551 -0.3819  1.4136  0.2839
 2556SOL     OW10205   4.529   2.057   9.444  0.3444  0.1429  0.1977
 2556SOL    HW110206   4.539   2.019   9.357  1.1460 -1.4277  0.9509
 2556SOL    HW210207   4.454   2.011   9.482  0.7105 -0.0050  0.7505
 2557SOL     OW10208   3.399   2.523   3.661 -0.3160 -0.1668  0.3799
 2557SOL    HW110209   3.460   2.475   3.718 -0.9641 -0.3084  0.9469
 2557SOL    HW210210   3.312   2.497   3.691 -0.6686  0.8915  0.2764
 2558SOL     OW10211   5.524   6.665   7.236 -0.4226 -0.1749 -0.4601
 2558SOL    HW110212   5.613   6.632   7.249  0.1900  2.0462  1.3203
 2558SOL    HW210213   5.504   6.713   7.317 -1.3545  3.5632 -2.7765
 2559SOL     OW10214   0.387  10.147   7.437  0.0482  0.7653 -0.3145
 2559SOL    HW110215   0.338  10.087   7.381 -0.4167  0.5347  0.3332
 2559SOL    HW210216   0.355  10.130   7.525  0.3940  1.4963 -0.0370
 2560SOL     OW10217   9.481   6.544   6.678 -0.0207 -0.0420 -0.2475
 2560SOL    HW110218   9.556   6.489   6.702  0.7059  1.6764  1.5293
 2560SOL    HW210219   9.405   6.499   6.715  0.5886  0.2066  1.3503
 2561SOL     OW10220   4.039   3.008   5.042 -0.0439  0.7185 -0.1401
 2561SOL    HW110221   4.130   2.978   5.047 -0.8984 -2.0845 -0.3234
 2561SOL    HW210222   4.014   3.025   5.133  0.5989  1.3124 -0.0698
 2562SOL     OW10223   4.178   6.190   3.087 -0.2378 -0.0159  0.3543
 2562SOL    HW110224   4.098   6.228   3.050  0.3953  1.1457  0.1544
 2562SOL    HW210225   4.158   6.178   3.180 -0.7014  0.1186  0.2746
 2563SOL     OW10226   3.234   4.182   3.150  0.4421  0.3797 -0.1355
 2563SOL    HW110227   3.188   4.113   3.101  0.5239  1.3157 -1.5730
 2563SOL    HW210228   3.167   4.247   3.167  0.7828  0.8156 -0.4574
 2564SOL     OW10229   7.354  10.148   7.777  0.1411 -0.5646  0.2893
 2564SOL    HW110230   7.277  10.141   7.720  1.2490  0.4670 -1.3796
 2564SOL    HW210231   7.395  10.062   7.772 -0.8255 -1.0958  1.1216
 2565SOL     OW10232   4.728   0.361   4.278  0.4188  0.3882 -0.2835
 2565SOL    HW110233   4.736   0.454   4.297 -1.9729  0.8236 -1.2776
 2565SOL    HW210234   4.775   0.349   4.196 -1.2955  1.1970 -1.4037
 2566SOL     OW10235   0.795   7.910   2.954  0.1673 -0.5272 -0.2351
 2566SOL    HW110236   0.798   7.939   2.863 -2.4308 -4.4621 -1.7232
 2566SOL    HW210237   0.876   7.860   2.965  1.1960  1.1743  0.1268
 2567SOL     OW10238   4.699   6.831   3.083 -0.5355  0.0299  0.2719
 2567SOL    HW110239   4.606   6.853   3.081 -0.1586  1.6871  0.7257
 2567SOL    HW210240   4.731   6.867   3.166  0.6568  0.0566 -0.1882
 2568SOL     OW10241   8.615   6.818   5.503  0.0448  0.0298 -0.3874
 2568SOL    HW110242   8.701   6.776   5.504 -0.4858 -1.1143  1.2190
 2568SOL    HW210243   8.604   6.851   5.593 -0.0011  2.7328 -1.3424
 2569SOL     OW10244   4.619   2.581   4.987  0.3655  0.2237  0.2588
 2569SOL    HW110245   4.657   2.594   5.075 -1.4132 -0.2815  1.1219
 2569SOL    HW210246   4.658   2.650   4.934 -0.9168  2.5376  2.2035
 2570SOL     OW10247   7.141   1.452   7.623 -0.0854  0.3206  0.5437
 2570SOL    HW110248   7.046   1.450   7.632 -0.0962 -0.5032  0.2423
 2570SOL    HW210249   7.157   1.497   7.540 -0.3346 -2.7760 -1.2766
 2571SOL     OW10250   3.737   7.879   9.384  0.0421  0.0107 -0.5117
 2571SOL    HW110251   3.782   7.808   9.430  1.6412  1.6300  0.4549
 2571SOL    HW210252   3.667   7.905   9.444  1.6437  1.5948  0.7290
 2572SOL     OW10253   3.256   8.424   5.850 -0.4343  0.2856  0.3783
 2572SOL    HW110254   3.273   8.485   5.779 -1.3322 -0.8322 -0.8123
 2572SOL    HW210255   3.337   8.373   5.857 -1.6867 -2.1948 -2.4604
 2573SOL     OW10256   7.474   0.901   5.179 -0.1212  0.1866 -0.5402
 2573SOL    HW110257   7.387   0.860   5.176  0.2727 -0.6799 -0.4332
 2573SOL    HW210258   7.476   0.960   5.104 -0.0943 -1.2413 -1.6869
 2574SOL     OW10259   0.788   9.252   9.517  0.0173 -0.4848  0.0873
 2574SOL    HW110260   0.782   9.195   9.593  0.1127  1.1920  1.3796
 2574SOL    HW210261   0.848   9.321   9.543  1.4532 -0.8353 -2.1458
 2575SOL     OW10262   1.820   4.413   1.625 -0.6530 -0.3903 -0.5846
 2575SOL    HW110263   1.903   4.371   1.600 -0.5295  0.6335 -1.9537
 2575SOL    HW210264   1.786   4.449   1.543 -0.6540  2.3759  0.5647
 2576SOL     OW10265   1.170   8.623   2.770 -0.0369  0.1393 -0.3572
 2576SOL    HW110266   1.148   8.661   2.855 -0.0758 -0.3081 -0.1645
 2576SOL    HW210267   1.220   8.544   2.792  0.7481  0.5117 -0.7630
 2577SOL     OW10268   2.040   7.736   1.090 -0.1799 -0.3051 -0.3502
 2577SOL    HW110269   2.039   7.733   1.185  1.7432 -1.5541 -0.3380
 2577SOL    HW210270   1.953   7.707   1.064 -0.9567  0.7666  1.0317
 2578SOL     OW10271   3.671   4.118   1.921  0.4367  0.1662  0.5539
 2578SOL    HW110272   3.727   4.111   1.999 -1.2915  1.2085  1.9238
 2578SOL    HW210273   3.581   4.113   1.956 -0.3866  2.1499 -1.2094
 2579SOL     OW10274   7.014   6.512   9.781  0.3572  0.2497 -0.0989
 2579SOL    HW110275   7.035   6.587   9.727 -0.0202  0.2162 -0.2970
 2579SOL    HW210276   6.930   6.481   9.748 -0.6760  1.2026  1.5411
 2580SOL     OW10277   6.163   3.682   3.632  0.3541  0.1365  0.3350
 2580SOL    HW110278   6.111   3.603   3.643  1.3783 -0.6278 -0.1891
 2580SOL    HW210279   6.218   3.686   3.711  1.2617 -0.4159 -0.2648
 2581SOL     OW10280   3.855   3.836   2.995  0.0346  0.1170 -0.1112
 2581SOL    HW110281   3.917   3.775   2.954  0.7152  1.0243 -0.4525
 2581SOL    HW210282   3.850   3.807   3.086  0.5586 -0.2861 -0.2077
 2582SOL     OW10283   2.643   6.970   9.921  0.3459 -0.0194  0.2944
 2582SOL    HW110284   2.685   6.978   9.835  0.7827 -1.0525  0.4068
 2582SOL    HW210285   2.585   6.894   9.912 -0.2429  0.3854  0.6590
 2583SOL     OW10286   7.837   2.581   8.374  0.1801 -0.1032 -0.1888
 2583SOL    HW110287   7.802   2.584   8.285 -1.1633  0.3143  0.3327
 2583SOL    HW210288   7.932   2.582   8.363  0.0338 -0.7854 -1.6352
 2584SOL     OW10289   2.920   3.401   1.856 -0.0308 -0.3977 -0.0717
 2584SOL    HW110290   2.879   3.408   1.771 -0.7375  0.9641  0.3579
 2584SOL    HW210291   3.010   3.374   1.838 -0.1798 -0.1053 -1.2445
 2585SOL     OW10292   1.255   3.449   1.875 -0.2052  0.4263  0.2431
 2585SOL    HW110293   1.198   3.394   1.929 -0.1851  1.1002  0.9681
 2585SOL    HW210294   1.195   3.507   1.828 -0.2391 -0.3590 -0.6886
 2586SOL     OW10295   1.376   5.566   9.036  0.2555 -0.2829  0.1681
 2586SOL    HW110296   1.310   5.625   9.073  0.0240 -0.5615  0.2005
 2586SOL    HW210297   1.327   5.487   9.012  0.3880 -0.0969 -0.7592
 2587SOL     OW10298   5.558   6.130   8.244  0.2354 -0.3846 -0.6519
 2587SOL    HW110299   5.636   6.183   8.265 -0.1612 -0.0219 -0.0849
 2587SOL    HW210300   5.564   6.055   8.302 -0.1167 -0.0922 -0.2391
 2588SOL     OW10301   0.686   2.558   9.412  0.5353 -0.1735 -0.3228
 2588SOL    HW110302   0.621   2.489   9.424 -1.1915  1.4216 -0.2598
 2588SOL    HW210303   0.697   2.564   9.317 -0.4232  0.4342 -0.4089
 2589SOL     OW10304   7.891   7.361   3.612  0.2208  0.2778  0.1226
 2589SOL    HW110305   7.802   7.335   3.635 -0.1812  0.3747 -1.2921
 2589SOL    HW210306   7.898   7.452   3.641 -1.1780  1.2757 -2.4932
 2590SOL     OW10307   5.314   3.073   5.996  0.5017  0.5313 -0.2944
 2590SOL    HW110308   5.328   3.094   6.088  0.5229  0.9857 -0.4021
 2590SOL    HW210309   5.229   3.113   5.975  0.5670  0.5560 -0.5115
 2591SOL     OW10310   9.888   3.715   3.479  0.1945  0.2017 -0.2740
 2591SOL    HW110311   9.802   3.749   3.501  0.8142  0.3522  2.1067
 2591SOL    HW210312   9.872   3.651   3.409 -1.8083  0.3837 -0.0043
 2592SOL     OW10313   1.444   6.395   7.696  0.2802  0.5948  1.0210
 2592SOL    HW110314   1.460   6.434   7.782  2.1399  0.3929  0.7851
 2592SOL    HW210315   1.350   6.375   7.696  0.0663  1.5260  2.6096
 2593SOL     OW10316   2.394   5.735   3.129 -0.0692  0.4897  0.8277
 2593SOL    HW110317   2.404   5.793   3.204  1.2799  0.5035  0.6544
 2593SOL    HW210318   2.375   5.649   3.168  1.4579  0.3176  1.2399
 2594SOL     OW10319   2.411   7.750   0.382  0.2421  0.2016 -0.1074
 2594SOL    HW110320   2.401   7.674   0.324 -1.8052  1.8039 -1.9363
 2594SOL    HW210321   2.353   7.731   0.456  0.4477 -0.4379 -0.1079
 2595SOL     OW10322   2.295   6.762   6.171  0.9466 -0.5901  0.3682
 2595SOL    HW110323   2.310   6.817   6.248  0.7072  0.3230 -0.2243
 2595SOL    HW210324   2.216   6.799   6.130  1.6365 -0.4401 -0.8569
 2596SOL     OW10325   8.055   7.054   8.514  0.6079  0.3417  0.3025
 2596SOL    HW110326   7.963   7.080   8.514 -0.3972 -2.9184  0.3316
 2596SOL    HW210327   8.076   7.039   8.606 -0.9652 -5.4262 -0.0517
 2597SOL     OW10328   4.205   2.073   4.238 -0.3113  0.4001 -0.5767
 2597SOL    HW110329   4.272   2.068   4.305 -0.0773 -1.6968 -0.9449
 2597SOL    HW210330   4.152   1.994   4.250 -1.8820  1.3377 -1.1558
 2598SOL     OW10331   5.014   7.001   6.839  0.8605  0.6407 -0.0338
 2598SOL    HW110332   5.032   7.052   6.760  2.8276 -0.0734 -0.0742
 2598SOL    HW210333   4.930   6.959   6.822 -0.2990  3.0456 -0.4105
 2599SOL     OW10334   5.687   5.446   1.498  0.3802 -0.1831 -0.1883
 2599SOL    HW110335   5.747   5.406   1.435  0.7551 -1.3243  0.8554
 2599SOL    HW210336   5.721   5.420   1.583 -1.1006 -0.1194  0.4469
 2600SOL     OW10337   8.708   7.169   8.712  0.2614 -0.3839  0.2964
 2600SOL    HW110338   8.783   7.154   8.770  1.7766  2.0606 -0.9128
 2600SOL    HW210339   8.748   7.206   8.633 -1.9445 -1.8838 -1.5576
 2601SOL     OW10340   7.666   1.820   4.299  0.3482  0.5372  0.5106
 2601SOL    HW110341   7.695   1.758   4.367 -0.1437 -1.7622 -1.2857
 2601SOL    HW210342   7.573   1.802   4.288  0.6678 -0.0082 -1.6036
 2602SOL     OW10343   0.824   3.485   0.374  0.0197 -0.5874 -0.2592
 2602SOL    HW110344   0.904   3.492   0.426  0.5782  0.4733 -1.2336
 2602SOL    HW210345   0.833   3.402   0.326  1.2345  0.2242 -1.4812
 2603SOL     OW10346   9.073   8.234   1.806 -0.3652 -0.1351 -0.2144
 2603SOL    HW110347   9.041   8.322   1.826 -1.1276 -0.4709  0.0695
 2603SOL    HW210348   9.141   8.247   1.739 -0.5383  0.6551 -0.2349
 2604SOL     OW10349   5.457   0.502   7.073  0.1178  0.2908 -0.1399
 2604SOL    HW110350   5.435   0.412   7.094  2.5566 -0.1125  0.8285
 2604SOL    HW210351   5.466   0.546   7.158  1.8354  0.6977 -0.5032
 2605SOL     OW10352   1.325   2.600   3.396  0.0226  0.0193 -0.6353
 2605SOL    HW110353   1.321   2.645   3.481  1.3018 -0.1604 -0.4714
 2605SOL    HW210354   1.416   2.609   3.368  0.1076 -1.7570 -0.9822
 2606SOL     OW10355   6.676   3.877   7.168  0.7987 -0.3508 -0.5788
 2606SOL    HW110356   6.598   3.835   7.205  1.7564  1.3179  3.6495
 2606SOL    HW210357   6.749   3.829   7.206  1.8273  1.7419  0.1770
 2607SOL     OW10358   1.507   4.166   7.549 -0.3661 -0.2889  0.0231
 2607SOL    HW110359   1.482   4.258   7.542 -2.2563 -0.8022 -0.3340
 2607SOL    HW210360   1.472   4.126   7.470 -1.3193 -1.6890  1.1277
 2608SOL     OW10361   5.308   8.234   2.766  0.3643 -0.1018 -0.6150
 2608SOL    HW110362   5.266   8.201   2.687  0.3871  0.0358 -0.6865
 2608SOL    HW210363   5.256   8.199   2.839  1.3791 -1.6772 -0.6208
 2609SOL     OW10364   8.545   7.882   9.257  0.0910  0.0898  0.0871
 2609SOL    HW110365   8.607   7.810   9.263  0.1911  0.1368 -0.3312
 2609SOL    HW210366   8.563   7.936   9.334  1.0885  0.5150 -0.4363
 2610SOL     OW10367   6.530   1.349   6.195  0.0019 -0.0788 -0.0142
 2610SOL    HW110368   6.457   1.299   6.157  0.3910  0.3629 -1.3730
 2610SOL    HW210369   6.579   1.284   6.244 -1.1226 -0.4528  0.6432
 2611SOL     OW10370   7.667   2.802   0.022  0.2848  0.0608  0.5535
 2611SOL    HW110371   7.676   2.897   0.012 -0.3918  0.3906  2.8766
 2611SOL    HW210372   7.577   2.784  -0.004  0.8644 -0.1885 -1.3746
 2612SOL     OW10373   1.184   0.431   4.026 -0.6968 -0.2602 -0.0119
 2612SOL    HW110374   1.112   0.403   4.082 -0.0110  0.3270  1.1767
 2612SOL    HW210375   1.235   0.351   4.011 -1.7796 -0.7543 -1.1581
 2613SOL     OW10376   8.215   9.069   1.757  0.6315 -0.1040  0.0175
 2613SOL    HW110377   8.131   9.107   1.785  0.7280  0.4592 -0.4589
 2613SOL    HW210378   8.271   9.078   1.834  0.0548 -1.1087  0.5682
 2614SOL     OW10379   5.130   0.284   4.361 -0.1798 -0.0342 -0.0946
 2614SOL    HW110380   5.125   0.374   4.328 -0.5496  0.6270  1.7073
 2614SOL    HW210381   5.054   0.275   4.418  0.7982 -0.9150  1.0959
 2615SOL     OW10382   1.614   1.843   6.420  0.3058  0.3477  0.3762
 2615SOL    HW110383   1.662   1.808   6.345  1.2073  1.4339  0.4230
 2615SOL    HW210384   1.570   1.921   6.385  0.5611  0.7377  0.9151
 2616SOL     OW10385  10.138   4.283   5.238  0.2324  0.4553  0.5240
 2616SOL    HW110386  10.127   4.188   5.233 -0.5254  0.4684  1.9278
 2616SOL    HW210387  10.075   4.318   5.175  0.3114  0.0497  0.2188
 2617SOL     OW10388   7.768   8.526   4.369 -0.3943 -0.5983 -0.3098
 2617SOL    HW110389   7.862   8.511   4.376 -0.4673 -0.2411  1.6065
 2617SOL    HW210390   7.760   8.597   4.306  0.6153 -0.6230 -0.4812
 2618SOL     OW10391   1.243   5.893   8.768  0.7590 -0.0708  0.0863
 2618SOL    HW110392   1.249   5.798   8.754  1.0611 -0.1867  0.9770
 2618SOL    HW210393   1.324   5.916   8.812  0.4559  0.5262  0.3402
 2619SOL     OW10394   2.837   9.662   4.708 -0.0382  0.1395  0.3044
 2619SOL    HW110395   2.924   9.698   4.689  0.3738  0.4302  2.5838
 2619SOL    HW210396   2.817   9.693   4.796 -1.8555 -1.1014  0.3584
 2620SOL     OW10397   8.386   2.445   9.970  0.2272  0.6037  0.0416
 2620SOL    HW110398   8.369   2.352   9.987  0.6571  0.5893  0.4165
 2620SOL    HW210399   8.383   2.453   9.875 -2.2832  0.6808  0.0882
 2621SOL     OW10400   5.342   3.565   5.966  0.0706  0.3549  0.3117
 2621SOL    HW110401   5.253   3.551   5.999 -0.0264  2.0324  0.8331
 2621SOL    HW210402   5.338   3.540   5.874 -0.4764 -1.2810  0.7552
 2622SOL     OW10403   7.253   6.164   4.525 -0.2720 -0.2756  0.5722
 2622SOL    HW110404   7.346   6.146   4.513 -0.3741 -0.6769  0.3837
 2622SOL    HW210405   7.251   6.253   4.562  0.1642 -0.0810  0.1387
 2623SOL     OW10406   6.978   6.842   7.406  0.0361 -0.1054 -0.1859
 2623SOL    HW110407   6.944   6.817   7.492  0.1020 -3.1150 -0.9856
 2623SOL    HW210408   6.900   6.850   7.352  0.0575  0.9172 -0.0673
 2624SOL     OW10409   7.559   1.300   9.386 -0.0147  0.3825  0.2068
 2624SOL    HW110410   7.653   1.296   9.405  0.2035  0.0628 -0.8949
 2624SOL    HW210411   7.554   1.318   9.292 -1.0397 -1.2643 -0.0864
 2625SOL     OW10412   3.904   1.225   4.514 -1.2293  0.2760 -0.1821
 2625SOL    HW110413   3.877   1.308   4.474  1.3367  0.7097 -1.0528
 2625SOL    HW210414   3.899   1.161   4.443  1.3860  0.6475 -0.7261
 2626SOL     OW10415   3.680   5.912   6.733  0.1607 -0.2879  0.2568
 2626SOL    HW110416   3.745   5.849   6.763 -0.4620 -1.4834 -0.8643
 2626SOL    HW210417   3.712   5.940   6.647 -1.2246 -1.4996 -0.6583
 2627SOL     OW10418   2.933   3.093   5.962  0.7286  0.3897 -0.1679
 2627SOL    HW110419   2.951   3.186   5.974  0.1567  0.4417  0.3057
 2627SOL    HW210420   2.955   3.054   6.047  1.1526  0.0636 -0.4272
 2628SOL     OW10421   0.370   9.034   3.532  0.0304 -0.5927  0.2807
 2628SOL    HW110422   0.298   9.034   3.595  0.3973 -2.2956  0.7214
 2628SOL    HW210423   0.355   8.957   3.478  0.3546  0.2239 -0.9943
 2629SOL     OW10424   9.541   1.660   4.886 -0.0983 -0.0581 -0.1154
 2629SOL    HW110425   9.590   1.619   4.957 -0.3586  0.1758  0.1985
 2629SOL    HW210426   9.450   1.639   4.904 -0.1528 -0.1501 -0.4805
 2630SOL     OW10427   2.690   7.740   6.096 -0.0335  0.0682  0.3911
 2630SOL    HW110428   2.599   7.754   6.068  0.3295  1.6561 -0.0211
 2630SOL    HW210429   2.699   7.794   6.175  1.1449  1.5267 -0.7313
 2631SOL     OW10430   7.773   9.589   2.345  0.0371  0.1006  0.0674
 2631SOL    HW110431   7.847   9.528   2.355 -0.4054 -0.4389  0.0639
 2631SOL    HW210432   7.710   9.561   2.411 -1.0729 -0.7790 -1.3292
 2632SOL     OW10433   4.532   6.984   3.651  0.5085  0.0664  0.1698
 2632SOL    HW110434   4.507   6.896   3.623  0.2467  0.1927  0.0001
 2632SOL    HW210435   4.448   7.027   3.671  0.4283  1.0812 -2.1097
 2633SOL     OW10436   7.893   3.534   6.649 -0.4606  0.0215  0.0576
 2633SOL    HW110437   7.860   3.575   6.729  0.1013 -0.0247  0.3210
 2633SOL    HW210438   7.823   3.546   6.585 -1.8942 -2.0227  1.1888
 2634SOL     OW10439   1.460   7.724   0.060  0.2196 -0.7984  0.0974
 2634SOL    HW110440   1.431   7.814   0.042  0.8988 -0.1312  2.2470
 2634SOL    HW210441   1.381   7.671   0.048 -1.0308  0.5216  2.1357
 2635SOL     OW10442   0.876   3.719   8.142 -0.6081 -0.2313  0.3480
 2635SOL    HW110443   0.838   3.807   8.135  0.6946  0.4679  1.7276
 2635SOL    HW210444   0.841   3.685   8.225  1.0454  0.0890  1.2071
 2636SOL     OW10445   2.216   4.377  10.161  0.5933 -0.1872 -0.1535
 2636SOL    HW110446   2.204   4.362  10.255 -4.0955 -3.0766 -1.0938
 2636SOL    HW210447   2.281   4.312  10.135  0.4756 -0.6650  0.7201
 2637SOL     OW10448   3.698   6.935   9.729  0.6168 -0.6813 -0.7203
 2637SOL    HW110449   3.750   6.991   9.787 -1.0500  0.5323 -0.3620
 2637SOL    HW210450   3.743   6.850   9.731  0.7289 -0.5956  2.1745
 2638SOL     OW10451   3.398   9.124   0.765 -0.3790 -0.3236  0.1822
 2638SOL    HW110452   3.441   9.113   0.850 -0.0167 -1.6249 -0.1543
 2638SOL    HW210453   3.415   9.042   0.719  0.6896  0.9364 -1.7300
 2639SOL     OW10454   4.160   4.275   6.892 -0.3055  0.3465  0.2168
 2639SOL    HW110455   4.121   4.210   6.833 -1.2611  0.2994  0.8947
 2639SOL    HW210456   4.247   4.291   6.855 -0.1011 -1.2368 -0.0251
 2640SOL     OW10457   1.496   1.364   1.712  0.7160  0.4533  0.2507
 2640SOL    HW110458   1.533   1.287   1.754  0.0672  0.0217  0.0220
 2640SOL    HW210459   1.516   1.436   1.773 -0.4281 -0.2017  1.4223
 2641SOL     OW10460   0.180   4.535   7.234 -0.3677 -0.0989  0.3582
 2641SOL    HW110461   0.243   4.521   7.164 -0.8931  0.1490 -0.1651
 2641SOL    HW210462   0.228   4.513   7.314  0.8028  1.4148  0.0787
 2642SOL     OW10463   5.247   5.595   6.069 -0.3428  0.7586  0.6174
 2642SOL    HW110464   5.321   5.645   6.035  0.4189 -0.8294 -0.0894
 2642SOL    HW210465   5.210   5.651   6.138  1.1162  1.8281  0.5520
 2643SOL     OW10466   8.252   2.712   2.977  0.4064  0.3378 -0.1336
 2643SOL    HW110467   8.293   2.797   2.956  0.9379  0.2809  0.6269
 2643SOL    HW210468   8.189   2.698   2.907 -1.9788  2.8845  1.4154
 2644SOL     OW10469  10.061   8.132   6.338  0.4050 -0.4120 -0.3041
 2644SOL    HW110470  10.147   8.095   6.319  0.3818 -1.6963  1.8885
 2644SOL    HW210471  10.001   8.057   6.333 -0.4118  0.2565 -0.7216
 2645SOL     OW10472   8.699   6.715   3.716 -0.3331 -0.6705  0.1630
 2645SOL    HW110473   8.675   6.747   3.629  2.6725  0.2592 -0.3813
 2645SOL    HW210474   8.704   6.794   3.770  0.6686 -0.9237  0.4487
 2646SOL     OW10475   8.776   9.875   0.302 -0.4571  0.0544  0.3031
 2646SOL    HW110476   8.756   9.841   0.389 -1.5268 -0.0239  0.0349
 2646SOL    HW210477   8.781   9.797   0.247 -3.1546  0.3028 -0.3639
 2647SOL     OW10478   2.808   7.622   9.885  0.3016  0.6480 -0.2870
 2647SOL    HW110479   2.863   7.553   9.922 -3.1638 -1.3034  1.4700
 2647SOL    HW210480   2.843   7.636   9.797  2.0962 -2.1842 -0.0943
 2648SOL     OW10481   4.959   7.121   5.283  0.2807  0.4609  0.3470
 2648SOL    HW110482   4.942   7.201   5.233  0.7638 -0.2019 -0.8925
 2648SOL    HW210483   4.923   7.139   5.370 -0.2679  1.7505 -0.1373
 2649SOL     OW10484   4.093   3.214   0.474  0.3733 -0.0659  0.5442
 2649SOL    HW110485   4.089   3.190   0.566 -1.1982  0.2611  0.5643
 2649SOL    HW210486   4.117   3.307   0.474  1.3173 -0.3038  0.5900
 2650SOL     OW10487   5.320   0.550   3.319  0.2924 -0.1615 -0.1405
 2650SOL    HW110488   5.370   0.630   3.301 -1.0074  0.5991 -0.3831
 2650SOL    HW210489   5.358   0.517   3.400  0.9799  0.5956 -0.1395
 2651SOL     OW10490   1.948   3.567   3.790 -0.1936 -0.0381 -0.0567
 2651SOL    HW110491   2.015   3.634   3.797 -1.4772  1.6352 -2.7377
 2651SOL    HW210492   1.990   3.487   3.821  2.0629  1.5481  1.0943
 2652SOL     OW10493   2.459   9.762   3.721  0.2559  0.3295  0.3137
 2652SOL    HW110494   2.498   9.745   3.635 -1.5256 -1.5427 -0.1452
 2652SOL    HW210495   2.521   9.723   3.783 -0.3502 -1.7049 -0.3476
 2653SOL     OW10496   8.248   0.268   5.970  0.0304 -0.0596  0.4078
 2653SOL    HW110497   8.300   0.344   5.942  1.3699 -1.1497 -0.1471
 2653SOL    HW210498   8.160   0.285   5.938  0.3781  1.1648  0.0980
 2654SOL     OW10499   5.467   1.494   6.946 -0.0734  0.9163 -0.2646
 2654SOL    HW110500   5.441   1.474   7.036  1.1476 -0.3492 -0.1817
 2654SOL    HW210501   5.441   1.416   6.896 -1.2864  1.8582 -1.1128
 2655SOL     OW10502   5.898   4.174   2.641 -0.1268  0.0091 -0.2156
 2655SOL    HW110503   5.909   4.168   2.736 -0.2840  1.3525 -0.1097
 2655SOL    HW210504   5.955   4.104   2.607  0.9654  0.3782  0.7981
 2656SOL     OW10505   5.005   2.597   1.791  0.4143 -0.8205 -0.0108
 2656SOL    HW110506   4.927   2.650   1.808  0.0770 -0.8669 -1.3669
 2656SOL    HW210507   4.988   2.515   1.837 -0.3458 -0.8368 -0.3097
 2657SOL     OW10508   5.401   8.816   1.203 -0.2487  0.6967  1.2016
 2657SOL    HW110509   5.422   8.791   1.113 -0.0851  2.0547  0.8433
 2657SOL    HW210510   5.444   8.901   1.214  0.4707  0.1282  2.8504
 2658SOL     OW10511   9.106   9.271   5.408 -0.0215 -0.1804 -0.0832
 2658SOL    HW110512   9.153   9.331   5.350  0.7741 -1.5195 -0.8687
 2658SOL    HW210513   9.029   9.245   5.359  0.6623 -1.3297 -0.5670
 2659SOL     OW10514   0.776   5.098   0.568 -0.1872 -0.1155  0.2049
 2659SOL    HW110515   0.839   5.119   0.637  0.5290 -1.7351  0.0727
 2659SOL    HW210516   0.816   5.134   0.488 -0.0876  0.0564  0.3305
 2660SOL     OW10517   7.894   4.474   3.267 -0.2303 -0.2347 -0.2273
 2660SOL    HW110518   7.956   4.476   3.340  1.4341  2.1537 -1.6485
 2660SOL    HW210519   7.948   4.460   3.189 -1.4061  2.0098 -1.5054
 2661SOL     OW10520   3.049   9.258   3.376  0.1903 -0.2081  0.5583
 2661SOL    HW110521   3.053   9.255   3.281 -1.9609 -2.2141  0.4751
 2661SOL    HW210522   2.968   9.212   3.398  0.1624  1.0238  3.3236
 2662SOL     OW10523   2.743   6.524   0.988  0.6247 -0.6796 -0.2882
 2662SOL    HW110524   2.808   6.456   0.969  0.1582 -0.4710 -2.8865
 2662SOL    HW210525   2.693   6.532   0.907 -2.3355 -0.4687  1.4855
 2663SOL     OW10526   4.529   7.298   8.451 -0.3598  0.6773  0.1108
 2663SOL    HW110527   4.536   7.286   8.356  0.7840  0.9780  0.1571
 2663SOL    HW210528   4.607   7.255   8.487  0.0189  1.9279  0.7987
 2664SOL     OW10529   3.482   3.973   2.891  0.0080 -0.0763 -0.0090
 2664SOL    HW110530   3.407   3.917   2.871 -0.5608  0.3327  0.9463
 2664SOL    HW210531   3.521   3.934   2.968  0.1249  0.3349  0.1431
 2665SOL     OW10532   7.808   1.084   3.517 -0.3394 -0.1059 -0.2430
 2665SOL    HW110533   7.801   1.174   3.484  1.8250  0.5263  0.9424
 2665SOL    HW210534   7.728   1.041   3.487 -0.8525  1.8950 -1.8221
 2666SOL     OW10535   1.105   5.095   5.335 -0.1536  0.4901  0.6489
 2666SOL    HW110536   1.083   5.187   5.345 -2.5133 -0.0362  0.4703
 2666SOL    HW210537   1.040   5.060   5.274 -0.1511 -1.5943  1.7682
 2667SOL     OW10538   2.463   7.887   0.101 -0.0349  0.3111  0.3356
 2667SOL    HW110539   2.420   7.929   0.175 -1.2123  0.7936 -0.6010
 2667SOL    HW210540   2.441   7.794   0.109 -0.9539  0.5028  0.0697
 2668SOL     OW10541   5.681   0.629   3.311  0.2618 -0.2334 -0.3323
 2668SOL    HW110542   5.758   0.575   3.328  1.1350  0.6532 -1.3297
 2668SOL    HW210543   5.660   0.669   3.395  1.0446 -0.3061 -0.1000
 2669SOL     OW10544   6.582   0.409   5.464 -0.4474  0.2394  0.3065
 2669SOL    HW110545   6.621   0.489   5.498 -0.7639 -0.1186  1.5473
 2669SOL    HW210546   6.567   0.355   5.541 -1.3928 -0.5061 -0.3813
 2670SOL     OW10547   3.490   1.074   0.181 -0.6314 -0.3329 -0.0933
 2670SOL    HW110548   3.427   1.065   0.253  0.5044 -0.6403  0.8784
 2670SOL    HW210549   3.465   1.007   0.118 -1.2502 -0.4816  0.3121
 2671SOL     OW10550   1.757   2.591   3.021 -0.3405  0.5664 -0.6138
 2671SOL    HW110551   1.797   2.594   3.108 -1.9782 -1.0382  0.2250
 2671SOL    HW210552   1.779   2.676   2.982  0.8310  1.1203  1.1570
 2672SOL     OW10553   9.826   8.779   4.760  0.3503 -0.0557 -0.4132
 2672SOL    HW110554   9.815   8.789   4.854  0.4808 -1.5972 -0.2223
 2672SOL    HW210555   9.878   8.855   4.733  1.2415 -0.1832  0.9308
 2673SOL     OW10556   4.110   1.842  10.078  0.1111  0.2591  0.4615
 2673SOL    HW110557   4.144   1.851  10.167  1.2124 -0.1143  0.0854
 2673SOL    HW210558   4.034   1.900  10.075  0.4484  0.7579  1.4473
 2674SOL     OW10559   3.098   9.138   0.704  0.0241  0.8509 -0.0938
 2674SOL    HW110560   3.193   9.154   0.704  0.2693 -0.5286  0.0793
 2674SOL    HW210561   3.063   9.201   0.641  1.3433 -0.2285 -1.9449
 2675SOL     OW10562   4.846   8.226   8.051  0.5324  0.4024 -0.7752
 2675SOL    HW110563   4.810   8.155   7.997 -1.6702  0.7560  0.1996
 2675SOL    HW210564   4.857   8.298   7.989 -1.5435  0.6544 -0.8975
 2676SOL     OW10565   6.800   6.869   3.843 -0.1950 -0.5898  0.4837
 2676SOL    HW110566   6.819   6.958   3.813  0.3021 -1.5831 -2.3788
 2676SOL    HW210567   6.716   6.847   3.802 -0.7828 -1.1184  1.9299
 2677SOL     OW10568   6.034   4.955   7.229 -0.1176 -0.4504  0.2577
 2677SOL    HW110569   6.093   5.030   7.228  1.3834 -1.5743  1.7547
 2677SOL    HW210570   6.038   4.921   7.139 -0.6343  1.1100 -0.3640
 2678SOL     OW10571   4.952   2.879   8.531 -0.0125  0.7704 -0.3277
 2678SOL    HW110572   4.881   2.905   8.471 -0.2230  0.0421 -0.3993
 2678SOL    HW210573   5.013   2.953   8.528  0.2655  0.4986 -1.8832
 2679SOL     OW10574   2.370   5.031   0.689  0.2396 -0.5951 -0.0612
 2679SOL    HW110575   2.277   5.046   0.708  0.2821  0.3990 -0.6115
 2679SOL    HW210576   2.386   4.941   0.718 -1.1800 -1.1798 -1.0248
 2680SOL     OW10577   7.482   7.538   2.931  0.4176 -0.7245 -0.0437
 2680SOL    HW110578   7.515   7.576   3.012  0.3210 -0.4771 -0.1201
 2680SOL    HW210579   7.452   7.450   2.956  2.1860 -1.3918 -0.1982
 2681SOL     OW10580   5.962   2.997   5.841  0.1997 -0.1055 -0.1874
 2681SOL    HW110581   5.901   3.003   5.914  0.4309  0.2467 -0.0245
 2681SOL    HW210582   5.915   3.035   5.767  0.7279  1.4342  0.2565
 2682SOL     OW10583   0.403   7.731   2.940  0.1203  0.7188 -0.4390
 2682SOL    HW110584   0.470   7.712   2.873  0.9975  3.3039 -0.3602
 2682SOL    HW210585   0.452   7.772   3.011 -1.5744  2.7461 -0.4139
 2683SOL     OW10586   9.887   2.140   3.490  0.5410 -0.1053 -0.1235
 2683SOL    HW110587   9.853   2.227   3.511  2.4234  0.5324  0.3197
 2683SOL    HW210588   9.825   2.106   3.425 -0.5629  1.3009  0.1581
 2684SOL     OW10589   5.844   7.922   9.901 -0.1143 -0.3043 -0.0717
 2684SOL    HW110590   5.815   7.882   9.983 -0.2556  0.4756  0.2620
 2684SOL    HW210591   5.774   7.903   9.839 -0.5978  0.1801  0.3173
 2685SOL     OW10592   4.279   4.319   3.543 -0.4787  0.2732 -1.3240
 2685SOL    HW110593   4.233   4.301   3.625 -0.6126 -1.6113 -1.8005
 2685SOL    HW210594   4.366   4.282   3.556 -0.2862  0.5540 -1.8015
 2686SOL     OW10595   9.692   7.677   3.070  0.2497  0.4834  0.3732
 2686SOL    HW110596   9.717   7.723   2.989  0.0092  0.2512  0.1682
 2686SOL    HW210597   9.654   7.595   3.040  1.2456 -0.1267  0.7681
 2687SOL     OW10598   0.497   1.154   2.681 -0.4148 -0.3710 -0.0158
 2687SOL    HW110599   0.415   1.105   2.692 -1.1435  0.8121  0.0205
 2687SOL    HW210600   0.472   1.227   2.624  0.4161  0.4785  0.7005
 2688SOL     OW10601   9.599   8.051   8.944  0.0011  0.2145 -0.5054
 2688SOL    HW110602   9.687   8.047   8.983 -0.2238  0.3788  0.0261
 2688SOL    HW210603   9.540   8.054   9.020 -0.3313  3.1465 -0.8009
 2689SOL     OW10604   9.387   7.414   0.232  0.4521 -0.3327  0.4325
 2689SOL    HW110605   9.345   7.459   0.305 -1.5971  0.5152 -1.2197
 2689SOL    HW210606   9.321   7.412   0.163  2.5189 -0.5914 -1.6272
 2690SOL     OW10607   9.774   9.611   6.840 -0.5569  0.9145  0.0675
 2690SOL    HW110608   9.766   9.701   6.873  1.4675  1.2283 -0.2844
 2690SOL    HW210609   9.867   9.600   6.821 -1.0245 -0.7381 -1.3967
 2691SOL     OW10610   8.561   3.501   0.084  0.0435  0.0253 -0.3343
 2691SOL    HW110611   8.491   3.550   0.126  0.8151  2.1297 -1.4292
 2691SOL    HW210612   8.517   3.438   0.028 -0.9712  1.1547 -0.8156
 2692SOL     OW10613   3.357   3.777   6.553 -0.6147 -0.4412  0.2904
 2692SOL    HW110614   3.404   3.815   6.479 -3.4032  2.2600 -0.1759
 2692SOL    HW210615   3.283   3.730   6.513 -1.6048  0.2419  1.2879
 2693SOL     OW10616   5.743   8.978   3.520  0.7314 -0.6528  0.2756
 2693SOL    HW110617   5.820   9.030   3.497  1.4860 -0.8311  2.3517
 2693SOL    HW210618   5.778   8.892   3.544 -0.3540 -1.5805 -1.3488
 2694SOL     OW10619   0.771   4.308   1.009  0.2404  0.4034  0.1647
 2694SOL    HW110620   0.746   4.360   0.932  0.8770 -1.6442 -1.4942
 2694SOL    HW210621   0.858   4.341   1.033 -0.6368  2.1307  0.9990
 2695SOL     OW10622   3.634   8.671   8.062 -0.1362 -0.0358  0.1212
 2695SOL    HW110623   3.553   8.622   8.052 -0.4845  0.3566  0.9635
 2695SOL    HW210624   3.643   8.683   8.157  0.2386  1.0281 -0.0440
 2696SOL     OW10625   3.189   3.976   5.230  0.0217  0.4459 -0.1288
 2696SOL    HW110626   3.226   4.059   5.261 -0.1292  1.2066 -1.9787
 2696SOL    HW210627   3.097   3.981   5.255  0.4819 -0.1682  1.8020
 2697SOL     OW10628   9.953   1.271   8.733  0.0432 -0.1388  0.3579
 2697SOL    HW110629   9.873   1.237   8.773  0.2545 -1.5553 -0.3857
 2697SOL    HW210630   9.986   1.335   8.796 -1.4490  0.1481  0.8629
 2698SOL     OW10631   2.241   1.016   7.058 -0.1472  0.5000 -0.1630
 2698SOL    HW110632   2.267   1.023   6.967 -0.4975 -0.3909 -0.3346
 2698SOL    HW210633   2.316   1.049   7.108  0.1489  0.7232 -0.7575
 2699SOL     OW10634   9.524   4.000   9.368  0.2555  0.4005  0.6322
 2699SOL    HW110635   9.553   3.948   9.444  0.3654  0.2084  0.4581
 2699SOL    HW210636   9.598   4.056   9.347  0.4791 -0.0453  0.2269
 2700SOL     OW10637   6.115  10.204   0.084 -0.4521  0.4983  0.6558
 2700SOL    HW110638   6.122  10.220  -0.010 -0.1402  1.1661  0.7895
 2700SOL    HW210639   6.126  10.290   0.124  0.9748  0.0059  1.3667
 2701SOL     OW10640   2.470   7.506   4.728  0.3275 -0.0098 -0.3525
 2701SOL    HW110641   2.401   7.444   4.751 -0.0891  0.4766 -0.2830
 2701SOL    HW210642   2.510   7.529   4.812  0.8406 -0.5963 -0.4331
 2702SOL     OW10643   4.181   1.788   3.990 -0.1669 -0.0827 -0.1134
 2702SOL    HW110644   4.166   1.874   4.029 -0.6506 -0.1978 -0.0526
 2702SOL    HW210645   4.126   1.786   3.912 -0.2680 -0.3932 -0.0346
 2703SOL     OW10646   3.696   3.988   7.323  0.0679 -0.0613  0.0420
 2703SOL    HW110647   3.704   3.942   7.407  1.5700  1.0690  0.5315
 2703SOL    HW210648   3.613   4.035   7.330 -0.8467 -1.6395  0.0468
 2704SOL     OW10649   2.832   0.467   6.448 -0.0558 -0.2221  0.0189
 2704SOL    HW110650   2.757   0.442   6.503  0.6308 -0.9562  0.6397
 2704SOL    HW210651   2.857   0.554   6.481  1.0252 -1.1198  1.6084
 2705SOL     OW10652   2.399   8.358   1.073  0.6420  0.3669  0.0935
 2705SOL    HW110653   2.321   8.390   1.030  0.1593  1.1262  1.4835
 2705SOL    HW210654   2.441   8.437   1.108  1.5693 -0.1187  0.0989
 2706SOL     OW10655   5.132   2.547   4.483 -0.0300 -0.4024 -0.1587
 2706SOL    HW110656   5.053   2.517   4.439 -1.3357 -1.8628  3.0025
 2706SOL    HW210657   5.162   2.471   4.533  1.7085  0.9721  0.9541
 2707SOL     OW10658   3.854   9.930   0.675  0.2248 -0.1916  0.4456
 2707SOL    HW110659   3.872  10.000   0.739  1.2789  0.6073 -0.7164
 2707SOL    HW210660   3.940   9.909   0.638 -0.2601 -1.3068 -0.0585
 2708SOL     OW10661   6.358   4.124   7.076  0.3855 -0.0537 -0.2069
 2708SOL    HW110662   6.396   4.185   7.013  0.8351  0.4927  0.5886
 2708SOL    HW210663   6.395   4.150   7.161 -0.3332 -0.6783  0.3092
 2709SOL     OW10664   2.254   5.952   3.979  0.1882  0.1388  0.0581
 2709SOL    HW110665   2.344   5.920   3.969  0.3826  0.8414 -0.5119
 2709SOL    HW210666   2.200   5.874   3.974  0.8850 -0.5163  2.2843
 2710SOL     OW10667   5.446   1.426   0.731  0.2658 -0.1155  0.3638
 2710SOL    HW110668   5.443   1.344   0.683 -0.0134  0.1989 -0.1689
 2710SOL    HW210669   5.528   1.423   0.779  1.6574  0.5269 -1.8785
 2711SOL     OW10670   3.697   4.847   3.521  0.5540 -0.0662 -0.1159
 2711SOL    HW110671   3.724   4.913   3.584  0.2152  0.6141 -0.6706
 2711SOL    HW210672   3.666   4.774   3.574 -0.2629  0.7176  0.4905
 2712SOL     OW10673   0.735   5.077   3.132 -0.1422 -0.5980  1.0176
 2712SOL    HW110674   0.657   5.038   3.091 -0.3353 -0.3743  1.1717
 2712SOL    HW210675   0.721   5.171   3.124  1.0535 -0.5484 -0.7436
 2713SOL     OW10676   5.904   8.391   7.753  0.4030 -0.1301  0.1874
 2713SOL    HW110677   5.836   8.332   7.788 -1.3129  0.0844 -2.6203
 2713SOL    HW210678   5.955   8.336   7.693 -0.0302  0.7574 -1.0168
 2714SOL     OW10679   9.250   5.038   3.459  0.3950  0.3015  0.1544
 2714SOL    HW110680   9.250   5.106   3.526  0.6630 -0.1506  0.6214
 2714SOL    HW210681   9.228   5.084   3.378  2.2972  1.2465  0.1444
 2715SOL     OW10682   5.713   7.679   2.274  0.1763  0.3049  0.1857
 2715SOL    HW110683   5.662   7.637   2.343 -1.7613  1.8272 -0.2631
 2715SOL    HW210684   5.731   7.767   2.307 -0.7091  1.0301 -1.1701
 2716SOL     OW10685   2.100   1.510   6.273  0.7317  0.8301  0.1798
 2716SOL    HW110686   2.171   1.448   6.256 -0.6469 -0.7764  0.0249
 2716SOL    HW210687   2.102   1.570   6.199  1.6019  0.4785 -0.0838
 2717SOL     OW10688   1.931   5.838   0.553 -0.4801 -0.3444  0.3273
 2717SOL    HW110689   1.967   5.921   0.586 -1.2510  0.6595 -1.2828
 2717SOL    HW210690   1.900   5.793   0.631 -0.8647  1.2980  1.1429
 2718SOL     OW10691   8.805   7.757   8.453  0.1794 -0.1093  0.5550
 2718SOL    HW110692   8.843   7.670   8.462 -1.1027 -0.8358 -0.7396
 2718SOL    HW210693   8.830   7.785   8.365  1.6373  1.3837  1.4135
 2719SOL     OW10694   5.679   5.901   6.473  0.2871 -0.4182  0.0185
 2719SOL    HW110695   5.634   5.839   6.531 -0.4592 -0.1873 -0.3007
 2719SOL    HW210696   5.707   5.972   6.530  0.6172 -0.7626  0.2888
 2720SOL     OW10697   3.853   5.933   8.220 -0.4237 -0.4169 -0.5192
 2720SOL    HW110698   3.889   5.911   8.134 -0.3775 -1.1297 -0.3261
 2720SOL    HW210699   3.787   6.000   8.202  0.3934  0.2773 -0.9726
 2721SOL     OW10700   9.834   3.416   8.865 -0.0192 -0.9800 -0.2254
 2721SOL    HW110701   9.747   3.383   8.843 -0.6372  1.0318 -0.9289
 2721SOL    HW210702   9.863   3.361   8.938 -2.1033 -1.3419  0.3734
 2722SOL     OW10703   2.637   8.686   6.008  0.4762 -0.1255 -0.0922
 2722SOL    HW110704   2.705   8.738   6.050 -0.1818 -0.5609  1.5318
 2722SOL    HW210705   2.609   8.624   6.075 -1.4250 -0.0589 -0.8048
 2723SOL     OW10706   0.102   5.830   3.609 -0.7173  0.1999  0.6624
 2723SOL    HW110707   0.166   5.870   3.551  0.5346 -2.0821  0.4092
 2723SOL    HW210708   0.121   5.867   3.695 -0.3868  1.0556  0.2269
 2724SOL     OW10709   5.717  10.129   7.056  0.2584  0.0357 -0.0597
 2724SOL    HW110710   5.756  10.062   7.000  1.4058  0.4393  0.2323
 2724SOL    HW210711   5.784  10.198   7.061 -0.1691  0.3818  1.1112
 2725SOL     OW10712   3.622   8.101   3.312 -0.2196 -0.1116  0.4970
 2725SOL    HW110713   3.712   8.096   3.281  0.1027 -0.7732  1.5005
 2725SOL    HW210714   3.595   8.191   3.295  0.3090 -0.1701 -0.6754
 2726SOL     OW10715   2.096   2.790   3.094  0.1703 -0.3265  0.1869
 2726SOL    HW110716   2.167   2.776   3.031  1.5890  0.1260  1.6505
 2726SOL    HW210717   2.023   2.822   3.042  1.1075 -0.6145 -1.3153
 2727SOL     OW10718   2.307   7.487   5.518 -0.3402  0.0436 -0.0025
 2727SOL    HW110719   2.343   7.487   5.430 -0.8825 -2.2055 -0.2501
 2727SOL    HW210720   2.231   7.429   5.513 -1.3887  1.2364  1.5455
 2728SOL     OW10721   8.773   9.952   0.582 -0.4830 -0.8931  0.2407
 2728SOL    HW110722   8.701  10.012   0.602  0.1106 -0.8739  2.4880
 2728SOL    HW210723   8.844  10.009   0.553 -0.4034 -0.6217  0.9458
 2729SOL     OW10724   8.166   1.873   9.556 -0.1382  0.0755  0.3503
 2729SOL    HW110725   8.215   1.841   9.631  0.7837  1.7905  0.4995
 2729SOL    HW210726   8.222   1.855   9.481 -0.1735  0.1884  0.2966
 2730SOL     OW10727   0.408   4.281   6.865 -0.0055  0.6089  0.6386
 2730SOL    HW110728   0.451   4.292   6.780 -0.3793  2.7357  0.7118
 2730SOL    HW210729   0.473   4.236   6.919  0.7032  0.3872 -0.3819
 2731SOL     OW10730   5.677   0.183   4.007  0.5993 -0.1880  0.2846
 2731SOL    HW110731   5.711   0.263   4.046 -0.6653  0.7899 -0.5552
 2731SOL    HW210732   5.662   0.124   4.081  3.5511 -0.4741  0.7138
 2732SOL     OW10733   7.893   1.132   2.957 -0.1653  0.5724  0.3002
 2732SOL    HW110734   7.947   1.115   3.034  0.3187 -0.9830 -0.3518
 2732SOL    HW210735   7.931   1.210   2.917  2.0622 -0.8783 -0.5293
 2733SOL     OW10736   8.977  10.122   6.750  0.3912  0.0244 -0.7190
 2733SOL    HW110737   8.883  10.116   6.735  0.2486  0.2783  0.0421
 2733SOL    HW210738   9.003  10.033   6.774 -0.0775  0.4359  1.3850
 2734SOL     OW10739   7.599   2.069   8.039  0.6180  0.4475  0.3968
 2734SOL    HW110740   7.527   2.052   8.099  1.1089 -0.6163  0.7043
 2734SOL    HW210741   7.560   2.062   7.951  0.6646 -1.7796  0.5208
 2735SOL     OW10742   9.829   4.452   8.113 -0.2035  0.1516 -0.0415
 2735SOL    HW110743   9.854   4.497   8.033  1.2355  1.2766  1.0120
 2735SOL    HW210744   9.805   4.522   8.174 -1.9762 -0.7200  0.2927
 2736SOL     OW10745   6.811   0.363   2.625  0.4602 -0.8267 -0.1141
 2736SOL    HW110746   6.831   0.373   2.718  2.6914 -1.0860 -0.5249
 2736SOL    HW210747   6.769   0.278   2.617  0.7500 -1.0353  0.6023
 2737SOL     OW10748   9.102   6.820   3.826 -0.5294  0.1759  0.1042
 2737SOL    HW110749   9.060   6.905   3.815  0.1541  0.5408  0.3025
 2737SOL    HW210750   9.095   6.779   3.739 -2.0674 -0.1345  0.3531
 2738SOL     OW10751   3.569   7.140   3.225  0.1880 -0.3484  0.5152
 2738SOL    HW110752   3.621   7.079   3.172  0.5712 -0.8347  1.4280
 2738SOL    HW210753   3.618   7.222   3.224  1.0540 -0.8429  1.4751
 2739SOL     OW10754   7.472   3.758   1.076 -0.0733 -0.0943  0.2398
 2739SOL    HW110755   7.390   3.799   1.048 -0.1501 -0.9923 -0.8625
 2739SOL    HW210756   7.539   3.800   1.022  0.0599 -0.1887  0.3325
 2740SOL     OW10757   5.708   0.298   4.829 -0.3338 -0.0595 -0.2586
 2740SOL    HW110758   5.802   0.280   4.820 -0.2084 -1.3625  2.8953
 2740SOL    HW210759   5.666   0.234   4.772  0.6384 -0.3226 -0.7057
 2741SOL     OW10760   7.291   1.074   7.685  0.3392 -0.4504 -0.1395
 2741SOL    HW110761   7.371   1.061   7.736  0.1386  2.1264  0.9382
 2741SOL    HW210762   7.321   1.084   7.595  1.4373  1.8506  0.4329
 2742SOL     OW10763   8.032   7.470   5.679 -0.5515  0.0135 -0.4580
 2742SOL    HW110764   8.060   7.537   5.742  0.4251 -0.9473  0.1461
 2742SOL    HW210765   7.943   7.495   5.655 -0.5888  0.9120  0.5949
 2743SOL     OW10766   5.223   4.836   0.314 -0.1972 -0.2964  0.1120
 2743SOL    HW110767   5.236   4.741   0.312 -1.4703 -0.4618 -0.3451
 2743SOL    HW210768   5.135   4.848   0.347 -0.5758  0.6759 -1.1953
 2744SOL     OW10769   1.219   4.652  10.098  0.3809 -0.7469 -0.3335
 2744SOL    HW110770   1.248   4.610  10.180  1.5788 -0.8917 -0.8177
 2744SOL    HW210771   1.264   4.737  10.098  0.8107 -0.9705 -1.0929
 2745SOL     OW10772   8.615   0.945   5.338 -0.1970 -0.1054  0.0448
 2745SOL    HW110773   8.670   0.976   5.266  0.1376 -1.3694 -0.2488
 2745SOL    HW210774   8.531   0.990   5.324 -0.1383 -0.3427 -1.1369
 2746SOL     OW10775   7.438   0.352   3.532  0.1039  0.0243 -0.4656
 2746SOL    HW110776   7.500   0.314   3.595 -0.5651 -0.5748 -0.1571
 2746SOL    HW210777   7.413   0.436   3.571 -0.9677 -0.7278  0.5086
 2747SOL     OW10778   8.409   3.770   7.419  0.7192  0.2625  0.0064
 2747SOL    HW110779   8.365   3.699   7.372 -1.9201  1.7405  0.1557
 2747SOL    HW210780   8.345   3.800   7.484  2.0717  2.2612  0.4807
 2748SOL     OW10781   5.561   0.055   5.094  0.6987  0.4956  0.2643
 2748SOL    HW110782   5.528   0.002   5.021  0.8563 -0.8913  1.1737
 2748SOL    HW210783   5.511   0.136   5.089 -0.2423 -0.1192 -0.5895
 2749SOL     OW10784   1.848   4.063   0.818 -0.7208  0.4632 -0.2754
 2749SOL    HW110785   1.866   3.974   0.850 -1.2417 -0.3241 -2.0678
 2749SOL    HW210786   1.822   4.112   0.896  1.2881 -0.4715  1.0440
 2750SOL     OW10787   5.523   2.460   8.627  0.2508  0.2381 -0.4043
 2750SOL    HW110788   5.592   2.510   8.582  0.1057  1.3304  0.5657
 2750SOL    HW210789   5.462   2.527   8.658  0.9931 -0.3684  2.4910
 2751SOL     OW10790   1.471   8.862   3.103  0.0724  0.7606 -0.3378
 2751SOL    HW110791   1.561   8.828   3.106  0.2048  1.2040  3.5502
 2751SOL    HW210792   1.479   8.952   3.134 -1.7598  0.6814  0.3750
 2752SOL     OW10793   7.450   1.767   8.345 -0.0674  0.2150  0.7247
 2752SOL    HW110794   7.360   1.767   8.377 -0.8497 -0.3170 -1.3498
 2752SOL    HW210795   7.481   1.678   8.362 -0.8024 -0.3515 -0.7951
 2753SOL     OW10796   7.536   3.525   9.534  0.0442 -0.3346 -0.2076
 2753SOL    HW110797   7.533   3.597   9.596  1.8625 -0.5393  0.1402
 2753SOL    HW210798   7.463   3.543   9.474  0.0052  1.3817  0.3104
 2754SOL     OW10799   2.248   7.485   6.375  0.1470  0.0796 -1.1042
 2754SOL    HW110800   2.332   7.439   6.367  1.2879  2.1978 -1.9121
 2754SOL    HW210801   2.232   7.490   6.469  0.6661 -0.8384 -0.9680
 2755SOL     OW10802   0.602   7.941   1.941 -0.0271 -0.2634  0.3156
 2755SOL    HW110803   0.616   7.846   1.938  0.6506 -0.1993  1.2489
 2755SOL    HW210804   0.688   7.979   1.919 -0.1130  0.1294  0.6480
 2756SOL     OW10805   5.730   9.918   8.320  0.1713 -0.3157  0.0623
 2756SOL    HW110806   5.751   9.950   8.232  0.5400 -0.9233 -0.0769
 2756SOL    HW210807   5.773   9.979   8.379  0.6355 -0.3950 -0.1948
 2757SOL     OW10808   8.173   1.313   0.950 -0.1956  0.0971  0.4143
 2757SOL    HW110809   8.079   1.331   0.941 -0.0520 -0.0475 -1.5480
 2757SOL    HW210810   8.215   1.392   0.915  0.4020 -1.4191 -2.4054
 2758SOL     OW10811   0.727   2.859   2.733 -0.5612  0.4269  0.3025
 2758SOL    HW110812   0.713   2.822   2.645 -1.6748 -0.5432  0.8688
 2758SOL    HW210813   0.820   2.847   2.750 -0.4781 -0.0344 -0.4545
 2759SOL     OW10814   7.939   4.401   9.098 -0.8555 -0.5487 -0.6547
 2759SOL    HW110815   7.958   4.354   9.016 -1.1335  1.2575 -1.7655
 2759SOL    HW210816   7.843   4.408   9.100 -0.8657 -0.8013 -0.0424
 2760SOL     OW10817   7.645   7.237   1.300  0.4781  0.4861  0.2054
 2760SOL    HW110818   7.633   7.227   1.394  2.8905 -0.1416  0.4840
 2760SOL    HW210819   7.609   7.157   1.262  1.5910 -0.3139  0.8008
 2761SOL     OW10820   5.607   8.317   2.132 -0.5919 -0.1360  0.8501
 2761SOL    HW110821   5.513   8.299   2.127 -0.3838 -1.6560  1.9159
 2761SOL    HW210822   5.646   8.255   2.070 -0.2394 -0.1096  1.0433
 2762SOL     OW10823   7.383   7.156   4.631 -0.3224 -0.0402  0.3748
 2762SOL    HW110824   7.290   7.177   4.637  0.0103  1.2451  1.2569
 2762SOL    HW210825   7.427   7.235   4.662  1.0824 -0.4045 -0.6601
 2763SOL     OW10826   0.351   8.407   8.517 -0.1595 -0.2191  0.3656
 2763SOL    HW110827   0.419   8.382   8.455 -0.1797  0.6459 -0.0098
 2763SOL    HW210828   0.317   8.324   8.551 -0.6076 -0.7249 -1.2817
 2764SOL     OW10829   0.533   4.936   1.496  0.0304 -0.1063  0.1136
 2764SOL    HW110830   0.472   4.974   1.434  1.7630  2.2108 -0.2328
 2764SOL    HW210831   0.495   4.956   1.582 -0.1524  0.5692 -0.1188
 2765SOL     OW10832   6.631   7.396   4.844  0.0892  0.4423  0.4898
 2765SOL    HW110833   6.703   7.448   4.806 -0.0057  1.0453  1.1252
 2765SOL    HW210834   6.556   7.455   4.843 -0.6260 -0.4662 -0.9598
 2766SOL     OW10835   1.306   5.154   0.384 -0.3095 -0.3939  0.3049
 2766SOL    HW110836   1.293   5.105   0.303  3.2264 -1.1948  0.1708
 2766SOL    HW210837   1.355   5.231   0.358  1.7245 -1.1427  1.7831
 2767SOL     OW10838   9.667   1.230   8.452  0.1142  0.0721  0.2103
 2767SOL    HW110839   9.759   1.226   8.429  0.7258 -0.8312  2.7524
 2767SOL    HW210840   9.643   1.141   8.475 -1.2511  0.4149  0.2001
 2768SOL     OW10841  10.062   5.219   1.444 -0.0888 -0.4199  0.2021
 2768SOL    HW110842  10.024   5.174   1.519 -1.3848 -0.1278 -0.2808
 2768SOL    HW210843  10.154   5.233   1.469 -0.4342 -0.6032  1.5876
 2769SOL     OW10844   3.348   2.960   1.307 -0.3417  0.4178  0.0800
 2769SOL    HW110845   3.343   2.939   1.400  0.7793  1.6802  0.4455
 2769SOL    HW210846   3.274   3.018   1.292 -2.1947 -1.9971 -0.4699
 2770SOL     OW10847   8.829   2.634   6.150  0.0745  0.8149 -0.2294
 2770SOL    HW110848   8.895   2.608   6.085  0.1305 -0.6837  0.3972
 2770SOL    HW210849   8.880   2.658   6.227 -0.0918 -0.6491  0.3621
 2771SOL     OW10850   4.301   7.535   4.261 -0.1900  0.2326 -0.4172
 2771SOL    HW110851   4.210   7.557   4.281  0.2050  0.9147  0.6801
 2771SOL    HW210852   4.302   7.439   4.254 -0.9051  0.1984 -0.0570
 2772SOL     OW10853   0.097   6.090   5.495  0.7734  0.7755 -0.4221
 2772SOL    HW110854   0.156   6.065   5.424  1.5999 -0.0965  0.5483
 2772SOL    HW210855   0.139   6.056   5.574 -1.9146 -1.4342  0.1378
 2773SOL     OW10856   6.204   5.432   6.810 -0.4190  0.0546 -0.1771
 2773SOL    HW110857   6.280   5.468   6.856  0.4120  0.0819 -1.5308
 2773SOL    HW210858   6.158   5.380   6.875  0.9695 -0.2579  0.5671
 2774SOL     OW10859   7.924   1.753   3.019  0.1536 -0.4583 -0.0950
 2774SOL    HW110860   7.943   1.844   2.994  0.2848 -0.4998 -0.1441
 2774SOL    HW210861   7.877   1.717   2.944 -0.9109 -0.0914  0.3815
 2775SOL     OW10862   5.362   9.846   7.438  0.4462 -0.2425  0.5616
 2775SOL    HW110863   5.433   9.880   7.493  2.2462 -1.1964 -1.0910
 2775SOL    HW210864   5.406   9.787   7.377 -2.0310 -2.2063  0.6133
 2776SOL     OW10865   4.888   5.219   4.490 -0.0792 -0.0461  0.1337
 2776SOL    HW110866   4.809   5.261   4.457  1.1001  1.3627 -0.9639
 2776SOL    HW210867   4.856   5.148   4.546 -2.1164 -0.2032 -1.1704
 2777SOL     OW10868   3.519   3.492   7.636 -0.3402  0.3783 -0.2269
 2777SOL    HW110869   3.474   3.527   7.559 -1.2825 -0.4387 -0.0557
 2777SOL    HW210870   3.515   3.397   7.625  0.6261  0.2814  0.2066
 2778SOL     OW10871   6.208   7.945   1.909  0.1953 -0.1152  0.6499
 2778SOL    HW110872   6.170   8.030   1.886  0.3687  0.3097  1.9139
 2778SOL    HW210873   6.133   7.891   1.933  0.0991 -0.2782 -0.0086
 2779SOL     OW10874   0.173   2.693   5.793 -0.1504 -0.9420  0.3047
 2779SOL    HW110875   0.215   2.683   5.708 -1.4174 -2.1082 -0.2110
 2779SOL    HW210876   0.083   2.665   5.778 -0.7958  0.3178  1.6687
 2780SOL     OW10877   6.942   9.894   4.977  0.2608 -0.0463 -0.3063
 2780SOL    HW110878   6.956   9.971   5.032  0.2120  0.0130 -0.3765
 2780SOL    HW210879   6.902   9.929   4.897  1.4474  0.0271 -0.8861
 2781SOL     OW10880   8.209   7.821   5.542  0.6386 -0.7390 -0.3126
 2781SOL    HW110881   8.203   7.747   5.481  2.7013 -1.0704 -0.1379
 2781SOL    HW210882   8.230   7.896   5.486 -4.1065  0.3405 -0.8702
 2782SOL     OW10883   6.193   6.651   3.601 -0.3122  0.8053 -0.1586
 2782SOL    HW110884   6.114   6.676   3.648 -1.2670  0.9287 -1.7672
 2782SOL    HW210885   6.215   6.728   3.548  0.4050  0.4754 -0.3540
 2783SOL     OW10886   5.788   9.082   2.704 -0.3856 -0.0619  0.0686
 2783SOL    HW110887   5.763   9.150   2.641  0.6976  0.3196  0.0511
 2783SOL    HW210888   5.713   9.022   2.705  0.2792 -1.0313 -2.8958
 2784SOL     OW10889   1.908   3.464   6.700 -0.8444 -0.6648 -0.6963
 2784SOL    HW110890   1.844   3.448   6.770  0.5243 -0.7439  0.5466
 2784SOL    HW210891   1.899   3.387   6.643  0.2450 -2.1770  1.1013
 2785SOL     OW10892   6.072   3.312   4.397  0.0368 -0.0448 -0.5763
 2785SOL    HW110893   6.001   3.262   4.438  1.1715 -0.4392  0.9673
 2785SOL    HW210894   6.133   3.246   4.364  1.9387  0.2176  2.1642
 2786SOL     OW10895   4.385   7.328   5.034 -0.2905 -0.0600  0.4054
 2786SOL    HW110896   4.336   7.250   5.060  0.3328 -0.9514 -1.0008
 2786SOL    HW210897   4.349   7.399   5.087 -1.8748 -1.0328  0.6401
 2787SOL     OW10898   4.061   9.557   3.677  0.4834  0.2506  0.1321
 2787SOL    HW110899   4.034   9.587   3.763 -2.6681 -1.0326 -0.3551
 2787SOL    HW210900   4.072   9.462   3.687  3.1273  0.4767 -0.1602
 2788SOL     OW10901   8.575   5.634   2.086  0.2492 -0.3483 -0.0166
 2788SOL    HW110902   8.660   5.612   2.047 -0.0088 -0.6060 -0.4316
 2788SOL    HW210903   8.582   5.603   2.177  0.6289 -0.2942 -0.0255
 2789SOL     OW10904   9.375   3.487   5.450  0.2898  0.0441  0.0057
 2789SOL    HW110905   9.389   3.394   5.434 -1.5785 -0.7158  2.4033
 2789SOL    HW210906   9.437   3.508   5.520  1.1147  0.7667 -0.9261
 2790SOL     OW10907   3.652   0.332   3.018  1.1660 -0.0035  0.2240
 2790SOL    HW110908   3.642   0.273   2.943  1.5292  0.9276 -0.5680
 2790SOL    HW210909   3.563   0.348   3.049  0.8494  1.2598 -1.3091
 2791SOL     OW10910   6.969   8.647   1.368  0.1349  0.5410 -0.3288
 2791SOL    HW110911   6.889   8.662   1.318  1.4765 -0.5786 -2.9234
 2791SOL    HW210912   6.995   8.734   1.399 -2.1773  0.8780  0.7429
 2792SOL     OW10913   0.812   5.566   1.505  0.1226 -0.1582 -0.0187
 2792SOL    HW110914   0.797   5.518   1.423 -0.2578  0.2714 -0.2080
 2792SOL    HW210915   0.893   5.529   1.540 -0.6564 -1.5689  0.3108
 2793SOL     OW10916   2.520   0.695   6.358 -0.0778 -0.2158 -0.8234
 2793SOL    HW110917   2.454   0.669   6.422 -0.2481 -1.6735 -1.5713
 2793SOL    HW210918   2.521   0.791   6.362 -0.7147 -0.2598  0.7083
 2794SOL     OW10919   6.267   0.477   5.330  0.1882  0.0382 -1.0279
 2794SOL    HW110920   6.348   0.461   5.379 -0.3138 -0.1033 -0.2356
 2794SOL    HW210921   6.247   0.569   5.346 -0.5289 -0.2666 -0.1191
 2795SOL     OW10922   5.975   9.927   1.624 -0.4035  0.2093 -0.2714
 2795SOL    HW110923   5.881   9.945   1.620 -0.0180  2.2809 -0.2176
 2795SOL    HW210924   5.993   9.879   1.543 -1.3735  0.4620 -0.6473
 2796SOL     OW10925   6.795   3.954   2.101 -0.3871 -0.3257 -0.6695
 2796SOL    HW110926   6.857   3.884   2.081 -0.1233 -0.7527  1.5431
 2796SOL    HW210927   6.809   3.973   2.193 -1.7732  1.3608 -0.7744
 2797SOL     OW10928   4.120   3.040   3.755  0.3861  0.0233  0.1398
 2797SOL    HW110929   4.072   3.026   3.836 -2.4338 -3.0459 -1.9376
 2797SOL    HW210930   4.211   3.023   3.778 -0.6633 -3.3360  2.1238
 2798SOL     OW10931   3.145   5.465   3.778  0.3004 -0.3296 -0.4422
 2798SOL    HW110932   3.155   5.464   3.682  1.3465 -0.9367 -0.3346
 2798SOL    HW210933   3.229   5.433   3.811  1.0787  2.7771  0.7599
 2799SOL     OW10934   5.245   2.680   1.501  0.0888 -0.1491  0.6586
 2799SOL    HW110935   5.253   2.768   1.465  1.1640 -0.2092  0.7368
 2799SOL    HW210936   5.209   2.628   1.428 -1.6906  0.5806  0.9823
 2800SOL     OW10937   6.468   7.111   3.028 -0.4171  0.5685  0.0133
 2800SOL    HW110938   6.482   7.087   2.937  0.0755 -1.5363  0.5999
 2800SOL    HW210939   6.542   7.168   3.050  0.5455 -0.5260 -0.3541
 2801SOL     OW10940   4.597   0.776   2.082 -0.3223  0.3844 -0.3160
 2801SOL    HW110941   4.648   0.697   2.064 -1.4856 -0.5891  0.5691
 2801SOL    HW210942   4.506   0.749   2.067 -0.8659  1.0565  1.6433
 2802SOL     OW10943   4.975   2.806   4.417  0.4154  0.3006 -0.0853
 2802SOL    HW110944   4.926   2.757   4.483 -0.0113  0.3887 -0.3308
 2802SOL    HW210945   5.059   2.761   4.411  0.9638  1.0697  1.4543
 2803SOL     OW10946   4.172   6.832   6.904  0.1599 -0.1365  0.1206
 2803SOL    HW110947   4.107   6.901   6.889 -0.7200 -0.4688  2.1931
 2803SOL    HW210948   4.154   6.767   6.836 -0.8462  0.3637 -0.1034
 2804SOL     OW10949   4.193   1.483   3.131  0.2341  0.0150  0.5450
 2804SOL    HW110950   4.167   1.440   3.049 -0.5220 -0.8265  1.2142
 2804SOL    HW210951   4.261   1.427   3.168 -0.6960 -0.5731  1.3810
 2805SOL     OW10952   4.786   9.333   3.568  0.2645  0.0775  0.5021
 2805SOL    HW110953   4.854   9.290   3.621 -0.6493 -1.4355  0.4777
 2805SOL    HW210954   4.718   9.267   3.560 -0.1220  0.7167 -1.5911
 2806SOL     OW10955   6.381   0.535   5.642 -0.5681  0.5955  0.2852
 2806SOL    HW110956   6.435   0.461   5.667 -0.3687  0.5221 -0.3606
 2806SOL    HW210957   6.294   0.514   5.677 -1.3971 -1.6135 -2.8667
 2807SOL     OW10958   1.370   2.772   5.555  0.6405 -0.0429  0.1521
 2807SOL    HW110959   1.336   2.702   5.499  1.2435 -0.5746  0.4432
 2807SOL    HW210960   1.337   2.853   5.516  1.4228 -0.3835 -1.2465
 2808SOL     OW10961   2.263   2.001   9.462 -0.5534  0.3122 -1.3245
 2808SOL    HW110962   2.346   1.961   9.487 -1.3185 -0.6556 -0.2744
 2808SOL    HW210963   2.261   2.084   9.510  0.1326  0.7010 -1.9458
 2809SOL     OW10964   7.330   9.416   8.276  0.3894 -0.6933 -0.0736
 2809SOL    HW110965   7.335   9.449   8.365  2.0003 -0.9117 -0.0655
 2809SOL    HW210966   7.244   9.374   8.270 -0.2226  0.3896  0.9901
 2810SOL     OW10967   9.777   2.043   1.974  0.2526 -0.0494 -0.6079
 2810SOL    HW110968   9.752   2.055   2.065 -0.2143  1.4371 -0.9157
 2810SOL    HW210969   9.864   2.003   1.978 -0.1906 -0.9191  0.4769
 2811SOL     OW10970   9.271   3.910   2.476  0.5489 -0.8475 -0.2213
 2811SOL    HW110971   9.234   3.879   2.393  0.0466  1.7837 -1.0299
 2811SOL    HW210972   9.265   4.005   2.471  0.0451 -0.6383  3.0731
 2812SOL     OW10973   6.078   2.334   0.072  0.4845 -0.1352  0.0733
 2812SOL    HW110974   6.096   2.287   0.153  1.2678  0.3458  0.1808
 2812SOL    HW210975   6.078   2.427   0.097  1.7392  0.0787 -0.6518
 2813SOL     OW10976   5.787   7.940   6.225 -0.1526 -0.1282  0.0109
 2813SOL    HW110977   5.772   7.864   6.169  0.2749 -0.6180  0.5481
 2813SOL    HW210978   5.882   7.941   6.239 -0.1079  0.7402 -0.3139
 2814SOL     OW10979   2.903   4.735   6.412 -0.3824 -0.1932 -0.5575
 2814SOL    HW110980   2.835   4.682   6.370 -0.1201 -0.4986 -0.5924
 2814SOL    HW210981   2.896   4.821   6.369 -3.6462  1.1360  2.4097
 2815SOL     OW10982   1.682   1.306   3.155  0.4460  0.3147 -0.0450
 2815SOL    HW110983   1.735   1.319   3.233 -0.1262 -0.9687  0.5691
 2815SOL    HW210984   1.638   1.390   3.141  2.5683  1.3806 -0.5369
 2816SOL     OW10985   9.899   4.565   6.799  0.6634 -0.2478 -0.0741
 2816SOL    HW110986   9.827   4.503   6.808 -0.5383  0.8988 -1.4018
 2816SOL    HW210987   9.945   4.537   6.720  0.6612  0.0120 -0.1677
 2817SOL     OW10988   0.196   3.589   4.693 -0.6159 -0.7217  0.0639
 2817SOL    HW110989   0.164   3.517   4.747 -1.3971 -1.4053 -1.2902
 2817SOL    HW210990   0.261   3.633   4.748 -1.0600 -1.6794  1.3800
 2818SOL     OW10991   4.837   0.094   8.101 -0.1683 -0.1992 -0.2474
 2818SOL    HW110992   4.920   0.046   8.114 -0.6960 -0.8310  0.8762
 2818SOL    HW210993   4.858   0.184   8.125 -0.1894 -0.6636  1.6284
 2819SOL     OW10994   0.860   3.126   3.549  0.1818 -0.0804  0.2608
 2819SOL    HW110995   0.870   3.214   3.512 -0.5853  0.5933  1.6243
 2819SOL    HW210996   0.804   3.081   3.486  0.3597  0.4881 -0.3172
 2820SOL     OW10997   0.813   9.131   5.964  0.1790  0.4386 -0.2409
 2820SOL    HW110998   0.721   9.156   5.968 -0.2458 -1.1476  0.3784
 2820SOL    HW210999   0.823   9.089   5.878  0.5300  1.3718 -0.6603
 2821SOL     OW11000   6.705   8.916   8.965  0.0682  0.2361  0.0796
 2821SOL    HW111001   6.666   8.912   8.878 -0.0304  3.1238 -0.0788
 2821SOL    HW211002   6.636   8.885   9.024  0.6723 -3.2822 -0.9443
 2822SOL     OW11003   1.370   0.001   0.364 -0.8278 -0.3120  0.2613
 2822SOL    HW111004   1.442  -0.028   0.308 -1.3826 -0.1836 -0.5308
 2822SOL    HW211005   1.336  -0.079   0.403 -1.2824 -0.5543 -0.6186
 2823SOL     OW11006   6.953   5.427   2.080  0.3943  0.1815  0.2679
 2823SOL    HW111007   7.028   5.450   2.135 -1.2812  1.2270  2.2009
 2823SOL    HW211008   6.989   5.372   2.011  3.3879  3.0636 -0.5267
 2824SOL     OW11009   7.649   6.597   6.091  0.2926  0.0903  0.5516
 2824SOL    HW111010   7.666   6.534   6.161 -1.7606  0.1438  1.1312
 2824SOL    HW211011   7.735   6.615   6.053  1.3233 -0.6036  2.4986
 2825SOL     OW11012   9.948   0.310   6.152 -0.4675 -0.3491  0.3060
 2825SOL    HW111013   9.890   0.368   6.202 -0.4624  0.5764 -0.7405
 2825SOL    HW211014   9.898   0.288   6.073  1.3880  2.2185 -1.6692
 2826SOL     OW11015   2.383   2.556   3.189 -1.0062 -0.1556 -0.1237
 2826SOL    HW111016   2.403   2.645   3.218 -0.4733 -0.8157  1.5773
 2826SOL    HW211017   2.401   2.557   3.095  0.8566  1.0225  0.2145
 2827SOL     OW11018   4.322   6.320   6.600 -0.2171 -0.3955  0.3396
 2827SOL    HW111019   4.314   6.267   6.680  0.5528  0.0603  0.7302
 2827SOL    HW211020   4.347   6.407   6.632 -3.1852  0.6875 -0.1693
 2828SOL     OW11021   2.446   0.675   9.607 -0.3334 -0.2805  0.0382
 2828SOL    HW111022   2.409   0.650   9.523  0.9464 -0.1407 -0.5804
 2828SOL    HW211023   2.417   0.765   9.620 -1.3878 -0.6481  0.2387
 2829SOL     OW11024   7.765   9.574   3.057 -1.1893 -0.0804  0.0500
 2829SOL    HW111025   7.820   9.496   3.065 -0.9150  0.4493  4.7702
 2829SOL    HW211026   7.810   9.628   2.993  2.0381 -1.1648  1.2633
 2830SOL     OW11027   5.997   0.681   2.366 -0.1014  0.0695 -0.2663
 2830SOL    HW111028   6.059   0.627   2.317 -1.5256 -2.1657  0.2686
 2830SOL    HW211029   5.953   0.734   2.300  1.5211  0.8008 -0.7780
 2831SOL     OW11030   7.966   4.675   4.397 -0.1175 -0.1881  0.2212
 2831SOL    HW111031   7.967   4.585   4.366 -1.1460  0.3662 -1.5193
 2831SOL    HW211032   8.052   4.710   4.373  0.0769 -0.5323  0.4092
 2832SOL     OW11033   1.123  10.030   1.247 -0.4044 -0.4401  0.2119
 2832SOL    HW111034   1.035  10.054   1.274  0.1986  1.1859  0.7463
 2832SOL    HW211035   1.120  10.030   1.151 -1.2017 -1.2436  0.2341
 2833SOL     OW11036   0.133   5.096   9.645  0.5021 -0.1302 -0.2978
 2833SOL    HW111037   0.050   5.071   9.685 -0.5785  2.2565 -0.9926
 2833SOL    HW211038   0.177   5.148   9.713  0.0819  1.1837 -1.0262
 2834SOL     OW11039   3.912   7.860   2.076 -0.4920  0.1156 -0.3195
 2834SOL    HW111040   3.929   7.922   2.006  1.3250 -0.8599 -0.7793
 2834SOL    HW211041   3.863   7.789   2.034 -0.0784 -0.0980 -0.4530
 2835SOL     OW11042   7.861   6.906   2.486  0.0622 -0.0641  0.1029
 2835SOL    HW111043   7.831   6.879   2.399 -0.8679  1.7125 -0.1428
 2835SOL    HW211044   7.788   6.886   2.544  0.1292  0.0905  0.2394
 2836SOL     OW11045   3.510   4.580   5.141 -0.7419 -0.3120 -0.1361
 2836SOL    HW111046   3.469   4.544   5.219  0.6461  1.9358  1.7240
 2836SOL    HW211047   3.455   4.551   5.069 -3.5888 -0.2569  1.9248
 2837SOL     OW11048   6.541   8.240   2.275  0.2003 -0.3981 -0.2914
 2837SOL    HW111049   6.534   8.189   2.356 -1.3888  1.3864  0.7234
 2837SOL    HW211050   6.465   8.214   2.224 -0.4349  0.7066  0.0879
 2838SOL     OW11051   2.443   0.663   5.893  0.5375 -0.5644 -0.1049
 2838SOL    HW111052   2.386   0.737   5.912 -0.2370 -1.2689  0.3594
 2838SOL    HW211053   2.531   0.700   5.888  0.1223  0.4145 -0.1042
 2839SOL     OW11054   2.371   4.153   9.687 -0.2082  0.2509 -0.7529
 2839SOL    HW111055   2.307   4.192   9.628  0.1620  1.3799 -0.4279
 2839SOL    HW211056   2.432   4.224   9.707  0.2148 -0.3681  0.2246
 2840SOL     OW11057   2.416   4.752   9.098 -0.0935 -0.4845 -0.1905
 2840SOL    HW111058   2.403   4.658   9.085 -1.8620 -0.4166  0.8583
 2840SOL    HW211059   2.333   4.791   9.071 -0.3202  0.5175  1.8765
 2841SOL     OW11060   4.197   1.884   4.566 -0.1962 -0.6331 -1.0460
 2841SOL    HW111061   4.287   1.874   4.597 -0.4275 -1.6487 -0.6832
 2841SOL    HW211062   4.143   1.842   4.634 -0.9833  0.4143 -1.0036
 2842SOL     OW11063   4.762   4.912   7.996  0.4945 -0.5826 -0.1445
 2842SOL    HW111064   4.685   4.856   7.991  0.4130 -0.4875  0.0055
 2842SOL    HW211065   4.835   4.852   8.010  0.9483 -0.9905 -3.8330
 2843SOL     OW11066   9.744   3.940   8.415 -0.3342 -0.0318  0.3075
 2843SOL    HW111067   9.827   3.930   8.368 -1.6181 -4.6580 -1.2439
 2843SOL    HW211068   9.761   3.904   8.502 -0.4384 -0.0860  0.3064
 2844SOL     OW11069   0.469   1.325   1.100  0.3065  0.5766  0.2448
 2844SOL    HW111070   0.400   1.279   1.147  0.2162  0.3263 -0.1270
 2844SOL    HW211071   0.470   1.413   1.137 -0.5151  0.7155 -0.0580
 2845SOL     OW11072   4.155   6.476   2.605  0.2662  0.1231 -0.3826
 2845SOL    HW111073   4.222   6.544   2.601  0.4679 -0.0632 -0.2137
 2845SOL    HW211074   4.204   6.394   2.596 -0.1453  0.0712 -2.2303
 2846SOL     OW11075   7.147   1.499   8.641 -0.3529 -0.0679 -0.3934
 2846SOL    HW111076   7.142   1.462   8.729 -0.3983 -0.0776 -0.3998
 2846SOL    HW211077   7.199   1.436   8.591  1.0974  0.7421  0.0422
 2847SOL     OW11078   2.368   9.109   8.897 -0.4915 -0.3241  0.4255
 2847SOL    HW111079   2.392   9.171   8.828 -1.8203  0.1892  0.4118
 2847SOL    HW211080   2.277   9.086   8.878  0.1244 -2.6249  0.1830
 2848SOL     OW11081   1.052   7.746   2.886 -0.1933 -0.1191 -0.3855
 2848SOL    HW111082   1.070   7.840   2.879 -1.2714  0.2519  1.6173
 2848SOL    HW211083   1.108   7.707   2.819 -0.9440  2.0831 -2.4287
 2849SOL     OW11084   1.575   3.116   9.844  0.0701  0.1853  0.0853
 2849SOL    HW111085   1.645   3.120   9.779  0.4460 -0.8276  0.4240
 2849SOL    HW211086   1.602   3.048   9.905 -1.2855 -0.3365  0.1261
 2850SOL     OW11087   4.067   6.981   6.580  0.0027  0.7073  0.2193
 2850SOL    HW111088   4.060   6.969   6.486  0.2671  2.2758 -0.0089
 2850SOL    HW211089   3.983   6.950   6.615  0.9451 -2.5183 -0.2303
 2851SOL     OW11090   0.646   0.551   6.517 -0.3724  0.5981 -0.3555
 2851SOL    HW111091   0.648   0.487   6.446  2.9377  0.2511  0.0136
 2851SOL    HW211092   0.616   0.502   6.593 -0.5898  0.1666 -0.7171
 2852SOL     OW11093   3.981   8.724   2.383 -0.7816  1.2666 -0.5095
 2852SOL    HW111094   4.024   8.752   2.463  0.8553 -1.5890 -0.3493
 2852SOL    HW211095   4.047   8.736   2.314 -0.3579 -1.3188 -0.5702
 2853SOL     OW11096   7.768   2.495   2.484  0.0290  0.1845  0.0237
 2853SOL    HW111097   7.856   2.481   2.520  0.2878  0.6508 -0.4122
 2853SOL    HW211098   7.759   2.591   2.482 -0.1329  0.1550 -0.7871
 2854SOL     OW11099   9.518   3.332   7.004  0.1781 -0.0511  0.4582
 2854SOL    HW111100   9.436   3.354   6.960 -0.0469 -0.5313  0.6395
 2854SOL    HW211101   9.579   3.400   6.975  0.2473 -0.8105 -1.2433
 2855SOL     OW11102   2.766   7.138   4.004 -0.0036 -0.9247 -0.1592
 2855SOL    HW111103   2.826   7.149   3.930  0.9459 -0.1652  0.7073
 2855SOL    HW211104   2.798   7.200   4.069 -0.3142 -2.1965  1.2180
 2856SOL     OW11105   0.445   7.521   3.721 -0.2223 -0.0843 -0.4179
 2856SOL    HW111106   0.361   7.490   3.686 -0.5550 -0.1985  0.4558
 2856SOL    HW211107   0.477   7.447   3.774  1.0003 -0.4839 -1.6981
 2857SOL     OW11108   8.551   2.786   4.459  0.0005 -0.1449  0.1227
 2857SOL    HW111109   8.635   2.758   4.421 -1.8680 -2.4259 -2.5768
 2857SOL    HW211110   8.534   2.871   4.419 -0.3531 -1.0125 -1.6006
 2858SOL     OW11111   4.712   1.784   3.712  0.4961 -0.3446 -0.2818
 2858SOL    HW111112   4.768   1.758   3.639  1.0512  1.6320 -0.5946
 2858SOL    HW211113   4.754   1.744   3.789  2.2182  0.8938 -0.5406
 2859SOL     OW11114   1.600   9.594   8.680  0.0405 -0.2282 -0.3567
 2859SOL    HW111115   1.632   9.672   8.636 -1.9916  1.3229  0.8221
 2859SOL    HW211116   1.676   9.559   8.726  0.6626  1.9590  0.3513
 2860SOL     OW11117   8.914   5.891   2.805  0.3526 -0.3415  0.9394
 2860SOL    HW111118   8.888   5.824   2.868  2.8425 -0.7162  1.6253
 2860SOL    HW211119   8.971   5.951   2.854 -0.5660  1.4071 -0.0518
 2861SOL     OW11120   7.925   4.321   2.562 -0.1488 -0.0263 -0.8781
 2861SOL    HW111121   7.872   4.269   2.622  0.9933 -0.4940 -0.2458
 2861SOL    HW211122   7.997   4.263   2.537  0.3304  0.7495 -1.3254
 2862SOL     OW11123   6.535   1.999   1.109 -0.3738  0.0910  0.0168
 2862SOL    HW111124   6.585   1.919   1.094  0.1113  0.3620  0.1929
 2862SOL    HW211125   6.488   2.013   1.026 -1.7419 -1.2656  0.5375
 2863SOL     OW11126   7.559   2.089   6.902 -0.7295  0.2009  0.1044
 2863SOL    HW111127   7.532   2.120   6.988  0.8401 -0.6991  0.9317
 2863SOL    HW211128   7.628   2.149   6.875 -0.3352 -0.2859  0.0308
 2864SOL     OW11129   0.860   6.575   8.625 -0.5631 -0.3525 -0.2919
 2864SOL    HW111130   0.930   6.632   8.594 -1.0909  0.5240  0.1321
 2864SOL    HW211131   0.789   6.634   8.648 -0.7934 -1.1215  0.9977
 2865SOL     OW11132   4.413   3.493   1.350 -0.0170 -0.0656 -0.3949
 2865SOL    HW111133   4.428   3.463   1.440  2.5503 -0.8911 -1.0543
 2865SOL    HW211134   4.318   3.487   1.338 -0.2670 -1.0041  1.8980
 2866SOL     OW11135   8.878   6.173   3.585  0.6526  0.1086 -0.3587
 2866SOL    HW111136   8.788   6.175   3.552  0.8992  1.1119 -0.9643
 2866SOL    HW211137   8.915   6.092   3.549  1.0644  1.3955 -2.9476
 2867SOL     OW11138   2.288   6.050  10.144  0.3837  0.2523 -0.3363
 2867SOL    HW111139   2.362   5.990  10.152  0.1155 -0.2737 -1.7310
 2867SOL    HW211140   2.252   6.034  10.057 -1.3632  0.5242  0.3023
 2868SOL     OW11141   7.962   0.447   5.310  0.2316 -0.1951  0.4618
 2868SOL    HW111142   7.983   0.481   5.223 -0.4848  1.3270  0.8672
 2868SOL    HW211143   7.939   0.355   5.295  1.0314 -0.2020 -0.8123
 2869SOL     OW11144   4.552   0.693   9.131  0.1854 -0.1200  0.1615
 2869SOL    HW111145   4.641   0.726   9.123  0.3138 -1.0115 -2.4237
 2869SOL    HW211146   4.500   0.747   9.072 -0.6376 -0.8679  0.1885
 2870SOL     OW11147   4.090   2.388   3.935 -0.4233  0.3890  0.4371
 2870SOL    HW111148   4.127   2.435   4.010  1.4559 -0.1511 -0.1143
 2870SOL    HW211149   4.107   2.445   3.860  0.4302 -0.4332 -0.0041
 2871SOL     OW11150   8.752   5.004   2.515 -0.1469 -0.1485  0.3965
 2871SOL    HW111151   8.798   4.925   2.486 -0.8061  0.2870 -1.9618
 2871SOL    HW211152   8.708   4.978   2.596 -1.3113 -2.5908 -0.9430
 2872SOL     OW11153   9.309   2.034   5.833 -0.4544  0.8413  0.0665
 2872SOL    HW111154   9.257   2.036   5.752  0.1631  0.4298 -0.3444
 2872SOL    HW211155   9.352   2.119   5.835 -0.6642  0.9475  0.0875
 2873SOL     OW11156   2.734   9.808   1.501  0.4650 -0.1633  0.6125
 2873SOL    HW111157   2.691   9.757   1.432  1.4278  0.8484 -0.7818
 2873SOL    HW211158   2.664   9.861   1.540 -0.2321 -1.3422  0.9611
 2874SOL     OW11159   8.202   0.739   0.033  0.0439 -0.9283  0.0061
 2874SOL    HW111160   8.233   0.812   0.085  0.2376 -0.4512 -0.7720
 2874SOL    HW211161   8.263   0.668   0.051  0.6205 -0.4974 -0.2351
 2875SOL     OW11162   5.461   1.163   0.651 -0.0071 -0.0847 -0.4087
 2875SOL    HW111163   5.443   1.118   0.569 -2.0495  0.8994 -0.5310
 2875SOL    HW211164   5.420   1.108   0.718  0.1462  0.0034 -0.2426
 2876SOL     OW11165   3.648   8.433   2.430  0.2350 -0.1886  0.0584
 2876SOL    HW111166   3.676   8.494   2.361  1.0845 -1.6138 -0.8758
 2876SOL    HW211167   3.688   8.467   2.510 -0.2136  1.1010 -0.2445
 2877SOL     OW11168   5.569   8.529   6.817 -0.3492 -0.0352 -0.3424
 2877SOL    HW111169   5.605   8.470   6.883 -0.8980 -0.6046 -0.5435
 2877SOL    HW211170   5.510   8.587   6.865  0.6828  0.7871 -0.0412
 2878SOL     OW11171   9.233   5.838   1.633  0.2131 -0.5850  0.6964
 2878SOL    HW111172   9.143   5.864   1.654  0.1110  0.6697 -1.1926
 2878SOL    HW211173   9.288   5.899   1.681  0.0088  0.8671 -0.8940
 2879SOL     OW11174   0.842   3.944   2.300  0.2869 -0.0637  0.2816
 2879SOL    HW111175   0.816   3.929   2.391 -1.7568 -0.6234 -0.3603
 2879SOL    HW211176   0.772   3.999   2.264  2.0896  1.8366 -0.4367
 2880SOL     OW11177   1.045   2.041   6.399 -0.0425  0.1853  0.3190
 2880SOL    HW111178   0.992   2.120   6.385  1.9031  1.2555 -1.2394
 2880SOL    HW211179   1.126   2.073   6.438  0.7662 -1.0499 -0.3128
 2881SOL     OW11180   9.836   1.990   6.112  0.4640 -0.3142  0.0116
 2881SOL    HW111181   9.771   2.047   6.153  0.5344 -0.1657 -0.0832
 2881SOL    HW211182   9.903   1.977   6.179  0.7347  0.1790 -0.1568
 2882SOL     OW11183   9.835   0.373   9.454  0.0160  0.7088  0.2825
 2882SOL    HW111184   9.778   0.369   9.530 -0.4791  0.4137 -0.0993
 2882SOL    HW211185   9.923   0.382   9.490 -0.1981  0.3979  0.8906
 2883SOL     OW11186   1.341   2.560   1.117  0.1827  0.9143 -0.3577
 2883SOL    HW111187   1.376   2.475   1.091 -1.6001  0.0484 -0.0118
 2883SOL    HW211188   1.315   2.602   1.035  0.0066  0.6321 -0.4477
 2884SOL     OW11189   8.463   2.621   5.537  0.0856 -0.1915  0.3020
 2884SOL    HW111190   8.447   2.535   5.497  0.0354 -0.0757  0.0713
 2884SOL    HW211191   8.514   2.602   5.615  0.0031 -0.4414  0.2958
 2885SOL     OW11192   9.981   5.398   3.064 -0.5611  0.0347 -0.1890
 2885SOL    HW111193   9.935   5.385   3.147 -0.5348  1.6674  0.0995
 2885SOL    HW211194  10.057   5.451   3.088  0.9636 -1.8032 -0.8139
 2886SOL     OW11195   8.264   0.974   0.179  0.0374 -0.3338  0.2414
 2886SOL    HW111196   8.265   1.069   0.167 -0.5960 -0.1307  1.7763
 2886SOL    HW211197   8.239   0.961   0.270  0.7869 -1.9673  0.2242
 2887SOL     OW11198   6.338   1.611   4.424  0.3130  0.3399 -0.2173
 2887SOL    HW111199   6.396   1.581   4.355  0.3053 -1.5327  0.5657
 2887SOL    HW211200   6.254   1.569   4.405 -0.3979  1.8199 -0.4757
 2888SOL     OW11201   3.047   5.931   1.063 -0.4031  0.1328  0.0709
 2888SOL    HW111202   3.060   5.888   0.978  0.2338 -0.9529  0.7043
 2888SOL    HW211203   3.125   5.907   1.113  0.1873  2.4275  0.2875
 2889SOL     OW11204   4.944   9.027   1.029  0.2024  0.1237 -0.0506
 2889SOL    HW111205   4.851   9.018   1.051  0.6642 -0.1888  1.8394
 2889SOL    HW211206   4.983   8.944   1.055  1.2261  0.6905  0.2243
 2890SOL     OW11207   9.238   8.158   4.716  0.5377  0.2829  0.0332
 2890SOL    HW111208   9.322   8.114   4.708 -0.5066 -1.6828 -0.4127
 2890SOL    HW211209   9.195   8.142   4.632  0.1668  2.2825 -0.1971
 2891SOL     OW11210   7.080   5.585   8.607  0.4811 -0.3304 -0.6154
 2891SOL    HW111211   7.101   5.493   8.592 -0.5122 -0.3821 -1.7224
 2891SOL    HW211212   7.007   5.603   8.549  0.0286  0.9115  0.3164
 2892SOL     OW11213   0.120   2.194   8.448  0.4929  0.1005  0.3613
 2892SOL    HW111214   0.100   2.252   8.522  1.8649 -0.2735  1.0435
 2892SOL    HW211215   0.100   2.106   8.480  2.7992 -0.2404  0.9241
 2893SOL     OW11216   7.894   3.372   2.126  0.0923  0.7116  0.2670
 2893SOL    HW111217   7.933   3.418   2.052  0.3397  0.9881  0.5704
 2893SOL    HW211218   7.956   3.303   2.148 -1.2931 -1.1914 -1.6026
 2894SOL     OW11219   4.520   7.902   5.143  0.3821  0.9179 -0.0412
 2894SOL    HW111220   4.512   7.947   5.227  0.9681 -1.1377  1.1388
 2894SOL    HW211221   4.561   7.967   5.086 -0.2104  2.4117  1.1698
 2895SOL     OW11222   1.525   1.480   6.428  0.3634  0.5367  0.1107
 2895SOL    HW111223   1.526   1.465   6.333  0.3581 -0.6729  0.3014
 2895SOL    HW211224   1.612   1.453   6.457 -0.7626 -2.3445  0.9477
 2896SOL     OW11225   1.716   3.913   9.860  0.0852 -0.2026  0.4434
 2896SOL    HW111226   1.683   3.905   9.950 -0.5707  0.1422  0.2350
 2896SOL    HW211227   1.721   4.007   9.844  0.5765 -0.2583  0.2525
 2897SOL     OW11228   5.991   1.495   7.409 -0.4387 -0.2628 -0.2616
 2897SOL    HW111229   6.018   1.406   7.432  0.9858 -0.0302 -0.9572
 2897SOL    HW211230   6.012   1.503   7.316 -0.1423  0.9311 -0.1044
 2898SOL     OW11231   0.259   9.268   3.011  0.0122  0.4374 -0.0141
 2898SOL    HW111232   0.205   9.254   2.933 -1.2329  0.4901  0.8310
 2898SOL    HW211233   0.222   9.345   3.054 -0.7124 -0.8902  1.8034
 2899SOL     OW11234   7.950   6.588   3.641  0.0693 -0.0289 -0.0004
 2899SOL    HW111235   7.969   6.647   3.569  0.7287 -1.3725 -0.9471
 2899SOL    HW211236   8.020   6.605   3.705  0.3118  0.1488 -0.3105
 2900SOL     OW11237   9.029   9.081   3.696 -0.0597 -0.9979 -0.5599
 2900SOL    HW111238   9.038   9.174   3.677 -1.6938 -0.6603  0.1512
 2900SOL    HW211239   9.037   9.038   3.611  0.5839 -0.1885 -0.9087
 2901SOL     OW11240   9.199   5.579   0.126 -0.1524 -0.4533  0.0702
 2901SOL    HW111241   9.293   5.594   0.118  0.3493 -3.0140  0.7081
 2901SOL    HW211242   9.190   5.484   0.132 -2.8471 -0.2861 -0.6510
 2902SOL     OW11243   2.839   2.286   9.834 -0.5216 -0.1230 -0.3663
 2902SOL    HW111244   2.819   2.267   9.742 -0.4399  0.5640 -0.5343
 2902SOL    HW211245   2.814   2.207   9.881  1.7047 -1.4190 -1.2689
 2903SOL     OW11246   1.882   3.168   8.713  0.2784  0.5801 -0.3202
 2903SOL    HW111247   1.974   3.144   8.700 -0.1754 -1.4301 -0.0878
 2903SOL    HW211248   1.879   3.262   8.699  2.4029  0.6922 -0.1793
 2904SOL     OW11249   9.876   3.205   7.995 -0.1385 -0.2434 -0.3298
 2904SOL    HW111250   9.805   3.141   8.003 -0.9631  0.8907  1.7171
 2904SOL    HW211251   9.832   3.289   7.983  0.9558 -0.1071 -3.7938
 2905SOL     OW11252   1.127   5.117   2.679 -0.9786  0.1159 -0.0742
 2905SOL    HW111253   1.123   5.135   2.773 -1.7233 -0.0787 -0.0699
 2905SOL    HW211254   1.073   5.039   2.666  0.5753 -0.9290 -0.4066
 2906SOL     OW11255   7.043   9.130   9.037  0.5607 -0.2335 -0.5017
 2906SOL    HW111256   6.963   9.154   9.083  0.3738 -0.0576 -0.9152
 2906SOL    HW211257   7.113   9.143   9.101  0.3207  0.1724 -0.3230
 2907SOL     OW11258   6.686   8.491   7.886 -0.7208 -0.2590 -0.3419
 2907SOL    HW111259   6.737   8.515   7.808 -2.7937  0.3145 -1.5653
 2907SOL    HW211260   6.743   8.513   7.959  0.9888 -0.1165 -1.6845
 2908SOL     OW11261   8.098   0.573   9.560 -0.2895  0.9107  0.4334
 2908SOL    HW111262   8.181   0.608   9.528 -0.1668 -0.2858 -0.6002
 2908SOL    HW211263   8.122   0.489   9.600 -1.0528  0.3292 -0.3033
 2909SOL     OW11264   4.358   5.451   8.043 -0.3326  0.2249 -0.2639
 2909SOL    HW111265   4.431   5.399   8.076 -1.5326  0.9994  3.8783
 2909SOL    HW211266   4.391   5.541   8.044 -1.1639  0.5360  1.2932
 2910SOL     OW11267   3.525   5.479   7.693  0.2980  0.1497 -0.2392
 2910SOL    HW111268   3.456   5.536   7.727 -0.7786 -1.8615  1.0918
 2910SOL    HW211269   3.478   5.401   7.662  1.9233 -1.0328  0.1868
 2911SOL     OW11270   6.461   6.610   6.079  0.1351  0.4799 -0.7056
 2911SOL    HW111271   6.455   6.521   6.116 -1.1965  1.2855  1.1167
 2911SOL    HW211272   6.506   6.661   6.146 -0.8876  1.6217 -0.8707
 2912SOL     OW11273   3.597   9.480   0.758 -0.2812  0.5704 -0.0073
 2912SOL    HW111274   3.566   9.428   0.683 -0.8240 -0.7448  1.1178
 2912SOL    HW211275   3.551   9.563   0.749 -3.2163 -0.8803  0.8806
 2913SOL     OW11276   4.078   4.974   3.038  0.0623 -0.1047  0.3131
 2913SOL    HW111277   4.029   5.055   3.035 -0.4865 -0.4894 -1.6173
 2913SOL    HW211278   4.071   4.945   3.129  1.2388  2.5644  1.3054
 2914SOL     OW11279   7.407   2.658   6.475 -0.0829 -0.0222  0.4542
 2914SOL    HW111280   7.415   2.584   6.535 -0.7951  0.6814  1.4411
 2914SOL    HW211281   7.355   2.624   6.402 -0.5869 -0.4485  0.9984
 2915SOL     OW11282   0.900   6.941   0.956  0.6734  0.1208 -0.2964
 2915SOL    HW111283   0.989   6.923   0.985  0.1456 -0.5652  0.9394
 2915SOL    HW211284   0.844   6.908   1.026 -0.4895  3.4716  0.4612
 2916SOL     OW11285   7.912   2.640   6.702 -0.5359 -0.3510  0.1135
 2916SOL    HW111286   7.915   2.701   6.628 -1.2792 -2.1632 -1.4762
 2916SOL    HW211287   7.990   2.585   6.691 -2.7570 -3.3414 -1.8462
 2917SOL     OW11288   6.345   7.338   5.751  0.0804  0.1468  0.2818
 2917SOL    HW111289   6.296   7.311   5.673  0.2364  0.3954  0.0987
 2917SOL    HW211290   6.277   7.357   5.815 -0.0669  0.4215  0.0489
 2918SOL     OW11291   6.819   2.656   5.350 -0.0815  0.0368 -0.0785
 2918SOL    HW111292   6.781   2.645   5.437  1.3562 -0.7589  0.4606
 2918SOL    HW211293   6.913   2.653   5.364  0.1742  0.5836 -1.5839
 2919SOL     OW11294   0.656   7.680   8.602  0.1299  0.0963  0.9377
 2919SOL    HW111295   0.630   7.765   8.637 -0.1024  0.2927  0.2876
 2919SOL    HW211296   0.689   7.699   8.515 -0.1790 -0.5190  0.6869
 2920SOL     OW11297   6.846   6.890   3.505  0.7445 -0.2751 -0.2618
 2920SOL    HW111298   6.839   6.874   3.411  2.0747  1.1715 -0.6484
 2920SOL    HW211299   6.849   6.803   3.545 -1.6625 -0.8899 -1.3898
 2921SOL     OW11300   8.534   0.179   2.600 -0.0987  0.5668  0.0251
 2921SOL    HW111301   8.541   0.119   2.526  0.0919  0.1940  0.3396
 2921SOL    HW211302   8.464   0.239   2.576 -0.6570 -0.1150 -0.0658
 2922SOL     OW11303  10.015   1.574   5.980 -0.0447  0.5163 -0.1462
 2922SOL    HW111304  10.041   1.578   6.072  2.1579  0.8452 -0.7464
 2922SOL    HW211305   9.960   1.651   5.967 -1.6644 -0.3804  1.2669
 2923SOL     OW11306  10.103   2.998   5.872  0.4776 -0.2330 -0.5438
 2923SOL    HW111307  10.124   3.086   5.839  1.2492 -0.7087 -1.3317
 2923SOL    HW211308  10.012   2.984   5.843 -0.4598  1.2193  1.5893
 2924SOL     OW11309   4.925   7.983   7.406  0.2363  0.7503  0.2967
 2924SOL    HW111310   4.848   8.014   7.359  0.8020  1.8284  0.0814
 2924SOL    HW211311   4.979   8.061   7.420 -0.6723  0.8126  4.1763
 2925SOL     OW11312   8.897   6.138   4.324 -0.1368  0.2595  0.2704
 2925SOL    HW111313   8.905   6.232   4.306 -0.5574  0.4882  1.1984
 2925SOL    HW211314   8.915   6.131   4.418  0.3024 -0.6473  0.1242
 2926SOL     OW11315   5.742   8.423   8.214  0.1514  0.3810 -0.1163
 2926SOL    HW111316   5.672   8.376   8.169  1.5177  0.2755 -2.1944
 2926SOL    HW211317   5.749   8.381   8.299 -0.4546 -1.4335 -0.9428
 2927SOL     OW11318   9.179   1.765   1.924 -0.1413  0.4980 -0.2494
 2927SOL    HW111319   9.093   1.744   1.962  0.0968 -0.3953 -0.1798
 2927SOL    HW211320   9.181   1.715   1.842  1.4044 -1.7304  1.0845
 2928SOL     OW11321   2.631   0.197   3.004 -0.0069 -0.4765  0.5360
 2928SOL    HW111322   2.718   0.161   2.987 -0.0010  1.0964 -3.2213
 2928SOL    HW211323   2.571   0.123   2.990  0.4623 -0.6230 -0.7728
 2929SOL     OW11324   4.680   5.251   3.271 -0.3437  0.0379 -0.2267
 2929SOL    HW111325   4.631   5.277   3.193 -0.0259 -1.2140 -0.8524
 2929SOL    HW211326   4.613   5.240   3.339 -0.8354 -0.7226 -0.8239
 2930SOL     OW11327   1.155   1.175   3.994 -0.6602 -0.2876 -0.3705
 2930SOL    HW111328   1.226   1.196   3.932 -1.3378  0.4575 -0.9065
 2930SOL    HW211329   1.076   1.173   3.940 -1.7227  3.2745  0.8724
 2931SOL     OW11330   4.299   7.119   9.334 -0.1978  0.2830  0.0795
 2931SOL    HW111331   4.337   7.031   9.338 -0.6477  0.0916  0.2362
 2931SOL    HW211332   4.255   7.122   9.249 -0.9116  0.0526  0.4403
 2932SOL     OW11333   1.498   6.803   7.223  0.3014  0.2934  0.2965
 2932SOL    HW111334   1.513   6.874   7.286  2.2638 -0.5557  0.8328
 2932SOL    HW211335   1.523   6.840   7.138  0.9329  0.3791  0.5195
 2933SOL     OW11336   7.657   6.724   0.590  0.1146 -0.4789  0.3554
 2933SOL    HW111337   7.688   6.722   0.681  2.1619 -1.2236 -0.3442
 2933SOL    HW211338   7.611   6.808   0.582  2.2984  0.8290  1.3024
 2934SOL     OW11339   6.521   0.321   7.074 -0.3407 -0.3018  0.2579
 2934SOL    HW111340   6.577   0.250   7.044 -1.5566 -0.4041 -1.8411
 2934SOL    HW211341   6.433   0.283   7.073 -0.5389 -0.0691  3.2678
 2935SOL     OW11342   6.271   2.289   0.719  0.3487 -0.0861  0.1037
 2935SOL    HW111343   6.230   2.325   0.640  0.1246  1.2990  0.8321
 2935SOL    HW211344   6.347   2.346   0.733  0.0209  0.0765  1.2493
 2936SOL     OW11345   3.977   7.930   6.772  0.1855 -0.2020 -0.3020
 2936SOL    HW111346   3.986   7.943   6.678  1.1843 -0.3488 -0.2281
 2936SOL    HW211347   3.901   7.872   6.781  0.1725 -0.2986 -1.0218
 2937SOL     OW11348   4.329   5.566   1.775 -0.0582  0.0519  0.0135
 2937SOL    HW111349   4.406   5.622   1.778 -0.5270  0.6150  2.2533
 2937SOL    HW211350   4.344   5.500   1.842 -0.7906 -0.8110 -0.6584
 2938SOL     OW11351   3.437   1.338   8.580  0.4361 -0.0389 -0.7203
 2938SOL    HW111352   3.527   1.315   8.560  0.7103  1.5610 -1.3930
 2938SOL    HW211353   3.421   1.418   8.530 -1.2277 -0.0857 -0.2985
 2939SOL     OW11354   4.923   8.902   1.929 -0.0938 -0.4175  0.1862
 2939SOL    HW111355   4.936   8.987   1.886  0.8245 -0.4942  0.3036
 2939SOL    HW211356   4.967   8.911   2.013  0.9344 -1.3623 -0.2349
 2940SOL     OW11357   2.084   9.006   7.347  0.3647  0.3660  0.2479
 2940SOL    HW111358   2.003   9.029   7.393  0.3852  0.2663  0.3340
 2940SOL    HW211359   2.154   9.027   7.410  0.3620 -0.3560  0.5048
 2941SOL     OW11360   0.819   0.027   3.963 -0.0377 -0.6473  0.2464
 2941SOL    HW111361   0.861  -0.003   4.043 -0.2569  0.0764  0.6449
 2941SOL    HW211362   0.730   0.051   3.990  0.3880  1.1437  0.1307
 2942SOL     OW11363   9.535   2.581   7.435  0.1979  0.5640  0.0826
 2942SOL    HW111364   9.568   2.661   7.394 -0.3715  0.0474 -1.4290
 2942SOL    HW211365   9.533   2.517   7.363 -1.8377 -0.0578  0.6774
 2943SOL     OW11366   3.629   7.077   5.050 -0.8248 -0.1337 -0.0920
 2943SOL    HW111367   3.564   7.068   5.119  1.9358 -2.1906  2.3733
 2943SOL    HW211368   3.641   6.988   5.017  2.7765 -0.3047  1.4966
 2944SOL     OW11369   9.138   9.542   1.751 -0.6253 -0.0787  0.4647
 2944SOL    HW111370   9.168   9.462   1.793 -1.2300 -0.2780  0.5201
 2944SOL    HW211371   9.181   9.543   1.666 -0.0419 -0.0895  0.7592
 2945SOL     OW11372   8.264   5.936   9.475  0.1041 -0.8188  0.3988
 2945SOL    HW111373   8.330   5.893   9.530  0.2558 -0.8528  0.1925
 2945SOL    HW211374   8.187   5.881   9.483  0.5704 -1.6137 -0.5636
 2946SOL     OW11375   1.935   0.965   7.326  0.2172 -0.1776  0.0897
 2946SOL    HW111376   1.993   1.034   7.293 -0.0353  0.9529  1.9490
 2946SOL    HW211377   1.890   1.005   7.401 -0.1316 -2.2750  1.0305
 2947SOL     OW11378   9.640   2.664   5.640 -0.1736  0.4472  0.3801
 2947SOL    HW111379   9.675   2.734   5.584  2.2230 -0.3847  0.7676
 2947SOL    HW211380   9.577   2.618   5.584 -1.4429  2.6031 -0.0272
 2948SOL     OW11381   8.743   7.413   3.037 -0.0008  0.6360  0.1665
 2948SOL    HW111382   8.778   7.397   3.124  1.5240  0.4914 -0.4506
 2948SOL    HW211383   8.754   7.507   3.023 -0.5008  0.7042  0.2412
 2949SOL     OW11384   7.313   1.010   0.543  0.3852  0.1704 -0.0388
 2949SOL    HW111385   7.399   1.039   0.573  0.0009 -0.3140  1.5822
 2949SOL    HW211386   7.332   0.951   0.470  1.4595 -0.3752  0.6689
 2950SOL     OW11387   7.459   7.503   2.427  0.4112  0.1919 -0.3254
 2950SOL    HW111388   7.433   7.473   2.515  1.5151 -0.5383 -0.2317
 2950SOL    HW211389   7.465   7.598   2.435  2.1956 -0.0047  0.8752
 2951SOL     OW11390   7.492   9.116   2.968  0.0630 -0.2770 -0.1408
 2951SOL    HW111391   7.577   9.082   2.940  0.1078  0.4785 -0.9301
 2951SOL    HW211392   7.433   9.092   2.897  0.1763  1.6356 -0.8880
 2952SOL     OW11393   3.499   5.397   6.697 -0.5583  0.0277 -0.4714
 2952SOL    HW111394   3.455   5.478   6.673  1.7328  2.1482  2.1376
 2952SOL    HW211395   3.591   5.412   6.676  0.1430 -1.2506  1.4848
 2953SOL     OW11396   9.842   8.076   7.866  0.0115 -0.4490  0.1583
 2953SOL    HW111397   9.819   8.051   7.776 -1.4904  0.1950  0.3404
 2953SOL    HW211398   9.785   8.022   7.921 -2.5719  2.5388  0.5837
 2954SOL     OW11399   5.679   9.754   2.571  0.0292 -0.7430  0.0844
 2954SOL    HW111400   5.768   9.760   2.536 -0.5187  0.1586 -1.2162
 2954SOL    HW211401   5.689   9.710   2.655  1.8236  0.2933  0.4446
 2955SOL     OW11402   5.375   8.318   2.460  0.1523  0.3144  0.0531
 2955SOL    HW111403   5.453   8.322   2.405  1.1196 -0.4205  1.3503
 2955SOL    HW211404   5.399   8.366   2.539 -1.4061  1.8078 -0.3577
 2956SOL     OW11405   8.807   7.602   4.771 -0.3720  0.2632 -0.0836
 2956SOL    HW111406   8.887   7.550   4.782  0.7781  2.2772  1.2932
 2956SOL    HW211407   8.795   7.608   4.676 -0.4648 -2.3553 -0.2833
 2957SOL     OW11408   2.286   9.696   8.343  0.0822 -0.2322 -0.1924
 2957SOL    HW111409   2.196   9.689   8.312 -0.4060  0.0901  1.0984
 2957SOL    HW211410   2.313   9.785   8.321  0.4867 -0.6886 -1.5915
 2958SOL     OW11411   1.947   4.406   5.182  0.0084  0.1390  0.1409
 2958SOL    HW111412   1.995   4.466   5.238 -1.1270  0.8740  0.3342
 2958SOL    HW211413   1.984   4.320   5.201  0.9542  0.6392  0.5836
 2959SOL     OW11414   2.744   2.518   5.278  0.0675  0.0930  0.4404
 2959SOL    HW111415   2.797   2.569   5.340 -0.5356 -0.5259  1.4758
 2959SOL    HW211416   2.800   2.445   5.253  2.0215  2.6566 -3.2036
 2960SOL     OW11417   8.485   8.380   5.937  0.2782  0.1564 -0.1124
 2960SOL    HW111418   8.536   8.428   6.003 -1.5670 -0.8181  2.0505
 2960SOL    HW211419   8.535   8.392   5.856  2.4214  1.6377  1.3697
 2961SOL     OW11420   9.331   9.257   7.508  0.3300 -0.3466  0.3279
 2961SOL    HW111421   9.356   9.264   7.416 -0.5704  1.2953  0.1813
 2961SOL    HW211422   9.255   9.198   7.508 -0.2283  0.3602 -0.1066
 2962SOL     OW11423   6.811   6.630   3.572 -0.0451 -0.4962  0.1559
 2962SOL    HW111424   6.845   6.552   3.527 -1.2503 -0.3811 -0.9814
 2962SOL    HW211425   6.801   6.602   3.663  1.6317 -0.9928  0.2156
 2963SOL     OW11426   7.838   3.191   5.281 -0.0215 -0.3642 -0.2345
 2963SOL    HW111427   7.921   3.208   5.324 -0.2380  0.8861 -0.3059
 2963SOL    HW211428   7.795   3.276   5.275 -0.3692 -0.6430 -2.1531
 2964SOL     OW11429   1.503   4.178   0.241 -0.2618  0.0243  0.4258
 2964SOL    HW111430   1.420   4.140   0.210  0.5299 -0.4821 -1.1595
 2964SOL    HW211431   1.550   4.104   0.280  1.7232 -0.9786 -3.5931
 2965SOL     OW11432   5.715   1.758   3.171 -0.3754  0.2643  0.2705
 2965SOL    HW111433   5.775   1.731   3.101 -0.8315 -1.6446  0.6072
 2965SOL    HW211434   5.645   1.805   3.124  0.6583  1.3099 -0.2619
 2966SOL     OW11435   9.020   5.271   0.066 -0.2868  0.1388  0.0533
 2966SOL    HW111436   9.004   5.178   0.049  1.7823 -0.2534  0.1607
 2966SOL    HW211437   9.088   5.272   0.133  0.4270  1.7415 -0.6740
 2967SOL     OW11438   3.482   4.814   0.744 -0.0252  0.2011 -0.2950
 2967SOL    HW111439   3.535   4.736   0.760  0.7557  0.6602 -0.6147
 2967SOL    HW211440   3.427   4.791   0.668  0.0799 -0.0997 -0.2791
 2968SOL     OW11441   5.738   6.753   3.285  0.2149 -0.2768 -0.3301
 2968SOL    HW111442   5.766   6.799   3.206  1.4842 -2.9156 -1.4486
 2968SOL    HW211443   5.804   6.685   3.299 -0.8113 -0.8365  2.1416
 2969SOL     OW11444   4.096   0.270  10.106 -0.2133  0.4108  0.1896
 2969SOL    HW111445   4.144   0.308  10.179  0.5545  2.8496 -1.5309
 2969SOL    HW211446   4.161   0.218  10.059 -0.2177  0.4790  0.1078
 2970SOL     OW11447   5.381   8.372   4.926 -0.5204  0.1413 -0.5615
 2970SOL    HW111448   5.309   8.435   4.918  1.0505  2.0033 -0.5412
 2970SOL    HW211449   5.397   8.341   4.836 -1.1757 -0.0781 -0.5994
 2971SOL     OW11450   1.246   0.899   9.245 -0.0372 -0.4070  0.3505
 2971SOL    HW111451   1.180   0.845   9.202  0.7795 -0.4577 -0.8641
 2971SOL    HW211452   1.243   0.982   9.199 -0.5266  0.2208  1.4990
 2972SOL     OW11453   5.040   1.653   8.407  0.0853 -0.5207  0.0071
 2972SOL    HW111454   4.991   1.733   8.430  1.1801  0.2611 -0.3156
 2972SOL    HW211455   5.078   1.624   8.490  1.4623  0.5316 -0.2339
 2973SOL     OW11456   2.897   5.951   7.294 -0.0186  0.4060  0.0783
 2973SOL    HW111457   2.835   5.901   7.242  1.8096  1.5295 -3.3638
 2973SOL    HW211458   2.968   5.890   7.315 -0.4245  0.1327  0.6487
 2974SOL     OW11459   8.820   3.870   9.525 -0.9306  0.3869  0.1017
 2974SOL    HW111460   8.796   3.781   9.552 -0.1487  0.5120  1.2470
 2974SOL    HW211461   8.916   3.871   9.530 -0.9787  1.5224  0.8146
 2975SOL     OW11462   1.357   3.015   5.439  0.0601 -0.7123  0.3112
 2975SOL    HW111463   1.426   3.023   5.374 -0.7105 -0.3131 -0.4559
 2975SOL    HW211464   1.364   3.095   5.491  0.7752 -1.1025  0.8327
 2976SOL     OW11465   2.177   4.435   6.344 -0.6469 -0.2373 -0.0012
 2976SOL    HW111466   2.203   4.527   6.332 -0.5050 -0.3204 -0.3466
 2976SOL    HW211467   2.157   4.405   6.255  0.0566 -0.7605  0.0135
 2977SOL     OW11468   9.792   8.642   3.184 -0.0222  0.2487  0.1493
 2977SOL    HW111469   9.818   8.550   3.193  2.2048  0.9404  1.0322
 2977SOL    HW211470   9.784   8.674   3.273 -0.2042  1.0966 -0.1658
 2978SOL     OW11471   1.395   5.419   2.124  0.3253  0.3616 -0.2661
 2978SOL    HW111472   1.353   5.406   2.209  1.4214 -1.9632 -0.0521
 2978SOL    HW211473   1.389   5.334   2.081  1.6947  0.9337 -1.6381
 2979SOL     OW11474   6.675   8.584   2.023 -0.2789 -0.6870  0.7355
 2979SOL    HW111475   6.748   8.642   2.003 -0.2831 -0.3859  1.5774
 2979SOL    HW211476   6.710   8.519   2.083 -0.6762 -0.5867  1.0840
 2980SOL     OW11477   9.177   8.400   9.212 -0.3051  0.8968 -0.3669
 2980SOL    HW111478   9.171   8.357   9.127 -0.7564 -1.9432  1.0419
 2980SOL    HW211479   9.107   8.466   9.211 -1.8217 -0.6942 -1.3357
 2981SOL     OW11480   9.628  10.074   2.092 -0.1573  0.7677  0.2611
 2981SOL    HW111481   9.639  10.111   2.005  4.1379  2.5064  1.4022
 2981SOL    HW211482   9.687   9.999   2.094 -1.1395  0.0110  1.2674
 2982SOL     OW11483   7.349   1.700   2.306 -0.3250  0.2087  0.2632
 2982SOL    HW111484   7.274   1.689   2.248 -1.1385 -3.3074  1.8264
 2982SOL    HW211485   7.419   1.651   2.263  0.0313  0.4772  0.5407
 2983SOL     OW11486   4.041   0.944   4.022  0.7132 -0.4768  0.0416
 2983SOL    HW111487   3.999   0.864   3.990  0.6486 -0.6434  0.5324
 2983SOL    HW211488   4.100   0.971   3.951  0.8028 -1.0110 -0.0898
 2984SOL     OW11489   7.673   4.694   9.006 -0.6022  0.0261 -0.3045
 2984SOL    HW111490   7.728   4.690   8.928  0.6346 -0.0772  0.5385
 2984SOL    HW211491   7.701   4.774   9.051 -1.7153  0.3968 -0.2542
 2985SOL     OW11492   8.371   2.833   4.029  0.7244 -0.3574 -0.0538
 2985SOL    HW111493   8.441   2.783   3.987  0.7879 -0.6382  0.3778
 2985SOL    HW211494   8.403   2.923   4.031  1.1018 -0.4954  0.1977
 2986SOL     OW11495   8.938   7.680   4.311 -0.0596  0.1699  1.0609
 2986SOL    HW111496   8.942   7.688   4.215  2.7795 -0.3094  1.1037
 2986SOL    HW211497   8.987   7.756   4.343  0.0481 -0.3450  2.1229
 2987SOL     OW11498   5.890   9.575  10.095  0.5551 -0.0273 -0.3651
 2987SOL    HW111499   5.843   9.578  10.011  0.5590 -0.6452 -0.3957
 2987SOL    HW211500   5.949   9.650  10.092 -0.6708  0.9738 -0.1855
 2988SOL     OW11501   6.518   0.617   2.765 -0.0520 -0.0677 -1.3767
 2988SOL    HW111502   6.479   0.543   2.811  0.9595  0.8280  0.9522
 2988SOL    HW211503   6.594   0.581   2.719  0.7658 -0.3709  0.2119
 2989SOL     OW11504   9.051   5.402   3.669  0.3903  0.8084 -0.4346
 2989SOL    HW111505   8.965   5.429   3.638 -1.2432  0.2452  3.3367
 2989SOL    HW211506   9.084   5.478   3.718  0.7691  0.0289  0.5492
 2990SOL     OW11507   8.975   3.941   6.320  0.2498  0.1317  0.1493
 2990SOL    HW111508   9.029   3.987   6.383 -0.3177  1.2834 -0.1953
 2990SOL    HW211509   9.027   3.940   6.240  0.8472 -1.0741  0.5322
 2991SOL     OW11510   8.023   6.249   5.006  0.0382  0.7494 -0.3766
 2991SOL    HW111511   7.980   6.269   5.089 -2.4694  0.1381 -1.4563
 2991SOL    HW211512   8.110   6.218   5.030 -1.0004 -0.3833  2.0822
 2992SOL     OW11513   8.239   6.284   5.201 -0.0129 -0.0151 -0.1853
 2992SOL    HW111514   8.319   6.330   5.176  0.8536 -0.5612  1.5418
 2992SOL    HW211515   8.204   6.333   5.275 -0.6546 -0.4523 -0.1878
 2993SOL     OW11516   7.067   8.963   8.578  0.2700  0.4338 -0.6492
 2993SOL    HW111517   7.157   8.931   8.588  0.7659  1.4818 -1.6595
 2993SOL    HW211518   7.023   8.937   8.660  0.4991 -3.1969 -1.5877
 2994SOL     OW11519   5.197   1.234   2.196  0.2485  0.7611  0.4479
 2994SOL    HW111520   5.158   1.149   2.172 -1.0400  1.1253  1.1871
 2994SOL    HW211521   5.278   1.238   2.147 -0.8985  0.1871 -1.5331
 2995SOL     OW11522   1.929   0.299   5.221  0.1752  0.3292  0.2967
 2995SOL    HW111523   1.924   0.210   5.255  0.6954  0.1618 -0.0686
 2995SOL    HW211524   1.860   0.304   5.155  0.9778 -0.1918 -0.5856
 2996SOL     OW11525   9.266   3.303   8.972 -0.0542 -0.0525 -0.1564
 2996SOL    HW111526   9.247   3.209   8.966 -1.9816  0.1528  2.1169
 2996SOL    HW211527   9.361   3.308   8.965 -0.1365 -1.8176 -4.0439
 2997SOL     OW11528   1.486   8.028   9.716 -0.1955  1.0147 -0.0864
 2997SOL    HW111529   1.506   8.113   9.756  2.1671  0.1247  0.7303
 2997SOL    HW211530   1.434   7.982   9.782 -0.5238  1.4083 -0.0702
 2998SOL     OW11531   5.199   3.169   6.375  0.8066  0.1970 -0.0775
 2998SOL    HW111532   5.199   3.203   6.465 -2.0147  0.2267 -0.0443
 2998SOL    HW211533   5.158   3.238   6.323 -0.4505 -1.0853 -0.8348
 2999SOL     OW11534   8.414   8.505   0.069  0.5441 -0.3575 -0.2209
 2999SOL    HW111535   8.368   8.431   0.109  0.8549 -0.2068  0.4232
 2999SOL    HW211536   8.407   8.489  -0.025  1.7747 -1.9426 -0.0837
 3000SOL     OW11537   7.562   1.781   2.507  0.0336  0.3403 -0.2565
 3000SOL    HW111538   7.588   1.855   2.453  0.9306  1.0157  1.0906
 3000SOL    HW211539   7.643   1.732   2.522  0.0193  0.7742  1.3901
 3001SOL     OW11540   3.929  10.041   7.375  0.2520 -0.5533  0.0259
 3001SOL    HW111541   3.852  10.079   7.419 -0.4668  0.8581 -2.3481
 3001SOL    HW211542   3.901  10.030   7.284  2.8075 -0.2298 -0.8214
 3002SOL     OW11543   2.040   9.513   0.057 -0.7183 -0.5132 -0.0032
 3002SOL    HW111544   2.049   9.436   0.000 -2.0554  1.6647 -3.3346
 3002SOL    HW211545   1.953   9.505   0.096 -2.3629  0.9983 -3.1616
 3003SOL     OW11546   9.675   2.311   6.724  0.1936 -0.0097  0.3267
 3003SOL    HW111547   9.612   2.383   6.729  1.9019  1.5759 -0.4675
 3003SOL    HW211548   9.622   2.235   6.699 -1.4768  1.1809  0.1293
 3004SOL     OW11549   2.086   5.659  10.052 -0.0258 -0.1425  0.6921
 3004SOL    HW111550   2.089   5.732   9.990 -1.4418 -0.5673  0.1068
 3004SOL    HW211551   2.096   5.580   9.998  1.8612 -0.4001  1.3596
 3005SOL     OW11552   9.160   0.649   7.493  0.0282 -0.2887  0.2623
 3005SOL    HW111553   9.113   0.717   7.541 -0.8006 -0.1907 -0.6587
 3005SOL    HW211554   9.247   0.686   7.479 -0.3910  0.5741 -0.1644
 3006SOL     OW11555   7.081   1.094   2.663  0.6255  0.1400 -0.7903
 3006SOL    HW111556   7.065   1.034   2.591  0.3959 -3.2430  1.9206
 3006SOL    HW211557   6.995   1.131   2.684  0.4394 -0.0026 -1.3056
 3007SOL     OW11558   1.111   4.864   0.442 -0.2087 -0.1613  0.3170
 3007SOL    HW111559   1.152   4.862   0.528 -0.4410  2.3562  0.5414
 3007SOL    HW211560   1.020   4.840   0.458 -0.0442 -0.5652  0.6387
 3008SOL     OW11561   8.076   7.495   1.047 -0.2329  0.7080 -0.7595
 3008SOL    HW111562   8.161   7.522   1.082 -0.9948  0.5214  1.2997
 3008SOL    HW211563   8.029   7.577   1.030  0.9426  0.8649 -3.4914
 3009SOL     OW11564   3.071   5.424   0.797 -0.7740  1.0037 -0.1087
 3009SOL    HW111565   3.153   5.389   0.833 -1.7887 -1.5757 -0.1889
 3009SOL    HW211566   3.090   5.436   0.704 -1.3957 -2.8052 -0.8384
 3010SOL     OW11567   6.775   4.867   6.232 -0.7712  0.3715 -0.4626
 3010SOL    HW111568   6.813   4.953   6.211  3.0729 -0.8439  1.0494
 3010SOL    HW211569   6.818   4.842   6.314 -2.4448 -2.6434 -0.4441
 3011SOL     OW11570   7.592   5.033   7.106 -0.8532  0.0899  0.1391
 3011SOL    HW111571   7.621   5.036   7.014  0.0154  1.9036  0.4354
 3011SOL    HW211572   7.655   4.975   7.149 -1.1079 -0.5586 -0.3584
 3012SOL     OW11573   9.825   6.187   8.781 -0.1744 -0.1856 -0.2314
 3012SOL    HW111574   9.886   6.220   8.715  1.6360 -3.2639 -0.1875
 3012SOL    HW211575   9.879   6.171   8.858 -1.4520 -0.8528  0.5379
 3013SOL     OW11576   4.605   0.353   5.992 -0.1593  0.3908  0.1727
 3013SOL    HW111577   4.556   0.278   6.025 -0.1183  0.0662 -0.4958
 3013SOL    HW211578   4.580   0.360   5.900 -0.1821  1.2165  0.2339
 3014SOL     OW11579   8.252   3.609   5.178  0.0521  0.1910 -0.1840
 3014SOL    HW111580   8.166   3.632   5.141 -0.3246  0.0414  0.5821
 3014SOL    HW211581   8.308   3.683   5.156 -0.3754  0.4728 -0.3418
 3015SOL     OW11582   6.284   0.258   7.701 -0.3164 -0.3366 -0.1412
 3015SOL    HW111583   6.257   0.315   7.773  0.1164  0.9316 -0.9759
 3015SOL    HW211584   6.202   0.221   7.668 -0.3984 -2.1527  1.9806
 3016SOL     OW11585   9.905   9.587   1.645  0.0844 -0.4298 -0.2022
 3016SOL    HW111586   9.886   9.538   1.565 -1.5286 -1.6335  0.8805
 3016SOL    HW211587   9.952   9.524   1.700 -1.5897 -0.6365  1.0173
 3017SOL     OW11588   3.932   3.325   1.554 -0.5860  0.4017 -0.0184
 3017SOL    HW111589   3.896   3.238   1.572 -1.3759  0.9679  1.1985
 3017SOL    HW211590   3.951   3.362   1.640 -1.1089  1.7881 -0.4792
 3018SOL     OW11591   1.721   2.510   2.126  0.1912 -0.3339 -0.1950
 3018SOL    HW111592   1.708   2.444   2.058  1.6638 -1.1467  0.3088
 3018SOL    HW211593   1.796   2.480   2.176  0.1734  1.1341  0.7596
 3019SOL     OW11594   2.262   7.664   3.411 -0.2184 -0.3335 -0.1331
 3019SOL    HW111595   2.204   7.597   3.375 -0.1616 -0.6690  0.4031
 3019SOL    HW211596   2.214   7.700   3.486  0.2258 -0.5409  0.2482
 3020SOL     OW11597   5.790   8.146   0.987 -0.0211 -0.4968  0.2594
 3020SOL    HW111598   5.809   8.233   0.952  1.4468 -0.9607 -0.1458
 3020SOL    HW211599   5.697   8.148   1.007 -0.4336  0.5031 -1.6305
 3021SOL     OW11600   8.469   8.250   9.863 -0.2691  0.1136 -0.6133
 3021SOL    HW111601   8.552   8.276   9.823 -0.1684  0.0917 -0.4224
 3021SOL    HW211602   8.489   8.170   9.910 -0.5991 -0.3580 -1.2682
 3022SOL     OW11603   5.590   8.585   3.510  0.5894  0.5093 -0.0830
 3022SOL    HW111604   5.538   8.608   3.587  0.9599  0.9437  0.0334
 3022SOL    HW211605   5.539   8.620   3.436  0.2892  0.1865 -0.0292
 3023SOL     OW11606   0.790   1.357   9.384  0.3891  0.0888 -0.2688
 3023SOL    HW111607   0.872   1.349   9.431 -0.6309 -0.6627  1.4246
 3023SOL    HW211608   0.774   1.270   9.347  0.9284  0.5397 -1.6049
 3024SOL     OW11609   9.018   8.669   3.753 -0.1550 -0.2800 -0.1126
 3024SOL    HW111610   8.962   8.718   3.691 -0.2879 -0.0089  0.2203
 3024SOL    HW211611   9.099   8.721   3.757 -0.0467 -0.4372 -0.2574
 3025SOL     OW11612   9.045   4.408   0.737 -0.5149 -0.0989 -0.3203
 3025SOL    HW111613   9.096   4.347   0.791 -0.8476  0.1695  0.2883
 3025SOL    HW211614   9.023   4.480   0.795 -2.5261 -0.7148 -0.2819
 3026SOL     OW11615   5.969   2.167   8.827 -0.2350 -0.1679 -0.3531
 3026SOL    HW111616   5.876   2.190   8.826 -0.4026 -0.7918  0.3169
 3026SOL    HW211617   5.997   2.189   8.916  0.0245 -0.8641 -0.2579
 3027SOL     OW11618   2.417   2.749   1.595 -0.1379  0.2144  0.7555
 3027SOL    HW111619   2.497   2.697   1.605  1.0128  1.4828 -1.3702
 3027SOL    HW211620   2.425   2.819   1.659 -0.4591 -0.7318  1.8430
 3028SOL     OW11621   0.427   2.741   9.150  0.2741 -0.0246 -0.1234
 3028SOL    HW111622   0.439   2.723   9.057  0.4013  0.6909 -0.2501
 3028SOL    HW211623   0.487   2.681   9.194 -0.8799 -1.4306 -0.4246
 3029SOL     OW11624   8.438   3.799   3.259  0.1767  0.5929  0.3290
 3029SOL    HW111625   8.370   3.860   3.231 -0.5970 -0.9678 -1.2778
 3029SOL    HW211626   8.477   3.766   3.178 -0.1870 -1.8904  1.1043
 3030SOL     OW11627   8.042   3.403   9.287  0.0743 -0.8792 -0.7961
 3030SOL    HW111628   7.975   3.459   9.325 -0.3856 -0.4845 -2.1370
 3030SOL    HW211629   8.058   3.335   9.353 -0.0166  0.3022  0.4570
 3031SOL     OW11630   4.642   4.546   3.822  0.0200  0.0431  0.0485
 3031SOL    HW111631   4.714   4.607   3.840  0.3770 -0.0363 -1.0850
 3031SOL    HW211632   4.572   4.575   3.880  0.6141  0.7673  0.4143
 3032SOL     OW11633   5.830   0.721   9.059 -0.0922 -0.0524  0.4201
 3032SOL    HW111634   5.826   0.626   9.070  0.7495 -0.1394  0.0834
 3032SOL    HW211635   5.739   0.749   9.052 -0.3377 -0.8536  0.3670
 3033SOL     OW11636   6.482   2.265   5.890 -0.6611 -0.1424  0.6340
 3033SOL    HW111637   6.495   2.199   5.822  0.0343  1.7780 -1.1441
 3033SOL    HW211638   6.387   2.271   5.901 -0.7322 -1.3010  0.7090
 3034SOL     OW11639   0.203   8.938   3.821 -0.2843 -0.6417 -0.3499
 3034SOL    HW111640   0.142   8.994   3.772  0.0009 -0.9463 -1.0607
 3034SOL    HW211641   0.189   8.851   3.784 -1.3349 -1.2077  1.3250
 3035SOL     OW11642   7.516   7.245   5.823  0.1710 -0.3834 -0.1634
 3035SOL    HW111643   7.509   7.182   5.751 -2.9616  0.0325 -0.2669
 3035SOL    HW211644   7.455   7.213   5.889  1.2757  0.5601  1.3506
 3036SOL     OW11645   2.064   4.021   7.448 -0.3406 -0.1899 -0.3436
 3036SOL    HW111646   2.158   4.035   7.450 -0.4368  0.3808  0.4685
 3036SOL    HW211647   2.027   4.102   7.483 -1.0983 -0.6398 -0.0835
 3037SOL     OW11648   7.100   1.449   0.429 -1.1271  0.2055 -0.0987
 3037SOL    HW111649   7.170   1.502   0.469 -1.6015  1.1994 -0.5660
 3037SOL    HW211650   7.095   1.480   0.339 -3.8316  1.8971  0.5804
 3038SOL     OW11651  10.047   5.267   2.686  0.1242 -0.1831 -0.2008
 3038SOL    HW111652   9.989   5.279   2.761  1.4657  0.5978  0.7283
 3038SOL    HW211653  10.018   5.184   2.647 -1.7782  0.3189  0.0723
 3039SOL     OW11654   1.779   8.816   5.377 -0.1041  0.0625 -0.4043
 3039SOL    HW111655   1.776   8.772   5.292  1.3345  0.1513 -0.5027
 3039SOL    HW211656   1.817   8.902   5.359 -0.7290  0.4706  0.1704
 3040SOL     OW11657   7.175   0.218   4.747 -0.3379 -0.1226 -0.2256
 3040SOL    HW111658   7.187   0.243   4.656 -1.2376  0.4292 -0.1960
 3040SOL    HW211659   7.129   0.134   4.744 -0.7710  0.1150 -0.2774
 3041SOL     OW11660   7.142   4.338   4.208  0.1417 -0.0607  0.0102
 3041SOL    HW111661   7.161   4.377   4.123 -1.7841 -0.9456 -0.8567
 3041SOL    HW211662   7.073   4.392   4.245 -0.1832 -0.6566  0.2926
 3042SOL     OW11663   6.643   1.738   1.079  0.1248 -0.6218  0.3492
 3042SOL    HW111664   6.567   1.693   1.043  0.3713 -0.3676 -0.5109
 3042SOL    HW211665   6.709   1.670   1.091  0.3892 -0.5516 -0.6520
 3043SOL     OW11666   1.232   5.598   0.952 -0.3135 -0.1915 -0.6642
 3043SOL    HW111667   1.192   5.606   0.866  1.1383  0.9668 -1.2638
 3043SOL    HW211668   1.243   5.689   0.982  1.2147 -0.4920 -0.2454
 3044SOL     OW11669   6.987   7.210   2.639 -0.0660  0.2891  0.9356
 3044SOL    HW111670   6.990   7.230   2.732 -0.2285  1.8508  0.6142
 3044SOL    HW211671   6.912   7.258   2.606  0.0537 -0.1703 -0.0302
 3045SOL     OW11672   2.965   8.595   1.928 -0.2062 -0.0635  0.5086
 3045SOL    HW111673   3.009   8.675   1.899 -0.2907 -0.2882 -0.2704
 3045SOL    HW211674   2.984   8.532   1.858  0.9320 -1.0868  1.7297
 3046SOL     OW11675   9.122   1.483   1.099  0.1791 -0.4003 -0.1231
 3046SOL    HW111676   9.185   1.545   1.061  1.6522 -1.5134  0.4467
 3046SOL    HW211677   9.137   1.401   1.051 -0.2151 -0.9196  0.6217
 3047SOL     OW11678   0.404   6.887   7.557 -0.1385  0.5625 -0.1617
 3047SOL    HW111679   0.460   6.959   7.585  0.9630  0.0975 -1.1286
 3047SOL    HW211680   0.423   6.816   7.618 -1.0033  0.9718  0.6054
 3048SOL     OW11681   7.233   3.435   3.920  0.4232 -0.7856  0.1533
 3048SOL    HW111682   7.326   3.456   3.927  0.3680 -0.4968  0.0155
 3048SOL    HW211683   7.229   3.341   3.938  0.8167 -0.9302 -0.4825
 3049SOL     OW11684   5.671   5.311   0.516  0.0395 -0.3541  0.3112
 3049SOL    HW111685   5.722   5.379   0.560 -2.3413  2.0682 -0.5511
 3049SOL    HW211686   5.600   5.290   0.577  0.0551 -1.1843  0.0519
 3050SOL     OW11687   7.560   3.202   0.041  0.0565 -0.9617 -0.1943
 3050SOL    HW111688   7.549   3.227   0.133 -0.3403 -2.6809  0.2407
 3050SOL    HW211689   7.654   3.210   0.025  0.0785 -0.2760  0.2308
 3051SOL     OW11690   6.286   8.613   5.632  0.0716  0.0875 -0.5453
 3051SOL    HW111691   6.247   8.632   5.718 -0.0154  0.5407 -0.6832
 3051SOL    HW211692   6.226   8.550   5.592 -1.5820  2.2320 -1.5475
 3052SOL     OW11693   6.739   9.478   4.324 -0.2735  0.3924 -0.3849
 3052SOL    HW111694   6.788   9.455   4.404 -0.8033  1.1172  0.1462
 3052SOL    HW211695   6.770   9.415   4.259  0.3326 -0.0609  0.3302
 3053SOL     OW11696   2.857   1.458   6.690 -0.9966  0.3258  0.1125
 3053SOL    HW111697   2.906   1.379   6.712 -1.8750 -0.2343  0.0827
 3053SOL    HW211698   2.916   1.509   6.634 -0.2047 -0.0293  0.6247
 3054SOL     OW11699   8.850   3.113   7.536  0.0935  0.8230 -0.3408
 3054SOL    HW111700   8.853   3.036   7.479  1.7918  1.3380 -0.9869
 3054SOL    HW211701   8.927   3.164   7.510 -0.1614  1.9746  1.1442
 3055SOL     OW11702   4.643   3.291   2.242 -0.0541 -0.0293  0.3231
 3055SOL    HW111703   4.643   3.362   2.178  1.1816  0.8696  1.3047
 3055SOL    HW211704   4.556   3.295   2.282 -1.4146 -1.5649 -2.2953
 3056SOL     OW11705   8.872   6.401   0.421 -0.1018 -0.2082 -0.5155
 3056SOL    HW111706   8.937   6.418   0.353 -0.4726 -0.4401 -0.9311
 3056SOL    HW211707   8.890   6.466   0.488  0.6301 -0.3431 -0.5784
 3057SOL     OW11708   2.123   0.863   2.110  0.0027 -0.3634  0.4265
 3057SOL    HW111709   2.074   0.818   2.041 -0.9566 -0.3179  1.0654
 3057SOL    HW211710   2.212   0.872   2.074  0.3344 -3.0914  0.4285
 3058SOL     OW11711   4.326   8.273   2.186 -0.2791 -0.8028 -0.4787
 3058SOL    HW111712   4.294   8.196   2.234  0.7332 -2.0222 -1.7429
 3058SOL    HW211713   4.421   8.265   2.188 -0.1981 -0.1668 -1.5764
 3059SOL     OW11714   5.921   8.915   7.318 -0.1637 -0.2782 -0.5319
 3059SOL    HW111715   5.995   8.972   7.339  0.2375 -0.5236 -1.2681
 3059SOL    HW211716   5.845   8.973   7.322 -0.1781 -0.3983  2.0173
 3060SOL     OW11717   5.606   4.511   5.099  0.9446  0.9856  0.1444
 3060SOL    HW111718   5.621   4.433   5.045  2.4889  1.1758  0.2743
 3060SOL    HW211719   5.680   4.512   5.160  1.4512  3.0573 -0.4632
 3061SOL     OW11720   0.039   1.901   3.384 -0.3230  0.0026 -0.1882
 3061SOL    HW111721  -0.040   1.857   3.415  0.7734 -0.8052  1.5303
 3061SOL    HW211722   0.111   1.855   3.428  0.9710  2.2405  0.1091
 3062SOL     OW11723   7.601   1.957   1.872  0.1842 -0.0674 -0.5883
 3062SOL    HW111724   7.679   1.913   1.906  0.2872  0.2438 -0.4179
 3062SOL    HW211725   7.528   1.917   1.919  0.4020  1.0814  0.7688
 3063SOL     OW11726   1.195   3.883   6.354  0.1673 -0.3682  0.1641
 3063SOL    HW111727   1.279   3.846   6.381 -0.2134 -0.1053  1.7524
 3063SOL    HW211728   1.156   3.815   6.298  1.7079 -0.2131 -1.1520
 3064SOL     OW11729   8.526   0.880   3.677 -0.4181  0.3943  0.0704
 3064SOL    HW111730   8.487   0.837   3.601 -0.3169  0.3045  0.0694
 3064SOL    HW211731   8.452   0.914   3.726 -0.4747  0.6425 -0.1855
 3065SOL     OW11732   7.080   0.530   1.251  0.1074  0.1297 -0.8008
 3065SOL    HW111733   7.084   0.447   1.204  0.5447 -1.0020  1.2090
 3065SOL    HW211734   7.051   0.507   1.339  1.4227  1.9565  0.1406
 3066SOL     OW11735   5.868   4.142   1.724  0.5563  0.2037  0.1519
 3066SOL    HW111736   5.962   4.159   1.731  0.8290 -1.1230 -0.2484
 3066SOL    HW211737   5.847   4.161   1.632  0.3308  0.9990  0.3668
 3067SOL     OW11738   8.428   2.476   0.115  0.1625 -0.3057 -0.2125
 3067SOL    HW111739   8.366   2.542   0.085  0.1077  0.8976  2.3998
 3067SOL    HW211740   8.514   2.513   0.095  0.0914 -0.7600 -1.3823
 3068SOL     OW11741   6.063   8.216   0.882  0.1773  0.4844  0.0462
 3068SOL    HW111742   6.020   8.188   0.963  0.0570  2.2553  0.6207
 3068SOL    HW211743   6.156   8.220   0.904  0.0205  2.1945  0.5029
 3069SOL     OW11744   9.698   7.135   6.594 -0.3652 -0.4227 -0.1656
 3069SOL    HW111745   9.639   7.210   6.592 -0.4969 -0.5523 -2.1316
 3069SOL    HW211746   9.779   7.169   6.633 -0.8226  0.4152  0.0763
 3070SOL     OW11747   1.774   1.707   1.072  0.7131 -0.6296 -0.2679
 3070SOL    HW111748   1.747   1.622   1.106 -0.0488 -0.9367 -1.5898
 3070SOL    HW211749   1.727   1.770   1.127  1.3930 -1.0414  0.8109
 3071SOL     OW11750   0.428   2.391   2.079  0.2338  0.4654  0.1428
 3071SOL    HW111751   0.422   2.485   2.100 -0.8790 -0.0851  2.4699
 3071SOL    HW211752   0.497   2.358   2.137 -0.5427 -0.4577  0.5477
 3072SOL     OW11753   1.209   4.148   1.346  0.0718 -0.4647 -0.0555
 3072SOL    HW111754   1.230   4.159   1.439  0.2398 -0.1936 -0.1255
 3072SOL    HW211755   1.245   4.226   1.304 -2.7806  0.9868  0.0876
 3073SOL     OW11756   0.127   7.989   3.905  0.7570 -0.4494 -0.1630
 3073SOL    HW111757   0.045   7.942   3.919  0.2350  0.2827 -0.7900
 3073SOL    HW211758   0.168   7.945   3.831 -0.9903  1.7445 -2.5058
 3074SOL     OW11759   6.206   7.435   1.436 -0.0017  0.2153  0.2740
 3074SOL    HW111760   6.216   7.499   1.506  0.5574  1.1854 -0.6748
 3074SOL    HW211761   6.181   7.487   1.359  1.6797 -0.5308 -0.8052
 3075SOL     OW11762   5.189   6.613   9.023  0.2526  0.2501 -0.6600
 3075SOL    HW111763   5.280   6.585   9.015  0.6430  0.6238  1.9527
 3075SOL    HW211764   5.183   6.693   8.970  2.0881  1.5391  1.0131
 3076SOL     OW11765   8.656   2.104   3.734 -0.1452 -0.2144  0.1311
 3076SOL    HW111766   8.701   2.020   3.722  1.2819  0.2559  2.0113
 3076SOL    HW211767   8.650   2.140   3.645  0.1124 -1.8538 -0.5744
 3077SOL     OW11768   2.621   8.805   7.717 -0.2750 -0.3737  0.1018
 3077SOL    HW111769   2.639   8.769   7.630 -1.6972  0.7497 -0.6789
 3077SOL    HW211770   2.697   8.859   7.736  0.5253 -1.4447  0.0212
 3078SOL     OW11771   2.318   2.879   7.775 -0.3802 -0.3123 -0.4287
 3078SOL    HW111772   2.235   2.887   7.821  0.1292  1.3521  0.2617
 3078SOL    HW211773   2.296   2.892   7.683 -1.1804 -2.1031 -0.5158
 3079SOL     OW11774   5.598   1.778   9.117 -0.0702  0.2519 -0.2057
 3079SOL    HW111775   5.503   1.783   9.125 -0.1652  0.2094 -1.3337
 3079SOL    HW211776   5.625   1.865   9.087  0.2230  0.1815 -0.1548
 3080SOL     OW11777   3.747   9.521   4.981  0.2785 -0.1266  0.5485
 3080SOL    HW111778   3.737   9.616   4.974 -1.3211 -0.2713  0.8086
 3080SOL    HW211779   3.840   9.506   4.965  0.5908  1.5060  0.7604
 3081SOL     OW11780   5.947   6.696   9.543  0.0271 -0.4348  0.2825
 3081SOL    HW111781   6.013   6.635   9.511 -0.1117 -1.1269  1.2888
 3081SOL    HW211782   5.864   6.648   9.534 -0.5656  1.0481 -2.5672
 3082SOL     OW11783   3.048   5.524   9.587 -0.3121 -0.0868 -0.1333
 3082SOL    HW111784   3.102   5.589   9.631  0.6223  0.9555 -2.6801
 3082SOL    HW211785   2.959   5.541   9.618  0.0680  1.7450  0.0026
 3083SOL     OW11786  10.124   4.582   7.230 -0.9590  0.9133  0.0269
 3083SOL    HW111787  10.097   4.507   7.284 -1.4642 -0.8594 -2.5497
 3083SOL    HW211788  10.217   4.567   7.214 -1.1258  0.6539 -0.7282
 3084SOL     OW11789   2.301   3.564   0.521 -0.5491  0.1171 -0.3050
 3084SOL    HW111790   2.272   3.648   0.486  2.0956  1.3926  0.4202
 3084SOL    HW211791   2.385   3.583   0.563  0.4997 -3.0432 -0.8167
 3085SOL     OW11792   3.089   6.117   7.745  0.0470  0.0877 -0.2592
 3085SOL    HW111793   3.146   6.092   7.673  0.1565 -1.6769  0.4246
 3085SOL    HW211794   3.149   6.140   7.816 -0.0740  0.8455 -0.3950
 3086SOL     OW11795   0.316   2.300   7.633 -0.0894  0.4277 -0.2928
 3086SOL    HW111796   0.330   2.207   7.616  1.4302  0.0546  2.6147
 3086SOL    HW211797   0.366   2.317   7.713 -1.6895  3.3634  0.1485
 3087SOL     OW11798   4.538   5.020   1.024  0.3701 -0.3202 -0.3988
 3087SOL    HW111799   4.531   4.973   0.941 -2.0689  1.1877 -1.0919
 3087SOL    HW211800   4.471   4.980   1.079  1.8867 -1.2215  0.8341
 3088SOL     OW11801   6.758   2.027   7.582  0.3160 -0.0949  0.7481
 3088SOL    HW111802   6.755   2.122   7.598  0.9947 -0.1544  1.2511
 3088SOL    HW211803   6.678   1.994   7.623  0.8091  0.0766  1.8598
 3089SOL     OW11804   2.135   2.144   4.873  0.2183 -0.2417 -0.1006
 3089SOL    HW111805   2.090   2.122   4.955  0.2375 -0.1723 -0.0714
 3089SOL    HW211806   2.125   2.066   4.818 -0.0005 -0.2003 -0.1198
 3090SOL     OW11807   8.148   2.029   8.760  0.0892  0.2873  0.4223
 3090SOL    HW111808   8.120   2.090   8.692  0.8022  1.3196  1.0362
 3090SOL    HW211809   8.069   1.981   8.784  0.2843 -1.7865 -2.8002
 3091SOL     OW11810   4.184   5.044   5.967 -0.2554  0.1140  0.3179
 3091SOL    HW111811   4.224   4.974   6.018  1.3852  0.9547  0.2475
 3091SOL    HW211812   4.094   5.050   5.999 -0.2276 -1.6028  0.7448
 3092SOL     OW11813   5.689   6.965   5.756  0.4639 -0.4576 -0.9779
 3092SOL    HW111814   5.695   7.061   5.756  0.3269 -0.4275  1.9302
 3092SOL    HW211815   5.780   6.936   5.758  0.4819 -0.3368  0.8003
 3093SOL     OW11816   3.287   6.384   5.710  0.2434 -0.3155 -0.0630
 3093SOL    HW111817   3.380   6.400   5.702 -0.0363  0.9627 -0.8903
 3093SOL    HW211818   3.272   6.302   5.662  1.0193 -0.8380  0.5856
 3094SOL     OW11819   0.723   9.879   6.900  0.6263 -0.3307  0.4236
 3094SOL    HW111820   0.698   9.947   6.837  0.5861 -1.8228 -1.1944
 3094SOL    HW211821   0.642   9.830   6.915  0.8096 -0.4312  1.0918
 3095SOL     OW11822   7.671   1.382   5.660  0.2439  0.0883 -1.1262
 3095SOL    HW111823   7.725   1.449   5.616  1.3326 -0.8821 -1.2912
 3095SOL    HW211824   7.665   1.412   5.751  3.7996 -1.4006 -0.3080
 3096SOL     OW11825   5.218   7.419   4.935  0.0011 -0.0949 -0.4220
 3096SOL    HW111826   5.125   7.435   4.920 -0.4757 -1.1000  1.3053
 3096SOL    HW211827   5.221   7.336   4.982  1.8907 -0.9286 -1.9415
 3097SOL     OW11828   1.686   6.094   6.152  0.5250 -0.3176  0.2688
 3097SOL    HW111829   1.610   6.100   6.210 -0.0449  1.4288 -0.6133
 3097SOL    HW211830   1.694   6.001   6.133 -1.4828 -0.5209  0.2805
 3098SOL     OW11831   1.406   9.824   0.701 -0.1603 -0.3171  0.0606
 3098SOL    HW111832   1.446   9.785   0.624 -0.9240 -0.8588 -0.0680
 3098SOL    HW211833   1.331   9.873   0.667 -0.6087 -0.7097  0.4747
 3099SOL     OW11834   5.643   5.614   1.066  0.3271 -0.4053 -0.0640
 3099SOL    HW111835   5.702   5.689   1.078  2.3270 -2.1374  1.0817
 3099SOL    HW211836   5.601   5.602   1.151 -0.7233 -0.0347 -0.5078
 3100SOL     OW11837   5.829   9.411   3.688  0.2404  0.0598  0.1943
 3100SOL    HW111838   5.823   9.500   3.653 -1.1945 -0.1838 -0.2212
 3100SOL    HW211839   5.841   9.424   3.782  1.4871  0.6994 -0.0474
 3101SOL     OW11840   3.526   0.812   7.725 -0.2696  0.2869  0.2813
 3101SOL    HW111841   3.554   0.896   7.761 -0.3620  0.4057  0.0750
 3101SOL    HW211842   3.449   0.832   7.672 -0.4268  0.0383  0.4163
 3102SOL     OW11843   4.739   4.367   4.323 -0.5101  0.2889  0.2753
 3102SOL    HW111844   4.795   4.433   4.364  1.4733 -0.8205 -0.5775
 3102SOL    HW211845   4.675   4.418   4.274  0.2375  1.6003  0.6226
 3103SOL     OW11846   0.046   7.332   1.649 -0.0145 -0.4085  0.0794
 3103SOL    HW111847   0.033   7.279   1.728 -0.0650 -3.0123 -1.6361
 3103SOL    HW211848  -0.041   7.335   1.608 -0.3800  2.3551  0.9166
 3104SOL     OW11849   9.981   1.132   4.412  0.2091  0.5933  0.2807
 3104SOL    HW111850   9.949   1.222   4.405  2.7399  1.3884 -1.6712
 3104SOL    HW211851  10.063   1.132   4.362 -0.4501 -3.1236 -0.9318
 3105SOL     OW11852   5.170   8.125   6.626 -0.0802  0.0945  0.1599
 3105SOL    HW111853   5.231   8.078   6.682  1.2284  0.9794 -0.4992
 3105SOL    HW211854   5.158   8.067   6.550 -0.6428 -0.4069  0.6257
 3106SOL     OW11855   6.239   7.272   5.252  0.1856 -0.5802 -0.1316
 3106SOL    HW111856   6.150   7.289   5.218 -0.2390 -1.0599  0.7428
 3106SOL    HW211857   6.260   7.184   5.222  0.4418 -0.4011 -0.4859
 3107SOL     OW11858   0.384   6.872   4.746  0.1079  0.1072  0.0453
 3107SOL    HW111859   0.414   6.846   4.833 -3.2014  0.5771  1.4189
 3107SOL    HW211860   0.294   6.840   4.742 -0.4006  1.7396 -2.5075
 3108SOL     OW11861   2.287   6.803   9.244  0.1054  0.1699 -0.2550
 3108SOL    HW111862   2.341   6.811   9.165  1.3345  0.5328  0.6128
 3108SOL    HW211863   2.232   6.882   9.243  1.0106  0.8083 -0.0891
 3109SOL     OW11864   7.421   5.757   6.885 -0.6643 -0.3278 -0.4654
 3109SOL    HW111865   7.505   5.802   6.882 -2.0104  2.2402 -2.1030
 3109SOL    HW211866   7.363   5.817   6.932 -1.8397 -1.5787 -0.2821
 3110SOL     OW11867   3.857   0.714   6.751 -0.3042  0.0877 -0.6652
 3110SOL    HW111868   3.843   0.684   6.841 -0.2747  0.6503 -0.4680
 3110SOL    HW211869   3.912   0.646   6.712  1.1957  0.7098  0.2927
 3111SOL     OW11870   7.748   8.583   1.307 -0.3710 -0.1607  0.1643
 3111SOL    HW111871   7.793   8.612   1.228 -1.7566  0.1713 -0.5269
 3111SOL    HW211872   7.772   8.491   1.316  0.8150  0.1388  0.0814
 3112SOL     OW11873   7.737   0.714   1.703  0.5888 -0.8024  0.5027
 3112SOL    HW111874   7.744   0.743   1.612 -2.5255 -1.9019 -0.1609
 3112SOL    HW211875   7.725   0.794   1.753 -1.4372 -0.4264 -0.5366
 3113SOL     OW11876   6.699   5.549   3.964 -0.1898 -1.1908  0.0473
 3113SOL    HW111877   6.723   5.519   4.051 -0.1007  1.1027  0.8468
 3113SOL    HW211878   6.618   5.599   3.977  0.5257  0.2719 -0.9715
 3114SOL     OW11879   0.357   7.704   7.509 -0.0354  0.2184  0.3364
 3114SOL    HW111880   0.406   7.703   7.592  1.1704  1.1440 -0.3493
 3114SOL    HW211881   0.343   7.612   7.488  0.0682 -0.0297  1.3252
 3115SOL     OW11882   3.063   8.032   6.260  0.0338  0.2455 -0.4183
 3115SOL    HW111883   3.111   7.960   6.301 -0.9781  0.2277  0.7790
 3115SOL    HW211884   3.088   8.109   6.311 -2.2693  0.0091  1.1484
 3116SOL     OW11885   2.057   1.979   2.926  0.3351 -0.1806  0.1228
 3116SOL    HW111886   2.040   1.890   2.960  1.3289 -0.5255 -0.2499
 3116SOL    HW211887   2.000   2.035   2.978  0.0312 -0.9893  0.6879
 3117SOL     OW11888   6.827   2.469   4.401  0.0019 -0.0476  0.0488
 3117SOL    HW111889   6.744   2.511   4.425  0.4376  0.8123  0.0697
 3117SOL    HW211890   6.887   2.492   4.472  0.0969 -1.1759  0.3390
 3118SOL     OW11891   1.329   1.486   3.795  0.1918 -0.4425  0.0078
 3118SOL    HW111892   1.300   1.526   3.713 -0.6192 -1.0335 -0.0028
 3118SOL    HW211893   1.320   1.392   3.780  3.3761 -0.7396 -0.4503
 3119SOL     OW11894   3.131   1.657   4.986  0.3965 -0.1131 -0.1180
 3119SOL    HW111895   3.070   1.730   4.991 -0.1508 -0.4726 -1.3508
 3119SOL    HW211896   3.191   1.680   4.916  0.3615 -0.7357 -0.3602
 3120SOL     OW11897   5.173   3.995   4.469  0.3244  0.3113 -0.0427
 3120SOL    HW111898   5.243   4.027   4.413  2.2873 -1.3793  1.3544
 3120SOL    HW211899   5.161   3.903   4.443  0.4584 -0.1516  1.4914
 3121SOL     OW11900   3.851   6.665   1.929  0.1931 -0.2939 -0.1649
 3121SOL    HW111901   3.921   6.656   1.994  0.7450 -0.2711 -0.7430
 3121SOL    HW211902   3.845   6.759   1.912  0.3734 -0.3396 -0.4895
 3122SOL     OW11903   7.446   7.320  10.032  0.2035  0.4464 -0.6677
 3122SOL    HW111904   7.479   7.370  10.107  0.4722  0.3383 -0.7138
 3122SOL    HW211905   7.359   7.290  10.061  1.1495 -1.3583  0.4190
 3123SOL     OW11906   2.464   1.654   2.432  0.0793 -0.6624 -0.3062
 3123SOL    HW111907   2.535   1.651   2.496 -0.5466  2.1531  0.5648
 3123SOL    HW211908   2.391   1.611   2.476  0.1062 -0.1278  0.2563
 3124SOL     OW11909   5.132   2.548   2.547  0.0090 -0.2179  0.9382
 3124SOL    HW111910   5.122   2.478   2.483  1.8889 -2.5672  3.1142
 3124SOL    HW211911   5.217   2.588   2.526 -0.8125  1.1053  0.0383
 3125SOL     OW11912   7.133   5.054   8.133  0.5410 -0.0474  0.5051
 3125SOL    HW111913   7.084   5.025   8.210 -1.4563  3.5204  0.6927
 3125SOL    HW211914   7.139   4.976   8.077  0.0535 -2.1056  3.2358
 3126SOL     OW11915   2.531   1.200   3.305 -0.1442  0.5255  0.1060
 3126SOL    HW111916   2.451   1.249   3.287  0.7280  1.7381 -0.5553
 3126SOL    HW211917   2.537   1.199   3.401 -0.3798  1.3874  0.1382
 3127SOL     OW11918   7.865   5.457   4.029  0.2136  0.0657 -0.2911
 3127SOL    HW111919   7.958   5.460   4.006  0.5873  0.2915  1.1483
 3127SOL    HW211920   7.824   5.404   3.961  1.5056 -0.5321 -0.6175
 3128SOL     OW11921   1.448   7.560   4.980  0.0576 -0.2292 -0.1446
 3128SOL    HW111922   1.519   7.620   5.005 -0.6032  0.4190  0.1910
 3128SOL    HW211923   1.465   7.480   5.030 -0.4934  0.5807  1.3660
 3129SOL     OW11924   7.533   4.363   8.853 -0.2385  0.5217  1.4422
 3129SOL    HW111925   7.454   4.336   8.805  0.5168  1.2059 -0.2063
 3129SOL    HW211926   7.602   4.365   8.787  1.0646  0.4410  2.7767
 3130SOL     OW11927   2.857   4.451   7.004 -0.5054  0.1489 -0.1352
 3130SOL    HW111928   2.950   4.445   6.980  0.0505  3.2695  1.0196
 3130SOL    HW211929   2.823   4.362   6.990  2.7443 -1.1751 -0.1090
 3131SOL     OW11930   1.644   7.523   6.250  0.0892  0.0052  0.6096
 3131SOL    HW111931   1.570   7.463   6.246 -0.3198  0.6848 -2.9277
 3131SOL    HW211932   1.717   7.474   6.212  1.4107 -0.4935  3.6356
 3132SOL     OW11933   0.639   6.380   7.378 -0.6056 -0.3919  0.5836
 3132SOL    HW111934   0.676   6.458   7.338  0.8823 -0.5758  1.5704
 3132SOL    HW211935   0.632   6.317   7.306 -1.8353  0.6343 -0.2169
 3133SOL     OW11936   0.309   4.232   2.167  0.5034  0.0148  0.4585
 3133SOL    HW111937   0.248   4.165   2.135 -0.6326  0.2725  2.0673
 3133SOL    HW211938   0.313   4.218   2.261  1.9474  0.8369  0.5354
 3134SOL     OW11939   2.566   7.166   5.493  0.1492 -0.3618 -0.1237
 3134SOL    HW111940   2.503   7.098   5.517  0.3855 -0.4989  0.1160
 3134SOL    HW211941   2.648   7.118   5.481  0.6382  0.0606  1.4181
 3135SOL     OW11942   5.559   4.576   2.166 -0.2969  0.2024  0.4104
 3135SOL    HW111943   5.634   4.627   2.134 -0.6266  0.1087 -0.4996
 3135SOL    HW211944   5.529   4.625   2.243 -0.1703  0.9973 -0.0426
 3136SOL     OW11945   1.415   7.414   9.753  0.3263 -0.2841  0.8220
 3136SOL    HW111946   1.495   7.433   9.802  0.4895 -1.2912  0.9652
 3136SOL    HW211947   1.378   7.500   9.732  3.2661  0.3417 -2.2464
 3137SOL     OW11948   5.242   1.528   8.571 -0.2388 -0.6497 -0.7484
 3137SOL    HW111949   5.295   1.600   8.605 -0.6988  0.8355 -3.0972
 3137SOL    HW211950   5.297   1.485   8.506 -1.3073 -0.0895 -2.0497
 3138SOL     OW11951   8.593   3.700   3.652  0.2160  0.3475 -0.1751
 3138SOL    HW111952   8.646   3.623   3.633  1.0834  0.9411 -0.1680
 3138SOL    HW211953   8.564   3.688   3.743 -0.2361 -0.3112 -0.4085
 3139SOL     OW11954   9.757   1.400   1.697 -0.4018  0.6443  0.4997
 3139SOL    HW111955   9.752   1.489   1.662 -1.5869  0.0792 -0.8139
 3139SOL    HW211956   9.837   1.399   1.749 -0.9091  2.7841  1.3915
 3140SOL     OW11957   8.374   7.086   5.747 -0.1688 -0.1152 -0.1292
 3140SOL    HW111958   8.281   7.109   5.749 -0.3127 -0.7614  2.2862
 3140SOL    HW211959   8.420   7.168   5.763 -0.3474  0.0768 -0.5996
 3141SOL     OW11960   7.853   1.081   1.409  0.6658  0.1516 -0.0483
 3141SOL    HW111961   7.820   1.113   1.493 -0.9864  0.5451 -0.8328
 3141SOL    HW211962   7.945   1.059   1.427 -0.0828 -1.2912  2.2490
 3142SOL     OW11963   8.700   3.214  10.155  0.3242  1.0341 -0.7393
 3142SOL    HW111964   8.761   3.145  10.127  1.1043  0.6111  1.8570
 3142SOL    HW211965   8.684   3.194  10.247 -0.8311  3.3246 -0.4382
 3143SOL     OW11966   7.541   9.901   2.549  0.1842  0.4018 -0.0050
 3143SOL    HW111967   7.566   9.873   2.637  1.9203  0.5836 -0.4185
 3143SOL    HW211968   7.481   9.833   2.518 -0.2878  0.2366  1.2351
 3144SOL     OW11969   0.808   0.861   8.454 -0.7505 -0.0583  0.1859
 3144SOL    HW111970   0.813   0.770   8.484 -0.9696 -0.3002 -0.4817
 3144SOL    HW211971   0.725   0.893   8.489 -1.3947 -0.5919 -0.8194
 3145SOL     OW11972   9.668   7.574   9.913 -0.1326 -0.1990 -0.6802
 3145SOL    HW111973   9.583   7.555   9.953 -0.1808 -0.0730 -0.7212
 3145SOL    HW211974   9.647   7.631   9.839  0.0394  0.3079 -0.3449
 3146SOL     OW11975   1.357   1.041   2.058 -0.0275 -0.2375  0.8644
 3146SOL    HW111976   1.345   1.136   2.063 -0.6766 -0.1784 -1.1958
 3146SOL    HW211977   1.277   1.009   2.016  0.7254 -1.5671  0.4108
 3147SOL     OW11978   9.494   8.031   4.705 -0.3545 -0.2893  0.2359
 3147SOL    HW111979   9.542   8.103   4.666 -0.1676 -1.4305 -1.6619
 3147SOL    HW211980   9.554   7.957   4.703 -1.5455 -1.2497 -0.4672
 3148SOL     OW11981   6.893   5.286   1.506 -0.1477  0.2124  0.3911
 3148SOL    HW111982   6.928   5.206   1.466 -0.8481 -0.2158  0.6249
 3148SOL    HW211983   6.970   5.341   1.521  0.3851 -0.5862  0.6108
 3149SOL     OW11984   8.260   6.026   1.158  0.0960  0.0788 -0.2991
 3149SOL    HW111985   8.173   6.058   1.185 -0.4137 -1.4948 -0.0077
 3149SOL    HW211986   8.321   6.071   1.217 -0.7915 -1.1915  1.6710
 3150SOL     OW11987   0.715   6.925   1.176 -0.4358 -0.1640  0.4697
 3150SOL    HW111988   0.654   6.996   1.193 -1.3147 -1.1393  1.3912
 3150SOL    HW211989   0.660   6.852   1.146  0.5292 -0.2212 -1.2581
 3151SOL     OW11990   6.540   6.782   1.599 -0.3375 -0.1782 -0.2286
 3151SOL    HW111991   6.546   6.761   1.692  1.9372  0.5055 -0.1796
 3151SOL    HW211992   6.574   6.704   1.555 -0.5976 -0.1768 -0.4281
 3152SOL     OW11993   8.820   4.189   7.469 -0.3512 -0.1124  1.5517
 3152SOL    HW111994   8.753   4.235   7.418 -0.2786 -0.3987  1.1999
 3152SOL    HW211995   8.901   4.203   7.419 -0.7539 -2.7646  0.0940
 3153SOL     OW11996   5.197   8.994   5.746 -0.0409 -0.1371 -0.4591
 3153SOL    HW111997   5.137   9.062   5.717  0.5832  0.0786 -1.2812
 3153SOL    HW211998   5.251   8.975   5.669  1.8171  0.6155  0.6080
 3154SOL     OW11999   8.778   9.123   8.908 -0.2670  0.1001  0.2486
 3154SOL    HW112000   8.805   9.119   9.000  0.4828 -0.6978  0.0000
 3154SOL    HW212001   8.844   9.179   8.867 -1.5290  1.8053  0.5078
 3155SOL     OW12002   9.960   6.616   4.671  0.0333 -0.6656  0.1937
 3155SOL    HW112003   9.967   6.657   4.585 -0.3122 -1.5894 -0.2808
 3155SOL    HW212004   9.927   6.685   4.728  1.9903  0.4826 -0.0063
 3156SOL     OW12005   1.812   4.649   8.648 -0.0863 -0.4278  0.0087
 3156SOL    HW112006   1.817   4.615   8.558 -1.1073  1.4561 -0.7940
 3156SOL    HW212007   1.898   4.689   8.663  0.0818 -0.7322 -0.1295
 3157SOL     OW12008   1.589   9.924   6.659  0.1530 -0.2656 -0.0015
 3157SOL    HW112009   1.656   9.979   6.620  0.2070 -0.7872 -0.6590
 3157SOL    HW212010   1.508   9.948   6.613 -0.5859  2.0360  2.4032
 3158SOL     OW12011   2.340   5.871   3.419  0.0997  0.0090 -1.0219
 3158SOL    HW112012   2.350   5.889   3.513  0.0103  1.3889 -1.2660
 3158SOL    HW212013   2.346   5.957   3.378 -0.1021 -0.5679 -2.2670
 3159SOL     OW12014   0.752   1.501   5.447 -0.3513  0.2375  0.0773
 3159SOL    HW112015   0.799   1.548   5.377  0.3846  0.5923  0.8006
 3159SOL    HW212016   0.713   1.425   5.403 -0.1279  0.6142 -0.7758
 3160SOL     OW12017   6.502   6.488   0.515  0.3431 -0.1918 -0.2772
 3160SOL    HW112018   6.431   6.548   0.536 -0.1862 -0.3252 -1.6376
 3160SOL    HW212019   6.527   6.511   0.425  0.9386 -1.2043 -0.3789
 3161SOL     OW12020   7.013   0.713   1.064 -0.2727 -1.0213 -0.0126
 3161SOL    HW112021   6.932   0.734   1.110 -0.6085 -0.6436 -0.7701
 3161SOL    HW212022   7.049   0.638   1.112 -1.9260 -2.2952 -0.6916
 3162SOL     OW12023   1.726   0.880   5.329 -0.2122  0.6136 -0.0646
 3162SOL    HW112024   1.637   0.850   5.347 -0.3694  1.0534 -0.1095
 3162SOL    HW212025   1.773   0.801   5.304 -0.6234  0.3980 -0.1615
 3163SOL     OW12026   7.622   7.176   8.282 -0.1109  0.4478  0.2587
 3163SOL    HW112027   7.604   7.227   8.203 -0.1437  1.6659  1.0370
 3163SOL    HW212028   7.620   7.085   8.253  2.8030  0.9690 -1.7299
 3164SOL     OW12029   5.072   6.746   3.210  0.3809  0.2961  0.0259
 3164SOL    HW112030   4.994   6.770   3.261  1.3755 -0.5320  2.0208
 3164SOL    HW212031   5.044   6.749   3.119 -0.7553  4.4405  0.4466
 3165SOL     OW12032   6.962   3.935   6.496  0.1743  0.0825  0.6450
 3165SOL    HW112033   6.884   3.976   6.461  0.1756 -0.0801  0.4544
 3165SOL    HW212034   7.034   3.993   6.470  0.2549 -0.4084 -0.2246
 3166SOL     OW12035   0.551   2.606   5.281  0.1673 -0.1615  0.3460
 3166SOL    HW112036   0.556   2.558   5.363 -0.3176  1.7802  1.5377
 3166SOL    HW212037   0.596   2.689   5.298 -1.3655  0.9458 -0.8349
 3167SOL     OW12038   6.950   4.851   8.665  0.1711 -0.3983 -0.4992
 3167SOL    HW112039   6.888   4.778   8.656 -2.6827  1.7544  0.9479
 3167SOL    HW212040   6.961   4.861   8.759 -0.2301  1.6383 -0.6491
 3168SOL     OW12041   7.901   8.718   3.009  0.5104 -0.7918  0.4415
 3168SOL    HW112042   7.947   8.734   2.926  0.4368 -2.2382  0.1018
 3168SOL    HW212043   7.848   8.797   3.023  0.7061 -0.4365 -0.7660
 3169SOL     OW12044   5.079   5.697   3.867  0.1582  0.0486  0.3018
 3169SOL    HW112045   5.069   5.664   3.956 -2.2992  0.4388  0.2075
 3169SOL    HW212046   5.000   5.748   3.851  0.8337  0.4785 -1.9060
 3170SOL     OW12047   4.085   6.211   2.155 -0.0500 -0.3697  0.3444
 3170SOL    HW112048   4.110   6.282   2.214 -1.2460 -0.5345  1.0610
 3170SOL    HW212049   4.159   6.151   2.155  1.8295  1.8078 -1.7669
 3171SOL     OW12050   9.605   9.203   1.736 -0.4022 -0.4512 -0.2715
 3171SOL    HW112051   9.622   9.197   1.830  0.3365 -0.9629 -0.4368
 3171SOL    HW212052   9.691   9.197   1.695 -0.3671  3.0822 -0.8617
 3172SOL     OW12053   3.383   4.638   3.116 -0.1798 -0.1337  0.0118
 3172SOL    HW112054   3.320   4.690   3.165  0.4731 -0.1238  0.8571
 3172SOL    HW212055   3.433   4.591   3.183 -0.4090 -1.4517 -0.7106
 3173SOL     OW12056   0.755   6.679   0.118  0.6104  0.0460  0.5211
 3173SOL    HW112057   0.762   6.677   0.023 -0.4050  0.5532  0.4250
 3173SOL    HW212058   0.842   6.704   0.148  0.3809  2.0969 -0.3877
 3174SOL     OW12059   9.373   1.488   0.865 -1.0577 -0.0457  0.0777
 3174SOL    HW112060   9.367   1.582   0.879  0.4233  0.2107 -0.9339
 3174SOL    HW212061   9.308   1.469   0.797 -0.2447  0.5215 -0.8778
 3175SOL     OW12062   7.184   4.921   9.474 -0.4571 -0.4423 -0.0655
 3175SOL    HW112063   7.226   4.999   9.510 -0.9370  0.8485 -2.2066
 3175SOL    HW212064   7.157   4.871   9.551 -0.4226  1.6595  1.3646
 3176SOL     OW12065   4.742   6.343   5.972  0.5309  0.2007 -1.4514
 3176SOL    HW112066   4.692   6.416   5.935  0.7165  0.4747 -1.1674
 3176SOL    HW212067   4.689   6.266   5.953 -0.6493  0.6400 -0.0089
 3177SOL     OW12068   9.218   3.718   7.355 -0.3895 -0.0783  0.2610
 3177SOL    HW112069   9.297   3.724   7.302 -0.8709 -1.4689 -0.6621
 3177SOL    HW212070   9.200   3.807   7.384  0.9768  0.3794 -0.3106
 3178SOL     OW12071   1.904   6.701   9.526 -0.5778  0.7269  0.4559
 3178SOL    HW112072   1.978   6.699   9.588  0.6000 -0.8658 -0.9528
 3178SOL    HW212073   1.833   6.659   9.574  0.6714 -1.6013  0.3444
 3179SOL     OW12074   4.898   7.895   3.542 -0.4321  0.2538 -0.0462
 3179SOL    HW112075   4.932   7.916   3.630 -1.6704  0.4298  0.3973
 3179SOL    HW212076   4.970   7.848   3.500  0.4853  0.8928  0.7658
 3180SOL     OW12077   4.157   7.357   7.426  0.0926  0.2730  0.6452
 3180SOL    HW112078   4.122   7.322   7.508 -0.8073 -1.1115 -0.2981
 3180SOL    HW212079   4.137   7.450   7.428 -0.9459  0.0393  1.4908
 3181SOL     OW12080   2.987   8.755   5.763  0.3749  0.6027  0.4678
 3181SOL    HW112081   3.003   8.760   5.857  0.2956  0.9661  0.4630
 3181SOL    HW212082   3.036   8.829   5.726  0.6367  0.2945  0.1937
 3182SOL     OW12083   9.396   9.202   6.141  0.6071  0.1105  0.0153
 3182SOL    HW112084   9.379   9.168   6.229  0.8815  0.6766  0.2875
 3182SOL    HW212085   9.312   9.241   6.114 -0.0365 -1.7274 -0.7365
 3183SOL     OW12086   9.300   1.722   8.710  0.2861 -0.1526 -0.4169
 3183SOL    HW112087   9.328   1.752   8.624  1.4884  1.0046  0.3727
 3183SOL    HW212088   9.328   1.630   8.713  2.0276  0.3655 -0.4915
 3184SOL     OW12089   7.605   9.326   3.432 -0.1068 -0.1077 -0.1391
 3184SOL    HW112090   7.589   9.406   3.382 -1.9437  0.1541  0.7815
 3184SOL    HW212091   7.700   9.321   3.441  0.0307  2.1154 -0.0157
 3185SOL     OW12092   4.468   9.498   4.883 -0.6813  0.3248 -0.0318
 3185SOL    HW112093   4.383   9.467   4.852 -0.7179 -0.7376  1.1006
 3185SOL    HW212094   4.532   9.455   4.826 -0.8299 -0.1391  0.1535
 3186SOL     OW12095   2.084   9.366   6.503  0.1978 -0.3405  0.8880
 3186SOL    HW112096   2.125   9.450   6.524  1.8884 -0.9183  0.0284
 3186SOL    HW212097   2.091   9.315   6.584 -0.2126  0.1202  1.2098
 3187SOL     OW12098   8.000   1.483   3.587  0.0249 -0.0576  0.2244
 3187SOL    HW112099   8.021   1.487   3.494 -1.2036  0.0255 -0.0556
 3187SOL    HW212100   8.083   1.462   3.630  0.6911  0.3652 -0.8475
 3188SOL     OW12101   3.695   6.182   9.214  0.1071 -0.8229  0.4630
 3188SOL    HW112102   3.760   6.118   9.243  0.4952  0.0950  1.6014
 3188SOL    HW212103   3.657   6.142   9.135  1.9506 -1.4080 -0.1467
 3189SOL     OW12104   2.528   7.873   4.126 -0.1522 -0.5686 -0.4514
 3189SOL    HW112105   2.462   7.840   4.065 -0.0325 -1.8211  0.0958
 3189SOL    HW212106   2.485   7.872   4.211 -0.2017  0.8601 -0.4465
 3190SOL     OW12107   9.833   8.282   8.335 -0.4590 -0.3644 -0.0747
 3190SOL    HW112108   9.896   8.348   8.361 -1.8452  1.1309 -0.4356
 3190SOL    HW212109   9.852   8.266   8.242 -0.4965 -0.0625 -0.1332
 3191SOL     OW12110   7.223   9.337   3.494 -0.1411 -0.3779 -0.2508
 3191SOL    HW112111   7.177   9.264   3.453  1.2223 -1.1856 -0.3770
 3191SOL    HW212112   7.163   9.411   3.486 -1.7018 -1.5725  0.2444
 3192SOL     OW12113   6.730   8.270   8.671 -0.4237  0.1732  0.2300
 3192SOL    HW112114   6.715   8.354   8.713  1.4425 -0.0309  1.3148
 3192SOL    HW212115   6.822   8.250   8.687 -0.7108 -1.8394 -0.4489
 3193SOL     OW12116  10.196   7.371   9.767 -0.0859  0.4857  0.1557
 3193SOL    HW112117  10.244   7.386   9.686  1.1016 -1.1473  0.5446
 3193SOL    HW212118  10.190   7.276   9.775  0.3748  0.6063  2.2976
 3194SOL     OW12119   4.882   8.453   1.915  0.3105 -0.4491 -0.4815
 3194SOL    HW112120   4.820   8.380   1.911 -0.1432 -0.1687  1.0771
 3194SOL    HW212121   4.830   8.530   1.895  0.2641 -0.2768  0.2828
 3195SOL     OW12122   9.886   1.282   0.886  0.0090 -0.9111 -0.1417
 3195SOL    HW112123   9.800   1.302   0.847  0.9350 -1.5726 -2.6001
 3195SOL    HW212124   9.874   1.196   0.926  0.0796 -1.9938 -2.3582
 3196SOL     OW12125   4.292   8.960   5.249 -0.1562 -0.3427  0.0289
 3196SOL    HW112126   4.379   8.934   5.219 -1.3228 -2.0087 -2.0509
 3196SOL    HW212127   4.305   9.047   5.288  2.2846 -0.2338 -0.9440
 3197SOL     OW12128   3.349   8.786   9.762 -0.1246  0.2632  0.1790
 3197SOL    HW112129   3.281   8.723   9.738 -0.3510  0.5727  0.0080
 3197SOL    HW212130   3.395   8.804   9.680  0.4363 -0.2739  0.3758
 3198SOL     OW12131   2.165   9.410   8.789  0.0758 -0.1236 -0.3735
 3198SOL    HW112132   2.118   9.421   8.707  1.0851  0.6641 -0.8556
 3198SOL    HW212133   2.232   9.345   8.770  1.0275  0.8781 -0.4887
 3199SOL     OW12134   0.411   5.808   1.156 -0.3342 -0.1569  0.0644
 3199SOL    HW112135   0.459   5.890   1.167  0.0639 -0.1524 -1.5870
 3199SOL    HW212136   0.349   5.807   1.229  1.9716 -0.0375  2.0944
 3200SOL     OW12137   5.664   8.323   5.006 -0.0917  0.4730  0.4835
 3200SOL    HW112138   5.635   8.325   5.097 -2.6286 -1.4501 -0.2294
 3200SOL    HW212139   5.583   8.321   4.955  1.2887  0.3592 -1.7686
 3201SOL     OW12140   2.232   9.250   8.318 -0.2752  0.1159 -0.0514
 3201SOL    HW112141   2.316   9.233   8.360 -1.0438 -1.0858  1.0150
 3201SOL    HW212142   2.230   9.191   8.243 -0.4443 -0.3045  0.2870
 3202SOL     OW12143   7.972   3.622   4.040  0.0874 -0.1824 -0.0962
 3202SOL    HW112144   7.976   3.664   4.126 -2.6214  0.0192 -0.0208
 3202SOL    HW212145   7.915   3.546   4.054 -0.3936 -0.1230 -1.7376
 3203SOL     OW12146   8.245   1.628   1.220 -0.1175  0.0750  0.2784
 3203SOL    HW112147   8.288   1.692   1.277 -0.1309 -0.8633  1.3482
 3203SOL    HW212148   8.160   1.668   1.200  0.4690  1.0676 -0.2825
 3204SOL     OW12149   8.650   5.890   7.101 -0.2758 -0.1690  0.1542
 3204SOL    HW112150   8.568   5.894   7.052 -0.3252 -0.0915  0.2455
 3204SOL    HW212151   8.625   5.861   7.188  0.2352 -3.8931 -0.8665
 3205SOL     OW12152   0.172   4.330   4.629  0.5494  0.0835 -0.0037
 3205SOL    HW112153   0.115   4.254   4.616 -0.5421  1.0880 -1.1634
 3205SOL    HW212154   0.149   4.362   4.717 -2.3072  1.8039 -1.3037
 3206SOL     OW12155   6.253   3.335   3.297  0.5868  0.1618 -0.7345
 3206SOL    HW112156   6.333   3.284   3.307  0.5698  0.2197 -0.2810
 3206SOL    HW212157   6.278   3.424   3.321  0.3186  0.1249 -0.3191
 3207SOL     OW12158   0.173   1.675   6.041 -0.1749 -0.3733  0.2438
 3207SOL    HW112159   0.177   1.606   6.107 -2.1012  0.7253  1.5720
 3207SOL    HW212160   0.263   1.706   6.032  0.6276 -2.7053 -0.0296
 3208SOL     OW12161   2.374   5.467   7.559 -0.1956  0.2021 -0.2448
 3208SOL    HW112162   2.353   5.437   7.470  1.7645 -0.2153 -0.5828
 3208SOL    HW212163   2.299   5.522   7.584 -0.4208  0.9289 -2.4304
 3209SOL     OW12164   4.013   8.762   4.699  0.3949 -0.3728 -0.4160
 3209SOL    HW112165   3.925   8.785   4.729  1.6216  0.7277  2.5245
 3209SOL    HW212166   4.040   8.836   4.644  0.8934  1.1579  1.7951
 3210SOL     OW12167   7.134   4.697   0.045 -0.0226 -0.1971 -0.6574
 3210SOL    HW112168   7.059   4.756   0.052 -0.9777 -1.3542 -1.0034
 3210SOL    HW212169   7.173   4.716  -0.040  0.2463  0.6020 -0.3565
 3211SOL     OW12170   0.762   9.524   3.376 -0.0439 -0.0334 -0.6409
 3211SOL    HW112171   0.833   9.472   3.338 -1.1734 -1.3728 -0.9726
 3211SOL    HW212172   0.766   9.504   3.470 -0.3842 -0.6209 -0.7479
 3212SOL     OW12173   3.687   9.643   4.685 -0.1939 -0.1269  0.0920
 3212SOL    HW112174   3.611   9.682   4.728 -1.1557 -3.9844  2.1475
 3212SOL    HW212175   3.760   9.699   4.710 -2.0523  2.8195 -0.7233
 3213SOL     OW12176   8.082   0.717   8.616  0.4790 -0.3779 -0.1564
 3213SOL    HW112177   8.083   0.688   8.525  0.6020 -0.9813  0.0298
 3213SOL    HW212178   8.030   0.797   8.616 -0.5978 -1.0748 -0.5502
 3214SOL     OW12179   1.459   0.337   9.163 -0.2028  0.6304 -0.2598
 3214SOL    HW112180   1.448   0.382   9.246 -1.2391  2.5353 -1.3829
 3214SOL    HW212181   1.554   0.322   9.155 -0.1297  0.2280  1.3402
 3215SOL     OW12182   8.560   2.996   7.678  0.5051 -0.4891 -0.5073
 3215SOL    HW112183   8.517   2.938   7.615  1.0331  0.4077 -1.7033
 3215SOL    HW212184   8.619   3.049   7.625 -1.2808  2.4052  0.3281
 3216SOL     OW12185   4.212   0.148   6.825  0.1900  0.5770 -0.3410
 3216SOL    HW112186   4.281   0.208   6.795  0.5513  0.1229 -0.4139
 3216SOL    HW212187   4.131   0.196   6.810  0.5674  1.7255  1.1341
 3217SOL     OW12188   3.900   8.941   5.080 -0.5607 -0.2303  0.2530
 3217SOL    HW112189   3.923   8.995   5.004 -2.7209 -0.2365 -0.4529
 3217SOL    HW212190   3.930   8.992   5.156  0.9384  0.1252 -0.5722
 3218SOL     OW12191   7.148   8.528   2.505 -0.3268  0.3309  0.1472
 3218SOL    HW112192   7.238   8.500   2.493 -0.8492 -0.7095 -1.4662
 3218SOL    HW212193   7.100   8.448   2.529 -0.7188  0.9877  1.6436
 3219SOL     OW12194   7.910   2.699   7.789 -0.1027 -0.0599  0.2987
 3219SOL    HW112195   7.883   2.659   7.871  0.9547  1.2107  1.2865
 3219SOL    HW212196   7.848   2.771   7.776  0.2516  0.2706  0.4283
 3220SOL     OW12197  10.094   4.459   7.799  0.6177  0.3875  0.6379
 3220SOL    HW112198  10.171   4.411   7.767  0.5209  0.8845 -0.3659
 3220SOL    HW212199  10.080   4.527   7.733  0.0901  1.1053  1.4920
 3221SOL     OW12200   2.311   4.080   2.318  0.0402 -0.6023  0.4067
 3221SOL    HW112201   2.285   4.068   2.410 -0.9920 -0.5817  0.1275
 3221SOL    HW212202   2.285   4.169   2.297  0.9157 -0.3743  0.2960
 3222SOL     OW12203   3.705   9.711   2.155  0.3719 -0.4279 -0.1942
 3222SOL    HW112204   3.670   9.787   2.203  3.4406  0.3706  0.9189
 3222SOL    HW212205   3.730   9.746   2.070 -0.4948 -0.7559 -0.5879
 3223SOL     OW12206   0.450   1.992   3.569 -0.0478  0.1204 -0.4134
 3223SOL    HW112207   0.459   1.957   3.481  2.5300  0.0135 -0.1556
 3223SOL    HW212208   0.473   2.085   3.561 -1.2995  0.4641 -0.1140
 3224SOL     OW12209   1.790   8.687  10.198  0.0593 -0.4217 -0.2579
 3224SOL    HW112210   1.870   8.735  10.223  0.3175 -1.8349  1.7324
 3224SOL    HW212211   1.817   8.635  10.123  1.0120 -0.8328  0.3521
 3225SOL     OW12212   3.911   8.896   7.087 -0.1901 -0.1748  0.7581
 3225SOL    HW112213   3.959   8.818   7.116 -2.8070 -2.2551 -0.2732
 3225SOL    HW212214   3.846   8.910   7.156  0.2381  1.1348  0.9147
 3226SOL     OW12215   8.713   7.659   9.011 -0.7319  0.1019  0.5588
 3226SOL    HW112216   8.785   7.695   8.960 -0.3207 -1.7454 -0.1977
 3226SOL    HW212217   8.729   7.689   9.101  0.8542 -0.1548  0.3624
 3227SOL     OW12218   2.246   8.296   4.549 -0.5231  0.2187  0.3382
 3227SOL    HW112219   2.270   8.374   4.599  1.0778 -0.6724  0.9831
 3227SOL    HW212220   2.311   8.291   4.480  0.3680 -1.4615  1.2776
 3228SOL     OW12221   2.156   7.626  10.181  1.0189 -0.5241  0.0541
 3228SOL    HW112222   2.096   7.597  10.250  0.7694  0.7894  0.4178
 3228SOL    HW212223   2.105   7.620  10.100 -0.2330  2.2677  0.5795
 3229SOL     OW12224   0.597   2.346   8.889  0.1945 -0.0210 -0.1767
 3229SOL    HW112225   0.611   2.258   8.856 -0.8198  0.0121 -0.7172
 3229SOL    HW212226   0.656   2.401   8.838  1.6361 -0.5259  0.9176
 3230SOL     OW12227   3.628   8.799   3.411 -0.0998 -0.4687 -0.2581
 3230SOL    HW112228   3.686   8.832   3.480  0.5463 -1.4819 -0.3157
 3230SOL    HW212229   3.604   8.878   3.361 -0.1867  0.1961  0.8282
 3231SOL     OW12230  10.120   8.905   1.165  0.1571 -0.0080 -0.0391
 3231SOL    HW112231  10.109   8.991   1.125  0.2094  0.4083  0.8238
 3231SOL    HW212232  10.211   8.881   1.146 -0.0708 -0.2086 -0.9162
 3232SOL     OW12233   2.350   6.643   5.302  0.2536  0.0603  0.1737
 3232SOL    HW112234   2.399   6.636   5.220  0.2838  4.3541 -0.3250
 3232SOL    HW212235   2.416   6.635   5.371  0.4875 -1.8432 -0.2650
 3233SOL     OW12236  10.085   6.865   1.856 -0.6242 -0.5497  0.1881
 3233SOL    HW112237  10.143   6.911   1.796 -0.0597 -4.1414 -2.2096
 3233SOL    HW212238  10.143   6.829   1.923 -0.7508  0.2116  0.7055
 3234SOL     OW12239   5.335   1.027   1.447 -0.0227 -0.0449  0.0117
 3234SOL    HW112240   5.311   0.978   1.368  0.3929 -2.0242  1.0771
 3234SOL    HW212241   5.251   1.047   1.489 -0.1645 -0.5562 -0.0194
 3235SOL     OW12242   5.256  10.038   2.879  0.1797  0.3397  0.2583
 3235SOL    HW112243   5.229   9.947   2.864  0.2193  0.3390  0.1852
 3235SOL    HW212244   5.341  10.045   2.834  0.4422  0.2534  0.7362
 3236SOL     OW12245   2.899   6.896   9.112 -0.2006  0.3681  0.3654
 3236SOL    HW112246   2.991   6.879   9.091 -0.6652  0.4237 -1.8278
 3236SOL    HW212247   2.892   6.992   9.113 -0.0506  0.3760  1.4524
 3237SOL     OW12248   5.277   4.469   3.575 -0.0168  0.1939  0.1675
 3237SOL    HW112249   5.363   4.475   3.534  0.1561 -0.9757  0.3359
 3237SOL    HW212250   5.292   4.496   3.666 -0.0309  0.9892 -0.0671
 3238SOL     OW12251   6.915   6.353   7.312 -0.3289 -0.2236  0.1435
 3238SOL    HW112252   6.855   6.369   7.385 -1.8458  0.5216 -1.2354
 3238SOL    HW212253   6.976   6.427   7.315 -1.5031  0.7863 -0.4401
 3239SOL     OW12254   9.610   3.848   2.141 -0.3413  0.1331 -0.4815
 3239SOL    HW112255   9.623   3.753   2.135 -1.6888  0.0178 -2.3566
 3239SOL    HW212256   9.601   3.866   2.234  0.2677 -1.5335 -0.0868
 3240SOL     OW12257   4.632   4.683   5.757  0.8720  0.5056 -0.3682
 3240SOL    HW112258   4.712   4.718   5.716  1.1907  1.5967  1.1299
 3240SOL    HW212259   4.662   4.607   5.806  1.1440  1.3573  0.8104
 3241SOL     OW12260   3.417   0.776   9.177 -0.2762  0.0736 -0.0530
 3241SOL    HW112261   3.355   0.707   9.153 -1.3178  0.6643  0.8700
 3241SOL    HW212262   3.375   0.822   9.250  0.6752  1.2970 -0.2472
 3242SOL     OW12263   8.481   1.122   8.509  0.7578 -0.2100  0.1069
 3242SOL    HW112264   8.540   1.170   8.452  0.4688 -0.0459 -0.0523
 3242SOL    HW212265   8.460   1.184   8.579 -2.0103  0.9446 -1.6837
 3243SOL     OW12266   8.023   2.102   7.809 -0.3827 -0.4445  0.0523
 3243SOL    HW112267   7.967   2.132   7.881 -2.2257  0.1179 -1.5578
 3243SOL    HW212268   8.056   2.183   7.769  1.6509 -0.7684  0.9921
 3244SOL     OW12269   9.847   3.163   9.738 -0.3075  0.4097  0.1678
 3244SOL    HW112270   9.776   3.102   9.719 -1.2067  1.7277 -0.8444
 3244SOL    HW212271   9.905   3.115   9.796 -1.0800 -1.3436 -0.4640
 3245SOL     OW12272   7.895   2.485   0.144  0.2928 -0.2686 -0.6697
 3245SOL    HW112273   7.868   2.407   0.193 -0.1766 -0.6119 -1.4781
 3245SOL    HW212274   7.991   2.487   0.154  0.2210 -0.4192  0.1253
 3246SOL     OW12275   8.323   0.163   4.754 -0.5361  0.1977 -0.7877
 3246SOL    HW112276   8.325   0.258   4.768  1.8903  0.0968 -0.2968
 3246SOL    HW212277   8.413   0.140   4.732 -1.0287 -2.0618 -0.5324
 3247SOL     OW12278   1.634   9.370   9.705 -0.1961  0.1665 -0.0359
 3247SOL    HW112279   1.711   9.419   9.735 -1.0215  1.4964 -0.0593
 3247SOL    HW212280   1.569   9.437   9.684 -1.3768 -0.9432 -0.0084
 3248SOL     OW12281   6.280   5.687  10.111 -0.2629 -0.7360  0.4333
 3248SOL    HW112282   6.342   5.617  10.088  0.4020 -0.2613  0.7680
 3248SOL    HW212283   6.329   5.768  10.097 -0.4217 -0.3865  1.8208
 3249SOL     OW12284   8.565   0.327   3.952 -0.1702 -0.0561 -0.2623
 3249SOL    HW112285   8.588   0.240   3.919  0.7676 -0.4040  1.2799
 3249SOL    HW212286   8.634   0.384   3.918  1.8365 -0.7205  2.4930
 3250SOL     OW12287   5.882   6.716   0.382  0.0665  0.1908  0.1238
 3250SOL    HW112288   5.814   6.693   0.318  0.9380  0.7619 -1.0376
 3250SOL    HW212289   5.964   6.694   0.338  0.7424  1.9033  0.4874
 3251SOL     OW12290   3.990   1.777   0.240  0.8449 -0.3396 -1.3437
 3251SOL    HW112291   4.002   1.686   0.267  1.8827  0.1628 -0.0455
 3251SOL    HW212292   4.072   1.800   0.195  1.8934  0.8794  1.0888
 3252SOL     OW12293   1.429   9.010   4.404  0.5064  0.1023  0.2209
 3252SOL    HW112294   1.455   9.095   4.368  0.8178 -0.8101 -1.8365
 3252SOL    HW212295   1.511   8.969   4.430  0.4106  0.1938  0.6727
 3253SOL     OW12296   5.484   1.930   8.498 -1.0660 -0.3260 -0.3011
 3253SOL    HW112297   5.568   1.976   8.501 -0.6466 -1.1409  1.0549
 3253SOL    HW212298   5.424   1.993   8.458  0.2312  0.1795 -1.4918
 3254SOL     OW12299   6.435   5.350   0.039 -0.0124  0.2284  0.8045
 3254SOL    HW112300   6.439   5.398   0.122 -0.1126 -0.7052  1.3517
 3254SOL    HW212301   6.520   5.305   0.033  0.2962  0.8898  0.0320
 3255SOL     OW12302   9.135   6.509   4.514 -0.5237  0.2728 -0.3275
 3255SOL    HW112303   9.105   6.577   4.454  0.1220  1.1208  0.3048
 3255SOL    HW212304   9.132   6.429   4.462 -1.4237  0.7525 -1.0378
 3256SOL     OW12305   1.724   1.933  10.104 -0.5586 -0.2806  0.2043
 3256SOL    HW112306   1.637   1.968  10.123 -0.1648 -0.5581  2.7758
 3256SOL    HW212307   1.711   1.871  10.033 -2.1336  1.1306 -0.7674
 3257SOL     OW12308   3.644   8.015   9.051 -0.0011 -0.1508 -0.3167
 3257SOL    HW112309   3.611   8.073   8.983  0.4604 -1.3934 -1.6356
 3257SOL    HW212310   3.574   7.951   9.065  1.1658 -1.8632 -2.0060
 3258SOL     OW12311   9.365  10.172   7.343 -0.1015 -0.2703  0.0349
 3258SOL    HW112312   9.394  10.120   7.418  0.5099  2.6366  1.8907
 3258SOL    HW212313   9.443  10.180   7.288 -0.4149 -1.9573 -0.6956
 3259SOL     OW12314   4.460   0.681   0.094 -0.1573  0.1926 -0.3299
 3259SOL    HW112315   4.522   0.608   0.098 -1.6247 -1.0247  0.7635
 3259SOL    HW212316   4.514   0.759   0.108  1.4622 -0.6379 -1.6748
 3260SOL     OW12317   2.956   8.141   9.140 -0.2670  0.6145  0.0990
 3260SOL    HW112318   2.995   8.064   9.098  1.7914  1.3993  0.5516
 3260SOL    HW212319   2.930   8.111   9.227  3.3850  1.1530  1.4668
 3261SOL     OW12320   5.329   8.315   8.106 -0.1374  0.2701 -0.0699
 3261SOL    HW112321   5.278   8.235   8.099  0.2237 -0.0422  0.8995
 3261SOL    HW212322   5.400   8.294   8.166 -0.1044  1.3456  0.2809
 3262SOL     OW12323   3.199   5.521   3.507  0.2531  0.1354 -0.6202
 3262SOL    HW112324   3.171   5.491   3.420 -2.9748 -1.7157  0.9428
 3262SOL    HW212325   3.203   5.616   3.499 -2.5173  0.1984 -2.1689
 3263SOL     OW12326   9.679   7.515   8.803  0.8588  0.2201 -0.1603
 3263SOL    HW112327   9.674   7.534   8.709 -1.6182 -0.6026 -0.2294
 3263SOL    HW212328   9.711   7.425   8.808  0.8369  0.2094 -0.2168
 3264SOL     OW12329   8.449   4.297   7.189  0.3546  0.3987  0.3671
 3264SOL    HW112330   8.526   4.332   7.233 -1.0543  1.7632  1.8377
 3264SOL    HW212331   8.397   4.258   7.259 -0.6856  0.2338 -0.4771
 3265SOL     OW12332   8.945   1.953   9.090  0.8545 -0.0441  0.2590
 3265SOL    HW112333   8.917   1.887   9.027  2.3487  1.4714 -2.1274
 3265SOL    HW212334   8.891   1.938   9.167 -1.5177 -1.5743 -1.6208
 3266SOL     OW12335   8.514   6.356   3.688  0.2222  0.1146  0.2314
 3266SOL    HW112336   8.548   6.279   3.733 -2.0401 -0.2319  1.4140
 3266SOL    HW212337   8.502   6.329   3.597  0.7998 -0.4634  0.3258
 3267SOL     OW12338   8.656   7.131   0.329  0.2202  0.3445  0.3511
 3267SOL    HW112339   8.732   7.183   0.354 -1.2667  2.3283  0.8559
 3267SOL    HW212340   8.623   7.095   0.412 -0.2566  0.7021  0.3197
 3268SOL     OW12341   1.336   9.416   7.729  0.6307 -0.1026 -0.4400
 3268SOL    HW112342   1.396   9.466   7.785  1.1661 -1.0762 -0.1179
 3268SOL    HW212343   1.327   9.468   7.650  1.7870  0.1336 -0.4205
 3269SOL     OW12344   7.759   3.749   2.376  0.1488  0.6724  0.0438
 3269SOL    HW112345   7.753   3.654   2.364  2.0085  0.2425  2.0419
 3269SOL    HW212346   7.721   3.786   2.297 -3.0163 -1.7004  0.3492
 3270SOL     OW12347   0.169   2.853   7.409 -0.0736 -0.5076  0.4950
 3270SOL    HW112348   0.263   2.839   7.395 -0.1510 -0.4553 -0.1088
 3270SOL    HW212349   0.127   2.797   7.344 -0.4773 -1.1065  1.2766
 3271SOL     OW12350   1.923   0.624   2.199 -0.2629 -0.0518 -0.6038
 3271SOL    HW112351   1.835   0.636   2.233 -1.2996  0.9294 -3.4404
 3271SOL    HW212352   1.975   0.693   2.240 -1.5657  1.3528 -1.2739
 3272SOL     OW12353   7.321   8.054   6.769 -0.1664 -0.0786  0.2603
 3272SOL    HW112354   7.286   7.965   6.779 -0.3690 -0.1147 -0.7677
 3272SOL    HW212355   7.398   8.044   6.714 -0.6616  0.4909 -0.5370
 3273SOL     OW12356   6.292   7.882   5.126  0.6625  0.9135 -0.4138
 3273SOL    HW112357   6.332   7.799   5.100  0.7422  0.1209  2.1474
 3273SOL    HW212358   6.366   7.937   5.151  0.8142  2.6190 -4.2466
 3274SOL     OW12359   3.593   9.598   7.079  0.3030 -0.2414  0.0623
 3274SOL    HW112360   3.602   9.659   7.005  0.3018 -1.8568 -1.3089
 3274SOL    HW212361   3.672   9.611   7.131  0.4478  0.7080 -0.3919
 3275SOL     OW12362   1.377   2.245   5.040  0.1878  0.4904 -0.0935
 3275SOL    HW112363   1.356   2.163   5.084 -2.3186  1.4698  0.6243
 3275SOL    HW212364   1.303   2.260   4.981  1.0474  1.7819 -0.8560
 3276SOL     OW12365   0.620   4.192   2.011 -0.0650  0.2529 -0.2235
 3276SOL    HW112366   0.562   4.151   1.947 -0.2231  0.6187 -0.3142
 3276SOL    HW212367   0.680   4.246   1.959 -0.0974  0.4323 -0.0746
 3277SOL     OW12368   6.970   2.240   6.921 -0.0572  0.1185  0.4047
 3277SOL    HW112369   7.052   2.236   6.872 -0.9370 -1.0364 -1.0386
 3277SOL    HW212370   6.970   2.161   6.975 -0.5271 -0.2275 -0.1018
 3278SOL     OW12371   3.248   6.088   8.472  0.2709  0.1388  0.0085
 3278SOL    HW112372   3.246   6.139   8.553  0.4003 -3.0561  2.1310
 3278SOL    HW212373   3.342   6.079   8.452  0.2260  1.2218 -0.7010
 3279SOL     OW12374   4.511   7.304   3.235 -0.6207 -0.2000  0.0478
 3279SOL    HW112375   4.457   7.383   3.230  1.0825  0.9381 -1.2870
 3279SOL    HW212376   4.574   7.322   3.305  1.6608  0.9311 -2.1862
 3280SOL     OW12377   9.971   1.858   4.619 -0.2124 -0.0316 -0.2008
 3280SOL    HW112378   9.927   1.900   4.693 -1.4494  1.1008 -1.5443
 3280SOL    HW212379  10.053   1.824   4.655 -0.6616  0.7785  1.6053
 3281SOL     OW12380   5.138   5.729   6.285  0.3349  0.2672 -0.1659
 3281SOL    HW112381   5.169   5.679   6.360  0.6658  0.1413 -0.3861
 3281SOL    HW212382   5.099   5.808   6.323 -0.5483 -0.3388  0.2112
 3282SOL     OW12383   8.769   3.688   5.692 -0.2123  1.0229  0.7506
 3282SOL    HW112384   8.713   3.727   5.625 -0.6919 -2.1188 -0.7292
 3282SOL    HW212385   8.733   3.720   5.775 -2.9402  0.7086 -0.2670
 3283SOL     OW12386   1.946   3.104   6.056  0.2620 -0.1404  0.1818
 3283SOL    HW112387   1.997   3.181   6.033  0.5573 -0.5260 -0.4871
 3283SOL    HW212388   1.953   3.097   6.151  0.8310  0.2401  0.1663
 3284SOL     OW12389   8.881   5.039   6.306 -0.2402 -0.1174 -0.2497
 3284SOL    HW112390   8.910   5.018   6.394 -0.0506  2.9108  0.4716
 3284SOL    HW212391   8.957   5.080   6.265 -1.1876  1.1211 -0.8220
 3285SOL     OW12392   7.680   4.071   5.168  0.2175  0.3366 -0.6310
 3285SOL    HW112393   7.768   4.103   5.187  0.0795  1.1131 -1.2546
 3285SOL    HW212394   7.675   4.070   5.073 -0.8934  1.5835 -0.6084
 3286SOL     OW12395   7.339   5.098   2.740  0.2399  0.5443  0.3454
 3286SOL    HW112396   7.252   5.079   2.707  1.1695  0.3279 -2.0367
 3286SOL    HW212397   7.357   5.027   2.802 -1.8230  1.3992  1.9908
 3287SOL     OW12398   8.931   5.437   4.792  0.2927 -0.2022  0.2463
 3287SOL    HW112399   8.913   5.416   4.883 -0.4526 -1.6902 -0.2324
 3287SOL    HW212400   8.851   5.481   4.761  0.4424  0.0635  0.2290
 3288SOL     OW12401   7.046   9.059   8.092 -0.0921 -0.1061 -0.4169
 3288SOL    HW112402   6.972   8.998   8.095  0.9348 -1.3770 -0.3228
 3288SOL    HW212403   7.021   9.131   8.150 -1.9535  0.2914 -1.6651
 3289SOL     OW12404   2.768   2.677   4.334  0.5512  0.0560  0.4845
 3289SOL    HW112405   2.825   2.751   4.356  0.9588 -0.5156  1.3903
 3289SOL    HW212406   2.738   2.696   4.246  0.6008  1.3398  0.7278
 3290SOL     OW12407   4.515   9.552   9.448 -0.1737  0.9304 -0.0141
 3290SOL    HW112408   4.450   9.613   9.482 -1.3351 -0.3304  0.0747
 3290SOL    HW212409   4.473   9.466   9.454  1.0222  0.2433 -1.1344
 3291SOL     OW12410   4.845   6.835   3.332  0.2543 -0.6606 -0.1954
 3291SOL    HW112411   4.818   6.919   3.369 -0.8638 -0.2168 -1.9413
 3291SOL    HW212412   4.808   6.770   3.391  2.4375  0.0370  2.0580
 3292SOL     OW12413   0.549   3.432   5.399 -0.7352 -0.0156  0.0099
 3292SOL    HW112414   0.499   3.493   5.453 -0.3764  3.1496 -2.9746
 3292SOL    HW212415   0.497   3.424   5.319  1.1215 -0.5822 -1.1573
 3293SOL     OW12416   7.158   0.854   8.552 -0.3148 -0.3230  0.7123
 3293SOL    HW112417   7.138   0.849   8.458 -0.0506 -1.5405  0.7222
 3293SOL    HW212418   7.151   0.764   8.583  0.7048 -0.0922  1.6358
 3294SOL     OW12419   3.948   9.887   6.318  0.5979 -0.5929  0.6155
 3294SOL    HW112420   3.913   9.858   6.402  0.3790 -1.6045  0.1755
 3294SOL    HW212421   3.970   9.806   6.272  0.0567 -0.0653 -0.5832
 3295SOL     OW12422   4.241   1.494   1.644  0.0889 -0.5839  0.8208
 3295SOL    HW112423   4.197   1.568   1.686  1.5311  0.6769  0.1562
 3295SOL    HW212424   4.298   1.459   1.713  0.1695 -0.4411  0.8270
 3296SOL     OW12425   4.351   0.255   3.453 -0.6446 -0.0134 -0.0795
 3296SOL    HW112426   4.339   0.169   3.414 -0.7564 -0.4006  0.8112
 3296SOL    HW212427   4.272   0.304   3.429 -0.9559 -0.4211  0.1112
 3297SOL     OW12428   9.853   3.463   4.252 -0.5297 -0.0652 -0.6759
 3297SOL    HW112429   9.873   3.530   4.316 -1.9947 -0.0167 -0.2553
 3297SOL    HW212430   9.928   3.463   4.193 -0.2315  1.4972 -0.3129
 3298SOL     OW12431   5.138   5.344   0.882  0.2720  0.2562  0.2483
 3298SOL    HW112432   5.194   5.267   0.892  0.8477  0.4822 -1.0809
 3298SOL    HW212433   5.051   5.308   0.868  0.6092 -0.1813 -0.7909
 3299SOL     OW12434   7.031   6.772   9.418 -0.2301 -0.5465 -0.1353
 3299SOL    HW112435   7.119   6.782   9.380 -0.1536 -2.2073 -0.4139
 3299SOL    HW212436   6.984   6.717   9.356 -0.9976 -0.9426  0.7947
 3300SOL     OW12437   1.264   3.903   0.612 -0.2457  0.4034 -0.4643
 3300SOL    HW112438   1.356   3.895   0.640 -1.1583  0.5075  2.6943
 3300SOL    HW212439   1.223   3.822   0.642 -1.6009  1.1627 -0.2461
 3301SOL     OW12440   9.626   3.742   3.462  0.6111  0.5592 -0.1878
 3301SOL    HW112441   9.609   3.740   3.368  0.9243 -0.5172 -0.2290
 3301SOL    HW212442   9.574   3.816   3.494 -1.5306 -0.6156 -0.8107
 3302SOL     OW12443   3.152   2.614   9.837 -0.8757  0.3075 -0.5028
 3302SOL    HW112444   3.169   2.526   9.871 -0.2599  0.2609 -0.9086
 3302SOL    HW212445   3.204   2.619   9.757  1.8621  2.2518  1.3123
 3303SOL     OW12446   3.975   6.481   3.082 -0.1957 -0.0796  0.0434
 3303SOL    HW112447   3.943   6.567   3.055 -0.1692 -0.7020 -2.0709
 3303SOL    HW212448   4.021   6.496   3.164  0.5128  2.0605 -0.7344
 3304SOL     OW12449   6.222  10.188   2.424  0.1934 -0.1006  0.3560
 3304SOL    HW112450   6.153  10.242   2.463  2.9669  2.8699  1.4164
 3304SOL    HW212451   6.214  10.206   2.330 -1.9773 -1.6869  0.2081
 3305SOL     OW12452   1.241   7.805   5.169 -0.6364  0.0445 -0.1641
 3305SOL    HW112453   1.238   7.716   5.204  1.1724  0.9825  2.6235
 3305SOL    HW212454   1.195   7.858   5.234  2.5064  1.8037  0.7630
 3306SOL     OW12455   0.409   4.321   7.878  0.2114  0.0940  0.4876
 3306SOL    HW112456   0.385   4.405   7.919  0.7375  1.9692 -2.8826
 3306SOL    HW212457   0.504   4.327   7.867  0.0192 -0.1716 -1.3813
 3307SOL     OW12458   0.470   4.311   4.997  0.7301  0.0371  0.0522
 3307SOL    HW112459   0.511   4.288   4.914 -0.0549 -0.5798 -0.1706
 3307SOL    HW212460   0.417   4.388   4.978 -2.2941 -2.1811 -0.8904
 3308SOL     OW12461   1.495   0.373   6.071 -0.4545 -0.0022 -0.3006
 3308SOL    HW112462   1.446   0.294   6.094  0.1583 -0.7330 -1.4624
 3308SOL    HW212463   1.569   0.373   6.131  0.2317 -0.9980 -1.1401
 3309SOL     OW12464   0.623   3.695   3.089 -0.0286 -0.0131  0.0185
 3309SOL    HW112465   0.656   3.747   3.161 -0.4616 -0.8570  0.8372
 3309SOL    HW212466   0.561   3.753   3.043 -0.9300  0.0122  1.2487
 3310SOL     OW12467   6.251   7.136   7.160  0.5221 -0.4414 -0.5269
 3310SOL    HW112468   6.204   7.201   7.211  1.8376 -0.8878  1.3002
 3310SOL    HW212469   6.268   7.180   7.076  0.7065  1.2878  0.3903
 3311SOL     OW12470   4.701   6.216   9.556 -0.2216  0.1376  0.0732
 3311SOL    HW112471   4.735   6.278   9.492 -0.3550  0.6034  0.4515
 3311SOL    HW212472   4.730   6.130   9.524 -1.1853  0.2712 -1.1641
 3312SOL     OW12473   9.686   9.201   7.620 -0.1025  0.1981 -0.4761
 3312SOL    HW112474   9.611   9.143   7.633 -1.6359  1.7023 -2.3131
 3312SOL    HW212475   9.698   9.204   7.525  1.1608  1.3823 -0.2956
 3313SOL     OW12476   4.487   5.001   0.382 -0.1193  0.0807 -0.7821
 3313SOL    HW112477   4.562   5.000   0.441 -0.1815  0.8727 -0.6785
 3313SOL    HW212478   4.495   4.921   0.330  0.2176 -0.3567 -0.0548
 3314SOL     OW12479   9.659   7.884   9.929  0.0302 -0.0049 -0.2862
 3314SOL    HW112480   9.711   7.820   9.881 -0.5550 -0.4024 -0.3946
 3314SOL    HW212481   9.706   7.967   9.916  0.7617 -0.3968 -0.1784
 3315SOL     OW12482   4.878   1.349   4.707 -0.1186  0.4843 -0.6142
 3315SOL    HW112483   4.849   1.295   4.634  0.5076  0.2022 -0.6622
 3315SOL    HW212484   4.938   1.413   4.668  3.1163 -1.9362  0.1124
 3316SOL     OW12485   3.527   9.367   7.211  0.1774  0.3811 -0.0224
 3316SOL    HW112486   3.538   9.424   7.135 -0.0741 -0.2080 -0.5028
 3316SOL    HW212487   3.433   9.348   7.214  0.3454 -0.5303 -0.2515
 3317SOL     OW12488   0.273   8.872   7.241 -0.1431 -0.2268  0.2258
 3317SOL    HW112489   0.284   8.877   7.336  0.0992  0.2338  0.1719
 3317SOL    HW212490   0.361   8.882   7.205 -0.3003  0.1246 -0.0670
 3318SOL     OW12491   3.592   2.349   5.343  0.8570  0.5083 -0.4196
 3318SOL    HW112492   3.669   2.344   5.285  3.1240  1.9327  2.3622
 3318SOL    HW212493   3.568   2.258   5.358  2.2063  0.0190 -1.0778
 3319SOL     OW12494   2.106   8.008   4.191  0.4212 -0.0643  0.2622
 3319SOL    HW112495   2.088   7.935   4.133 -1.3517 -0.0769  0.7805
 3319SOL    HW212496   2.070   8.084   4.145  1.4506  0.3401  0.1267
 3320SOL     OW12497   7.671   5.476   7.953  0.2398 -0.9597 -0.2050
 3320SOL    HW112498   7.734   5.530   7.905  0.1187 -0.8340 -0.2236
 3320SOL    HW212499   7.662   5.398   7.899  0.8927 -1.2772  0.1413
 3321SOL     OW12500   2.495   8.943  10.040  0.3356  0.5772  0.2546
 3321SOL    HW112501   2.563   8.929   9.974 -0.5626  0.7663 -0.7176
 3321SOL    HW212502   2.495   9.038  10.055  0.4684  0.5463  0.4531
 3322SOL     OW12503   1.365   2.102   4.250 -0.5404 -0.2896 -0.2195
 3322SOL    HW112504   1.309   2.107   4.172 -1.5987  0.9198  0.5927
 3322SOL    HW212505   1.307   2.068   4.319 -0.1092  0.3613  0.4729
 3323SOL     OW12506   9.287   5.716   8.828 -0.6302  0.0478 -0.2924
 3323SOL    HW112507   9.269   5.733   8.920 -1.1268 -0.3333 -0.3169
 3323SOL    HW212508   9.382   5.712   8.822 -0.6428 -2.9090  0.7517
 3324SOL     OW12509   2.202   3.790   5.482 -0.2156  0.1188  0.1240
 3324SOL    HW112510   2.190   3.859   5.546 -3.6212 -1.0088  0.7957
 3324SOL    HW212511   2.121   3.790   5.431  0.1322 -2.6619 -0.5298
 3325SOL     OW12512   7.612   9.357   4.718  0.4413  0.3526 -0.6612
 3325SOL    HW112513   7.534   9.326   4.764 -1.3730  2.5005 -2.2070
 3325SOL    HW212514   7.682   9.350   4.783 -1.0819 -1.2291  0.8796
 3326SOL     OW12515   2.493   9.967   4.004  0.3377  0.5862  0.2022
 3326SOL    HW112516   2.584   9.960   4.034  0.2337 -0.0914  0.3761
 3326SOL    HW212517   2.462  10.050   4.039  0.8465  0.7449  0.2713
 3327SOL     OW12518   6.179   9.292   7.083  0.1783 -0.2625 -0.5202
 3327SOL    HW112519   6.242   9.341   7.030  1.9842 -2.6494 -0.6257
 3327SOL    HW212520   6.229   9.261   7.158 -1.0227 -1.6911 -0.2922
 3328SOL     OW12521   8.056   5.398   0.765 -0.1593  0.1359 -0.1314
 3328SOL    HW112522   8.109   5.448   0.827 -0.1191  0.6245 -0.5609
 3328SOL    HW212523   8.116   5.378   0.693  0.0219 -1.1402  0.3578
 3329SOL     OW12524   1.296   2.410   8.509 -0.1743 -0.7176  0.5026
 3329SOL    HW112525   1.308   2.493   8.464 -0.8160  0.1469  1.9124
 3329SOL    HW212526   1.228   2.365   8.459 -1.2930  0.4786  0.9549
 3330SOL     OW12527   6.980   7.722   8.290 -0.6878 -0.3387  0.7247
 3330SOL    HW112528   6.889   7.745   8.268 -0.2090 -0.4695 -1.4756
 3330SOL    HW212529   7.032   7.757   8.218  1.0296 -0.2803  1.9653
 3331SOL     OW12530   2.425   4.977   1.320 -0.1082 -0.4605  0.0083
 3331SOL    HW112531   2.426   4.896   1.370  0.8708 -1.3591 -1.4185
 3331SOL    HW212532   2.419   5.046   1.386 -1.2407 -1.6894  1.2281
 3332SOL     OW12533   2.602   6.284   2.937  0.0867  0.7004  0.2982
 3332SOL    HW112534   2.559   6.212   2.983 -1.6426  0.2584 -1.9226
 3332SOL    HW212535   2.679   6.245   2.896 -1.3882 -0.1559 -1.7328
 3333SOL     OW12536   6.402   0.466   7.568 -0.3507  0.2633  0.5109
 3333SOL    HW112537   6.444   0.507   7.644  1.7333 -0.5458 -0.1479
 3333SOL    HW212538   6.358   0.389   7.604 -0.5863  0.6813  1.1168
 3334SOL     OW12539   8.959   0.120   9.479 -0.1381  0.0172  0.6139
 3334SOL    HW112540   8.950   0.163   9.564  0.0824  1.4607 -0.0851
 3334SOL    HW212541   8.869   0.105   9.451 -0.2397  1.3141  0.2212
 3335SOL     OW12542   6.822   4.105   2.965  0.0624  0.1998  0.4641
 3335SOL    HW112543   6.825   4.146   3.051 -0.9470  1.5974 -0.1470
 3335SOL    HW212544   6.833   4.011   2.983  1.3902  0.6225  1.9644
 3336SOL     OW12545   5.857   5.058   2.329 -0.1632  0.4038 -0.3865
 3336SOL    HW112546   5.882   5.103   2.410 -0.1158  0.3402 -0.3656
 3336SOL    HW212547   5.937   5.059   2.276 -0.3624  0.9772 -0.6758
 3337SOL     OW12548   3.577   2.807   6.543 -0.1268 -0.3264  0.2191
 3337SOL    HW112549   3.656   2.774   6.586 -0.8547 -0.1655  1.7502
 3337SOL    HW212550   3.594   2.799   6.450  1.1253 -1.6576  0.5503
 3338SOL     OW12551   7.987   3.715   0.266 -0.3039 -0.5674  0.0430
 3338SOL    HW112552   8.003   3.643   0.204 -2.3429 -0.4550 -0.6518
 3338SOL    HW212553   7.974   3.671   0.350  1.8365 -0.7657  0.2968
 3339SOL     OW12554   3.442   9.645   6.435  0.2003 -0.1571 -0.4876
 3339SOL    HW112555   3.358   9.624   6.393 -1.2327  4.9044 -0.4946
 3339SOL    HW212556   3.441   9.596   6.517 -1.6094 -2.1752 -1.6910
 3340SOL     OW12557   1.816   4.465   1.959 -0.0276  0.7819  0.1345
 3340SOL    HW112558   1.898   4.512   1.968  0.1491  0.1085  2.4236
 3340SOL    HW212559   1.811   4.441   1.866  2.1290  1.2046 -0.0992
 3341SOL     OW12560   2.470   8.879   5.022  0.2821  0.7824 -0.2020
 3341SOL    HW112561   2.498   8.942   4.955  0.2013  3.2921  2.0256
 3341SOL    HW212562   2.519   8.905   5.100  0.7120 -2.3686  0.6414
 3342SOL     OW12563   7.810   0.378   7.132 -0.0112 -0.0052 -0.0633
 3342SOL    HW112564   7.826   0.354   7.040  0.8893 -2.0137  0.5982
 3342SOL    HW212565   7.882   0.436   7.154  0.5778 -0.6773 -0.2023
 3343SOL     OW12566   7.339   6.254   1.399  0.2380  0.1550  0.7026
 3343SOL    HW112567   7.403   6.317   1.368  0.8493 -1.2155 -0.9257
 3343SOL    HW212568   7.374   6.221   1.482  1.3473 -0.1461  0.1154
 3344SOL     OW12569   8.452   4.372   0.278 -0.0578 -0.0861 -0.1524
 3344SOL    HW112570   8.432   4.352   0.187 -0.6885 -2.4024  0.4668
 3344SOL    HW212571   8.543   4.344   0.290  0.0853  0.3847 -0.1053
 3345SOL     OW12572   5.412   9.819   5.426 -0.1610  0.1189  0.0405
 3345SOL    HW112573   5.329   9.865   5.412 -0.5532  0.3136  2.7651
 3345SOL    HW212574   5.401   9.737   5.378 -1.4865  0.6327 -0.5794
 3346SOL     OW12575   1.445   7.685   3.567 -0.2530 -0.6472  0.0576
 3346SOL    HW112576   1.424   7.600   3.605 -0.8370 -0.7219 -0.4267
 3346SOL    HW212577   1.391   7.747   3.615  0.9130 -0.4209  1.0912
 3347SOL     OW12578   2.037   2.776   4.449 -0.2754  0.9664 -0.1010
 3347SOL    HW112579   2.096   2.716   4.495  0.1209  1.6217  0.2549
 3347SOL    HW212580   2.050   2.860   4.492 -0.8001  1.3198 -0.6219
 3348SOL     OW12581   3.680   5.818   3.274 -0.9397  0.0971 -0.2084
 3348SOL    HW112582   3.749   5.867   3.230 -0.9610 -0.4947 -0.9371
 3348SOL    HW212583   3.649   5.875   3.344  0.8373  0.0345  0.6370
 3349SOL     OW12584   9.256   8.688   2.943 -0.5667 -0.1457  0.3428
 3349SOL    HW112585   9.322   8.671   3.010 -0.1281  0.3003  0.0214
 3349SOL    HW212586   9.252   8.607   2.891 -1.0664 -0.5760  1.0353
 3350SOL     OW12587   1.560   2.203   9.226  0.1214 -0.2443 -0.3319
 3350SOL    HW112588   1.507   2.144   9.279  0.1272  0.1661  0.1442
 3350SOL    HW212589   1.519   2.203   9.140 -0.0598 -0.6980 -0.2446
 3351SOL     OW12590   4.560   7.086   6.813  0.0540 -0.0940 -0.3528
 3351SOL    HW112591   4.486   7.028   6.794 -1.2226  0.9187  1.3227
 3351SOL    HW212592   4.631   7.028   6.840 -1.0466 -0.9128  0.8251
 3352SOL     OW12593   2.548   9.647   5.043  0.3737  0.2447 -0.2545
 3352SOL    HW112594   2.513   9.621   4.958  2.9781 -1.1044 -0.9886
 3352SOL    HW212595   2.524   9.576   5.102 -0.5059  0.6582 -0.1138
 3353SOL     OW12596   7.480   0.333   0.347 -0.4426 -0.0463 -0.3814
 3353SOL    HW112597   7.394   0.332   0.388 -0.4524  1.5678 -0.3165
 3353SOL    HW212598   7.537   0.287   0.408 -0.3014  2.9488  1.8369
 3354SOL     OW12599   7.896   2.882   0.369 -0.2438 -0.2965  0.1596
 3354SOL    HW112600   7.883   2.807   0.426  0.5856  1.6952  3.0759
 3354SOL    HW212601   7.816   2.934   0.377 -0.1310 -0.0002 -0.5167
 3355SOL     OW12602   9.744   7.429   2.160 -0.1477  0.3550  0.1068
 3355SOL    HW112603   9.822   7.442   2.214 -0.7796  0.6844  0.9479
 3355SOL    HW212604   9.689   7.504   2.179 -1.1092 -0.3880  0.2748
 3356SOL     OW12605   2.587   0.389   3.882 -0.1050  0.0118 -0.4951
 3356SOL    HW112606   2.582   0.458   3.816 -2.5671 -1.2083 -1.6710
 3356SOL    HW212607   2.550   0.428   3.961 -2.4171 -0.1823 -1.4217
 3357SOL     OW12608   4.729   7.166   2.279 -0.1073 -0.1258 -0.3076
 3357SOL    HW112609   4.653   7.209   2.238  1.3270  1.2390 -1.6035
 3357SOL    HW212610   4.749   7.094   2.220 -0.1596 -0.2507 -0.1719
 3358SOL     OW12611   1.522   0.052   6.910  0.5118 -0.4837  0.2433
 3358SOL    HW112612   1.445   0.060   6.966 -0.4689  1.5768 -1.3515
 3358SOL    HW212613   1.589   0.105   6.953 -0.0852  0.6731 -0.2268
 3359SOL     OW12614   0.282   5.182   7.789 -0.2456  0.1661  0.6198
 3359SOL    HW112615   0.344   5.133   7.843  1.5617  2.7332  0.9216
 3359SOL    HW212616   0.271   5.128   7.710 -1.0595 -2.4362  2.4196
 3360SOL     OW12617   9.586   8.621   0.343  0.6445  0.9176 -0.1845
 3360SOL    HW112618   9.558   8.562   0.272  0.8980  1.1382 -0.4669
 3360SOL    HW212619   9.643   8.567   0.397 -0.5362  0.3813  0.5543
 3361SOL     OW12620   9.837   6.222   7.956 -0.1163 -0.6161  0.1827
 3361SOL    HW112621   9.883   6.243   8.037  0.7629  0.4139 -0.5694
 3361SOL    HW212622   9.838   6.304   7.906 -3.1305 -0.4587  0.3232
 3362SOL     OW12623   9.352   9.397   8.209 -0.1862 -0.3442  0.2990
 3362SOL    HW112624   9.420   9.410   8.142 -0.2808 -0.3063  0.2121
 3362SOL    HW212625   9.271   9.426   8.168 -0.0988  0.5494  0.7474
 3363SOL     OW12626   8.936   0.509   1.137 -0.0007  0.9233 -0.2392
 3363SOL    HW112627   8.862   0.548   1.090  0.0066  0.3441 -0.7486
 3363SOL    HW212628   9.008   0.511   1.073  0.4163  1.4435  0.2378
 3364SOL     OW12629   2.162   2.323   6.165  0.5865  0.1137 -0.0903
 3364SOL    HW112630   2.131   2.245   6.119  0.1384 -0.1349  0.6278
 3364SOL    HW212631   2.186   2.384   6.095 -0.6901 -0.0112 -0.6522
 3365SOL     OW12632   1.840   4.847   6.194  0.3160  0.4081 -0.2884
 3365SOL    HW112633   1.780   4.881   6.261 -0.5369 -1.0113 -0.3119
 3365SOL    HW212634   1.925   4.883   6.218 -0.2609  1.1456  0.6893
 3366SOL     OW12635   5.611   2.299   2.716 -0.3256 -0.1252  0.4934
 3366SOL    HW112636   5.636   2.230   2.778 -3.0099 -2.1640 -0.5594
 3366SOL    HW212637   5.522   2.323   2.742 -0.6107  0.6498 -1.1319
 3367SOL     OW12638   1.352   0.101   5.252  0.0764 -0.0631  0.6466
 3367SOL    HW112639   1.322   0.012   5.232  0.3538  0.0425 -0.2991
 3367SOL    HW212640   1.273   0.148   5.277 -0.3103 -0.2004 -0.2730
 3368SOL     OW12641   5.940   4.943   8.091  0.1372  0.0843 -0.4264
 3368SOL    HW112642   5.894   4.958   8.009  0.5449 -0.4854 -0.7636
 3368SOL    HW212643   6.026   4.909   8.065 -0.4721 -2.0470  0.2888
 3369SOL     OW12644   7.101  10.150   4.734  0.2480  0.3754 -0.1167
 3369SOL    HW112645   7.040  10.085   4.768 -1.0101 -0.0510 -3.0218
 3369SOL    HW212646   7.188  10.113   4.750 -0.4313 -1.5641 -0.8103
 3370SOL     OW12647   5.666   7.749   1.982 -0.0542  0.3451 -0.1162
 3370SOL    HW112648   5.653   7.689   2.056 -2.5977 -0.4914 -1.1727
 3370SOL    HW212649   5.720   7.700   1.920  0.9482  0.5414  0.5971
 3371SOL     OW12650   0.551   2.079   6.054 -0.2551  0.1897  0.2254
 3371SOL    HW112651   0.490   2.151   6.037 -0.6566  0.1369  1.3406
 3371SOL    HW212652   0.637   2.113   6.030 -1.0131 -0.6693 -3.9958
 3372SOL     OW12653   3.494   8.577   8.494 -0.0320 -0.2375 -0.2798
 3372SOL    HW112654   3.405   8.583   8.458  0.3413 -0.6985 -1.2900
 3372SOL    HW212655   3.481   8.569   8.588 -1.0380  0.6253 -0.3346
 3373SOL     OW12656   9.910   7.086   8.662  0.1050 -0.5109  0.4584
 3373SOL    HW112657   9.967   7.097   8.586  1.8300 -1.5440  1.5864
 3373SOL    HW212658   9.829   7.048   8.625  1.2391 -1.8026 -0.7553
 3374SOL     OW12659   9.156   0.803   8.196 -0.1591 -0.1947  0.1225
 3374SOL    HW112660   9.103   0.729   8.166  0.8583 -0.4546 -1.0465
 3374SOL    HW212661   9.140   0.872   8.131  1.3356 -0.4441 -0.5208
 3375SOL     OW12662   8.767   6.763   4.204  0.0461 -0.3600  0.2963
 3375SOL    HW112663   8.726   6.706   4.269  1.6269 -1.8276  0.0529
 3375SOL    HW212664   8.774   6.848   4.247 -1.3290 -0.6195  1.0720
 3376SOL     OW12665   6.381   4.827   3.785  0.4130  0.3869 -0.2775
 3376SOL    HW112666   6.334   4.744   3.784  0.7848  0.1693 -2.7761
 3376SOL    HW212667   6.381   4.853   3.877  0.0308 -2.2206  0.5158
 3377SOL     OW12668   3.374   5.937   4.412 -0.0250 -0.5018 -0.2593
 3377SOL    HW112669   3.319   5.868   4.450  0.1487 -0.6487 -0.2772
 3377SOL    HW212670   3.419   5.895   4.339  0.9454 -0.6632  0.4257
 3378SOL     OW12671   2.397   9.277   2.654 -0.0662  0.7675  0.5092
 3378SOL    HW112672   2.354   9.213   2.711 -0.2524 -1.2293 -1.7724
 3378SOL    HW212673   2.331   9.346   2.641 -0.6517  0.3535  1.2949
 3379SOL     OW12674   3.071   6.343   3.119  0.2787  0.2818 -0.4543
 3379SOL    HW112675   3.064   6.293   3.200  2.5126  2.1795  0.9679
 3379SOL    HW212676   3.112   6.282   3.057  0.3658 -0.5527  0.4063
 3380SOL     OW12677   0.023   2.347   9.345  0.2964  0.4991 -0.2534
 3380SOL    HW112678   0.061   2.414   9.402  0.6330 -1.0510  1.3840
 3380SOL    HW212679   0.028   2.266   9.396 -2.0610 -0.3872 -1.3329
 3381SOL     OW12680   3.444   7.598   7.745  0.0648  0.0107  0.4481
 3381SOL    HW112681   3.515   7.629   7.800  1.9087 -0.8705 -1.3646
 3381SOL    HW212682   3.478   7.519   7.703 -1.0722  0.8981 -2.2977
 3382SOL     OW12683   8.461   4.536  10.135  0.8723  0.1087 -0.2272
 3382SOL    HW112684   8.428   4.451  10.104  2.0844 -0.0771 -1.0299
 3382SOL    HW212685   8.390   4.570  10.189  0.6370 -1.7257  0.6831
 3383SOL     OW12686   1.789   3.658   1.066  0.3342 -0.0711 -0.0886
 3383SOL    HW112687   1.845   3.602   1.013  2.1393  1.8125 -0.2469
 3383SOL    HW212688   1.706   3.611   1.072  0.3598 -0.7746 -3.8385
 3384SOL     OW12689   3.009   9.764   9.332  0.4968  0.5223 -0.3771
 3384SOL    HW112690   3.029   9.800   9.418  2.2765  0.2127 -0.6354
 3384SOL    HW212691   3.029   9.671   9.340 -1.5808  0.0410 -0.4635
 3385SOL     OW12692   4.283   1.071   1.431  0.0062  0.6611 -0.1225
 3385SOL    HW112693   4.224   1.145   1.447 -0.1101  0.6460 -0.4872
 3385SOL    HW212694   4.239   0.997   1.472  0.0618  0.7693  0.1330
 3386SOL     OW12695   5.226   5.967   6.551 -0.5852  0.4531 -0.4369
 3386SOL    HW112696   5.149   5.947   6.498 -0.6086  2.3046 -1.1251
 3386SOL    HW212697   5.297   5.918   6.509 -1.0712  0.0402 -0.7834
 3387SOL     OW12698   8.202   9.216   5.231  0.3477  0.3641 -0.8333
 3387SOL    HW112699   8.180   9.283   5.166 -1.2845  2.1842  1.5005
 3387SOL    HW212700   8.272   9.255   5.283  0.7541 -0.5612 -0.6740
 3388SOL     OW12701   3.812   0.940   4.229 -0.5274  0.4515 -0.4808
 3388SOL    HW112702   3.886   0.890   4.264 -1.4228 -0.7654 -0.3039
 3388SOL    HW212703   3.850   1.023   4.201  0.7555  0.1713  0.4144
 3389SOL     OW12704   4.964   0.860   1.296 -0.0336 -0.2073  0.5993
 3389SOL    HW112705   4.917   0.929   1.343  0.0185  0.0197  0.3205
 3389SOL    HW212706   4.977   0.895   1.208 -1.5012 -1.2393 -0.0504
 3390SOL     OW12707   6.823   0.289   4.539  0.3272 -0.2025  0.1754
 3390SOL    HW112708   6.852   0.218   4.598  0.5920 -1.4991 -1.4837
 3390SOL    HW212709   6.786   0.354   4.598  2.1750 -0.6792  1.9626
 3391SOL     OW12710   2.749   9.148   6.141 -0.2055 -0.3738 -0.6959
 3391SOL    HW112711   2.810   9.177   6.073 -0.8648 -0.4443 -1.3184
 3391SOL    HW212712   2.701   9.226   6.166  0.7556 -0.1242  0.4515
 3392SOL     OW12713   3.337   2.379   1.787  0.5903  0.9551  0.3241
 3392SOL    HW112714   3.396   2.307   1.808  1.9686  1.7536 -0.8098
 3392SOL    HW212715   3.269   2.374   1.855  1.1161 -0.8987  0.7338
 3393SOL     OW12716   8.377   4.954   3.013 -0.6313  0.3685 -0.5369
 3393SOL    HW112717   8.468   4.943   2.987 -0.8384 -2.4792 -0.2223
 3393SOL    HW212718   8.381   5.005   3.094  0.8204 -1.0444  0.3164
 3394SOL     OW12719   0.464   9.925   9.070 -0.0271 -0.0834 -0.0193
 3394SOL    HW112720   0.525   9.851   9.062 -1.4960 -1.2325 -0.8890
 3394SOL    HW212721   0.468   9.950   9.163  0.5785 -1.1870  0.2575
 3395SOL     OW12722   2.097   7.509   9.764 -0.7324 -0.4899  0.5042
 3395SOL    HW112723   2.110   7.414   9.759  1.6362 -0.2333  1.4407
 3395SOL    HW212724   2.184   7.545   9.781 -1.6746  1.8360  0.6044
 3396SOL     OW12725   8.622   2.093   7.442 -0.0351  0.0511  0.0940
 3396SOL    HW112726   8.679   2.065   7.370 -1.9666 -1.1226 -1.0510
 3396SOL    HW212727   8.677   2.149   7.497  2.3256 -1.4417 -0.6862
 3397SOL     OW12728   5.450   9.318   9.812  0.7765  0.1646 -0.4749
 3397SOL    HW112729   5.425   9.298   9.722  0.3799 -2.6826  0.1969
 3397SOL    HW212730   5.545   9.307   9.814  0.6308 -1.1223 -0.2551
 3398SOL     OW12731   9.564   6.496   2.877  0.3188  0.4563 -0.2583
 3398SOL    HW112732   9.588   6.556   2.806  1.6084 -2.9278 -2.8668
 3398SOL    HW212733   9.468   6.498   2.879  0.2560  0.5582 -2.2133
 3399SOL     OW12734   9.440   9.436   1.390 -0.0673 -0.1054  0.1497
 3399SOL    HW112735   9.471   9.488   1.316 -2.0781  0.5105 -0.2903
 3399SOL    HW212736   9.433   9.499   1.462  0.7009 -0.4602  0.5446
 3400SOL     OW12737   1.055   9.345   7.187 -0.2130 -0.6685  0.3760
 3400SOL    HW112738   1.034   9.270   7.243 -0.9694 -0.1910  0.7329
 3400SOL    HW212739   0.979   9.402   7.194 -0.5028 -0.7909 -1.4607
 3401SOL     OW12740   7.876   1.854   4.630  0.0107 -0.9843 -0.6518
 3401SOL    HW112741   7.915   1.925   4.680 -2.0343 -0.1262 -0.2049
 3401SOL    HW212742   7.950   1.806   4.594  1.4662  0.0856  0.8354
 3402SOL     OW12743   0.455   4.475   2.375 -0.4646  0.1769  0.0145
 3402SOL    HW112744   0.518   4.446   2.309 -0.3553 -0.8227  0.5402
 3402SOL    HW212745   0.395   4.401   2.384 -1.7946  1.1707 -0.5694
 3403SOL     OW12746   9.589   9.429   6.787  0.4188 -0.0051  0.5917
 3403SOL    HW112747   9.523   9.480   6.739  1.1827 -2.1412 -2.9340
 3403SOL    HW212748   9.655   9.494   6.812 -0.9388  1.4872  0.3819
 3404SOL     OW12749   9.949   7.209   1.588 -0.6869  0.5794 -0.0778
 3404SOL    HW112750   9.910   7.192   1.503 -2.6871 -0.4519  1.0113
 3404SOL    HW212751   9.924   7.134   1.642  2.2447  0.2169  0.8781
 3405SOL     OW12752   9.879   6.932   3.315  0.1557  0.3011  0.3786
 3405SOL    HW112753   9.829   6.997   3.267 -0.1317 -0.5237 -0.4463
 3405SOL    HW212754   9.857   6.849   3.274  0.8546 -0.2755  1.1417
 3406SOL     OW12755   7.397   1.743   4.284  0.3076 -0.1589 -0.0888
 3406SOL    HW112756   7.346   1.824   4.285 -0.1073 -0.4308  1.3674
 3406SOL    HW212757   7.391   1.709   4.373 -0.9725 -2.7171 -1.1045
 3407SOL     OW12758   1.071   0.330   2.960 -0.3907 -0.0780 -0.1785
 3407SOL    HW112759   1.154   0.317   3.006 -1.0912 -0.5172  0.9781
 3407SOL    HW212760   1.081   0.415   2.917  0.5746 -0.0195  0.1316
 3408SOL     OW12761   4.808   6.070   1.532 -0.4558 -0.1272  0.5367
 3408SOL    HW112762   4.826   6.042   1.442 -1.7014 -0.7835  0.4808
 3408SOL    HW212763   4.891   6.106   1.562  0.2726 -0.8607 -0.5235
 3409SOL     OW12764   4.305   1.037   5.481  0.5313  0.2722  0.1116
 3409SOL    HW112765   4.328   1.051   5.572  1.0128  0.0820  0.0217
 3409SOL    HW212766   4.389   1.028   5.436  0.2834 -0.4508 -0.2155
 3410SOL     OW12767   6.632   9.685   3.638  0.8959 -0.2826  0.0282
 3410SOL    HW112768   6.667   9.606   3.598  1.8087  0.1577 -0.0497
 3410SOL    HW212769   6.706   9.723   3.685  0.4344  0.4780  0.1462
 3411SOL     OW12770   3.317   9.782   1.053 -0.0696 -0.3216 -0.5519
 3411SOL    HW112771   3.299   9.712   0.990 -2.6016 -0.7710  0.5960
 3411SOL    HW212772   3.385   9.835   1.011 -0.6834 -1.4055 -3.0365
 3412SOL     OW12773   6.814   6.738   1.307  0.4021  0.0260  0.0207
 3412SOL    HW112774   6.729   6.716   1.344 -0.3470  0.7292 -1.2676
 3412SOL    HW212775   6.877   6.706   1.372 -0.8486  0.0573  1.2756
 3413SOL     OW12776   9.261   7.040   3.331  0.3443  0.1124  0.7720
 3413SOL    HW112777   9.281   7.019   3.422  0.1079 -2.0691  0.3526
 3413SOL    HW212778   9.218   6.962   3.297  1.2425  0.5492 -1.4666
 3414SOL     OW12779   8.170   0.751   2.246 -0.3108  0.2638  0.0162
 3414SOL    HW112780   8.242   0.692   2.227 -1.0901 -0.6484 -0.1268
 3414SOL    HW212781   8.212   0.836   2.260  0.8474 -0.3880  0.5866
 3415SOL     OW12782   1.086   8.566   7.495  0.6909 -0.0291 -0.0870
 3415SOL    HW112783   1.037   8.628   7.441  1.0847 -0.1745 -0.6145
 3415SOL    HW212784   1.177   8.578   7.470  0.8454 -0.3304  0.3102
 3416SOL     OW12785   2.435   7.276   6.959  0.2746  0.2798  0.4659
 3416SOL    HW112786   2.386   7.357   6.941  1.8317  0.5973 -2.6653
 3416SOL    HW212787   2.399   7.212   6.898 -0.6460 -1.3087  2.6334
 3417SOL     OW12788   2.076   3.205   9.838 -0.4074 -0.2226  0.9780
 3417SOL    HW112789   1.993   3.249   9.855 -0.3649  0.8220 -1.4085
 3417SOL    HW212790   2.143   3.272   9.852 -0.2015 -0.0927 -0.5713
 3418SOL     OW12791   9.370   1.065   4.693  0.5045 -0.1039 -0.2140
 3418SOL    HW112792   9.317   1.144   4.685  0.3092 -0.1932  0.2324
 3418SOL    HW212793   9.447   1.093   4.743 -0.3412 -0.5811  1.3781
 3419SOL     OW12794   2.988   4.469   5.894 -0.2812 -0.2145  0.3100
 3419SOL    HW112795   2.981   4.544   5.953 -0.6043  0.3130 -0.3912
 3419SOL    HW212796   3.051   4.411   5.936  0.1284  0.5476  0.7508
 3420SOL     OW12797   4.823   9.632   7.428 -0.1592  0.4900 -0.3717
 3420SOL    HW112798   4.838   9.598   7.517 -0.0749  2.7206  0.5070
 3420SOL    HW212799   4.743   9.588   7.399  0.2228 -0.8297  0.5226
 3421SOL     OW12800   2.241   9.104   2.232  0.2290 -0.5007 -0.2607
 3421SOL    HW112801   2.287   9.027   2.267  0.6850 -0.2095 -0.2120
 3421SOL    HW212802   2.286   9.124   2.150 -0.8595 -1.1935 -1.0324
 3422SOL     OW12803   3.191   5.151   9.811 -0.0601 -0.1252 -0.0946
 3422SOL    HW112804   3.128   5.103   9.864 -0.3763  0.3503 -0.0381
 3422SOL    HW212805   3.273   5.144   9.860  0.0847 -1.3075 -0.5034
 3423SOL     OW12806   7.548   4.087   4.738 -0.3900  0.0375  0.1802
 3423SOL    HW112807   7.558   4.137   4.657 -0.5758 -1.6243 -0.9002
 3423SOL    HW212808   7.619   4.023   4.736 -0.2345  0.1622  1.4660
 3424SOL     OW12809   9.924   1.096  10.097  0.2385 -0.0689  0.1483
 3424SOL    HW112810   9.910   1.190  10.084 -0.0917 -0.2228 -0.6584
 3424SOL    HW212811   9.870   1.055  10.029  0.9469 -0.8197  0.0433
 3425SOL     OW12812   7.896   1.552   9.534 -0.1810 -0.3813  0.2314
 3425SOL    HW112813   7.918   1.600   9.614 -1.0372 -0.8577  0.7741
 3425SOL    HW212814   7.980   1.522   9.500  0.2616  0.5536  0.4922
 3426SOL     OW12815   3.449   2.591   5.334  0.3335  0.2185  0.1992
 3426SOL    HW112816   3.525   2.642   5.307 -0.3322  1.1771  0.1205
 3426SOL    HW212817   3.484   2.503   5.350  1.4944  0.6975  0.3808
 3427SOL     OW12818   3.173   5.952   4.775 -0.0425 -0.7114  0.0109
 3427SOL    HW112819   3.167   5.857   4.787 -0.5779 -0.8911 -1.6107
 3427SOL    HW212820   3.154   5.966   4.682 -0.0144  0.9912  0.2485
 3428SOL     OW12821   5.873   2.535   3.031  0.2920 -0.6189  0.2376
 3428SOL    HW112822   5.947   2.487   2.994 -0.1218  0.8044 -2.5525
 3428SOL    HW212823   5.822   2.562   2.956 -3.5823 -2.2707  2.1359
 3429SOL     OW12824  10.021   9.504   9.294 -0.4310 -0.2808 -0.2791
 3429SOL    HW112825   9.950   9.443   9.315 -1.4181  1.8980  3.2218
 3429SOL    HW212826  10.100   9.458   9.322 -1.1063 -0.2488  1.8030
 3430SOL     OW12827   5.523   9.635   3.136 -0.1365  0.3062  0.1974
 3430SOL    HW112828   5.495   9.586   3.213 -1.1950 -2.1527 -1.6845
 3430SOL    HW212829   5.597   9.688   3.167  0.2621 -1.5731  2.5972
 3431SOL     OW12830   2.802   1.009   3.035 -0.0164  0.2230 -0.4014
 3431SOL    HW112831   2.812   0.915   3.022  0.9027  0.4063 -1.0528
 3431SOL    HW212832   2.784   1.044   2.947 -0.7202  0.6056 -0.1063
 3432SOL     OW12833   9.129   0.881   7.070 -0.4262  0.2783 -0.0830
 3432SOL    HW112834   9.100   0.799   7.029 -0.5329  0.0887  0.3623
 3432SOL    HW212835   9.144   0.941   6.997  0.5802 -0.4412 -0.4787
 3433SOL     OW12836   0.266   8.618   5.649  0.6031  0.1614  0.0842
 3433SOL    HW112837   0.206   8.567   5.703  0.8321 -0.1233  0.0728
 3433SOL    HW212838   0.291   8.558   5.579  0.1340  0.6076 -0.4585
 3434SOL     OW12839   7.217   6.742   2.008 -0.0009  0.0817 -0.0416
 3434SOL    HW112840   7.209   6.720   2.101  0.4186 -0.0413 -0.0332
 3434SOL    HW212841   7.283   6.682   1.975  0.7941  0.9995 -0.1286
 3435SOL     OW12842   6.345   5.025   4.687  0.4192 -0.0702 -0.2209
 3435SOL    HW112843   6.341   5.118   4.666 -1.7833  0.3014  1.6682
 3435SOL    HW212844   6.261   4.990   4.657  1.9325 -1.8582 -2.5602
 3436SOL     OW12845   7.041   6.372   3.699 -0.3612 -0.1863 -0.1920
 3436SOL    HW112846   6.967   6.356   3.758 -2.8304 -1.8223 -3.5786
 3436SOL    HW212847   7.106   6.306   3.724 -0.9649 -0.2434  1.2846
 3437SOL     OW12848   8.440   3.777   2.575 -0.5517  0.1755 -0.6619
 3437SOL    HW112849   8.400   3.815   2.497 -0.9451  2.5621  0.6613
 3437SOL    HW212850   8.366   3.742   2.625 -0.4290 -0.1899 -0.7352
 3438SOL     OW12851   7.288   8.613   4.367 -0.4529  0.0153  0.6625
 3438SOL    HW112852   7.214   8.662   4.332  0.4004  0.6221 -0.3379
 3438SOL    HW212853   7.291   8.533   4.314 -0.8520 -0.3643  1.2085
 3439SOL     OW12854   6.190   8.494   9.079  0.5343  0.2939 -0.4203
 3439SOL    HW112855   6.133   8.420   9.062 -0.4613  1.3270 -1.6629
 3439SOL    HW212856   6.274   8.470   9.039  0.4448 -0.4578 -0.1607
 3440SOL     OW12857   5.512   2.269   0.444  0.0964 -0.2858  0.1034
 3440SOL    HW112858   5.428   2.309   0.420  0.8179  1.3342  0.2425
 3440SOL    HW212859   5.557   2.256   0.360  0.1810 -0.0988  0.1204
 3441SOL     OW12860   5.352   7.469   8.636  0.8887  0.0611 -0.7051
 3441SOL    HW112861   5.436   7.510   8.620  0.2980  2.1390  1.3767
 3441SOL    HW212862   5.336   7.481   8.729 -1.5098 -0.7090 -0.9807
 3442SOL     OW12863   9.198   2.292   1.720 -0.2026 -0.0463 -0.1991
 3442SOL    HW112864   9.208   2.218   1.659  0.1245 -0.4711  0.3648
 3442SOL    HW212865   9.222   2.256   1.805  1.2671  1.0730 -0.1315
 3443SOL     OW12866   3.438   5.718   1.271  0.2504  0.5826  0.3706
 3443SOL    HW112867   3.447   5.742   1.179  1.8137  0.5676  0.5137
 3443SOL    HW212868   3.491   5.639   1.281  2.6609  2.3217  1.9603
 3444SOL     OW12869   6.960   3.594   5.854  0.0955  0.5419  0.5259
 3444SOL    HW112870   7.044   3.600   5.899  0.0531  0.6167  0.5955
 3444SOL    HW212871   6.970   3.649   5.777 -0.2131  1.3201  1.0369
 3445SOL     OW12872   5.139   3.318   5.292 -0.5379  0.3441 -0.0381
 3445SOL    HW112873   5.192   3.307   5.371 -0.5998 -0.6966 -0.1329
 3445SOL    HW212874   5.203   3.315   5.221 -0.6584 -0.3851 -0.1213
 3446SOL     OW12875   1.928   2.097   9.839  0.6152 -0.6667 -0.4771
 3446SOL    HW112876   2.014   2.073   9.875  1.3625 -0.2988 -1.9831
 3446SOL    HW212877   1.924   2.053   9.754  0.4456  1.4502 -1.6130
 3447SOL     OW12878   1.219   2.279   9.769 -0.3413  0.2874 -1.0780
 3447SOL    HW112879   1.227   2.357   9.825 -0.0430 -0.2533 -0.3598
 3447SOL    HW212880   1.125   2.269   9.755 -0.3953  0.6516 -0.9950
 3448SOL     OW12881   2.124   2.032   0.583  0.0420 -0.5070  0.0638
 3448SOL    HW112882   2.108   1.977   0.659  0.8677 -1.0426 -0.1495
 3448SOL    HW212883   2.115   1.974   0.508  1.1232 -0.3993 -0.1504
 3449SOL     OW12884   1.649   3.225   7.663  0.1323  0.5834  0.0234
 3449SOL    HW112885   1.627   3.219   7.756 -1.3652 -0.8522 -0.4184
 3449SOL    HW212886   1.586   3.169   7.619  1.3492  0.5934 -1.7960
 3450SOL     OW12887   2.387   0.919   6.480  0.0099  0.2158  0.5882
 3450SOL    HW112888   2.439   0.972   6.540 -1.6720  0.3461  1.9739
 3450SOL    HW212889   2.304   0.907   6.525 -0.7671 -0.9191 -1.1030
 3451SOL     OW12890   8.816   1.853   8.483 -0.2965 -0.6357 -0.3335
 3451SOL    HW112891   8.882   1.916   8.510  0.0857 -1.8362  1.6078
 3451SOL    HW212892   8.827   1.778   8.542 -1.1475 -2.2781 -2.1618
 3452SOL     OW12893   0.536   6.772   1.030 -0.3375  0.0084  0.1507
 3452SOL    HW112894   0.489   6.690   1.046 -0.8262 -0.3278 -2.6540
 3452SOL    HW212895   0.468   6.837   1.018  0.0334  0.5964  1.1566
 3453SOL     OW12896   6.405   8.363   7.252 -0.1085 -0.4803  0.0535
 3453SOL    HW112897   6.346   8.437   7.263 -1.0487 -1.2957  0.5322
 3453SOL    HW212898   6.480   8.399   7.205 -1.7571  0.1500 -2.1306
 3454SOL     OW12899   2.099   1.692   2.133  0.1717  0.4057  0.0952
 3454SOL    HW112900   2.074   1.643   2.055  0.5149 -1.7036  1.2528
 3454SOL    HW212901   2.017   1.730   2.165 -0.4013 -0.7855  0.0734
 3455SOL     OW12902   4.977   6.357   7.206 -0.3717 -0.1135  0.0994
 3455SOL    HW112903   5.027   6.276   7.193 -1.2392 -0.3506 -1.9786
 3455SOL    HW212904   5.019   6.420   7.147 -0.9295  0.3940  0.2479
 3456SOL     OW12905   6.584   5.654   9.148 -0.8057 -0.1832  0.2135
 3456SOL    HW112906   6.580   5.733   9.201 -3.4428  0.0079 -0.2193
 3456SOL    HW212907   6.568   5.583   9.210 -1.1151 -0.1728  0.1462
 3457SOL     OW12908   6.531   5.184   5.903 -0.7675  0.0873 -0.6494
 3457SOL    HW112909   6.574   5.101   5.882  0.0878  0.2560  0.3780
 3457SOL    HW212910   6.505   5.176   5.994  0.0318  1.2418 -0.2987
 3458SOL     OW12911   0.091   8.715   9.784  0.6018  0.3270  0.2522
 3458SOL    HW112912   0.059   8.653   9.718 -0.3111  2.1911 -1.1112
 3458SOL    HW212913   0.186   8.703   9.783  0.6987  0.9866 -2.1443
 3459SOL     OW12914   1.915   8.772   8.924 -0.0222  0.1508  0.4842
 3459SOL    HW112915   1.822   8.787   8.943 -0.1635 -0.6460  0.4266
 3459SOL    HW212916   1.954   8.859   8.929 -0.3336  0.2063  2.8991
 3460SOL     OW12917   0.787   4.544   0.132  0.3026  0.1239  0.0130
 3460SOL    HW112918   0.714   4.564   0.074 -0.6014 -0.9456  0.7730
 3460SOL    HW212919   0.802   4.625   0.181 -0.7197  0.1831  0.2308
 3461SOL     OW12920   3.846   4.418   5.336  0.3540  0.5899  0.5484
 3461SOL    HW112921   3.866   4.507   5.367  1.8653  0.2864  0.5029
 3461SOL    HW212922   3.904   4.406   5.261 -2.0628  0.6977 -1.4165
 3462SOL     OW12923   9.229   9.121   1.274  0.1699  0.8040 -0.1338
 3462SOL    HW112924   9.246   9.212   1.252  0.1913  0.4914 -1.4387
 3462SOL    HW212925   9.161   9.093   1.213 -1.0438  0.4185  1.3624
 3463SOL     OW12926   8.739   5.472   2.282 -0.0273  0.4477 -0.1532
 3463SOL    HW112927   8.718   5.531   2.355 -1.5974  0.0332 -0.2367
 3463SOL    HW212928   8.802   5.410   2.318 -0.0987  0.7986  0.5877
 3464SOL     OW12929   9.654   1.566   5.148  0.4121 -0.0652 -0.1934
 3464SOL    HW112930   9.608   1.638   5.190 -0.3169 -1.0050  0.6495
 3464SOL    HW212931   9.746   1.592   5.148  0.2506  0.5229  0.7793
 3465SOL     OW12932   2.290   6.726   7.950 -1.1184  0.0758 -0.3660
 3465SOL    HW112933   2.277   6.645   7.900 -1.4118 -0.9617  1.3464
 3465SOL    HW212934   2.383   6.746   7.938 -1.5174  0.6724 -2.5389
 3466SOL     OW12935   7.335   9.074   5.622  0.2997 -0.4132 -0.1800
 3466SOL    HW112936   7.418   9.043   5.587  1.3378  0.5009  1.4077
 3466SOL    HW212937   7.357   9.156   5.666 -1.4772 -0.0833  0.1189
 3467SOL     OW12938   1.178   0.855   4.548 -0.1340  0.3575 -0.2492
 3467SOL    HW112939   1.113   0.867   4.479 -1.4974  1.8580  1.2393
 3467SOL    HW212940   1.259   0.834   4.502 -1.4791 -0.7712 -2.1781
 3468SOL     OW12941   3.693   1.736   3.517 -0.0329 -0.5421  0.1545
 3468SOL    HW112942   3.677   1.702   3.605  2.0158 -0.8867  0.4220
 3468SOL    HW212943   3.785   1.716   3.500  0.3534  1.9536 -0.9902
 3469SOL     OW12944   5.064   7.541   9.328 -0.2534  0.3035  0.5304
 3469SOL    HW112945   5.112   7.621   9.350 -1.2053  1.5990 -1.9076
 3469SOL    HW212946   4.993   7.570   9.271  0.0572 -2.4081 -1.3731
 3470SOL     OW12947   3.117   1.635   4.242 -0.0461 -0.3177  0.0835
 3470SOL    HW112948   3.165   1.555   4.225  0.7503 -0.0526  1.0098
 3470SOL    HW212949   3.159   1.701   4.187 -1.2232 -0.6845 -1.3013
 3471SOL     OW12950   1.493   5.036   8.008 -0.0399 -0.1700  0.2328
 3471SOL    HW112951   1.435   5.019   7.934 -1.3538  2.6815  0.5256
 3471SOL    HW212952   1.558   5.098   7.974 -0.4905  0.9565  1.3708
 3472SOL     OW12953   9.206   0.184   9.587 -0.0302 -0.6954 -0.3158
 3472SOL    HW112954   9.131   0.146   9.540 -0.1730  0.8333 -1.3659
 3472SOL    HW212955   9.167   0.249   9.646  0.2007 -2.2122  1.5509
 3473SOL     OW12956   6.240   7.039   9.433  0.4567 -0.4479  0.3929
 3473SOL    HW112957   6.193   6.995   9.505  2.2807 -0.9747  1.2964
 3473SOL    HW212958   6.289   6.968   9.391  1.1906  0.2593  0.0649
 3474SOL     OW12959   7.782   1.776   7.065 -0.2371  0.0848 -0.2068
 3474SOL    HW112960   7.743   1.731   7.139 -1.9380  0.7623 -0.6758
 3474SOL    HW212961   7.709   1.797   7.008  0.9280  0.5242 -1.5732
 3475SOL     OW12962   3.268   1.202   7.383 -0.2096 -0.1343  0.0187
 3475SOL    HW112963   3.256   1.262   7.310  1.4367  0.6433  0.3768
 3475SOL    HW212964   3.274   1.258   7.461  0.0849 -0.8230  0.5013
 3476SOL     OW12965   3.304   9.593   0.846 -0.1004 -0.3091 -0.2325
 3476SOL    HW112966   3.340   9.525   0.902  0.4535 -0.0857 -0.3150
 3476SOL    HW212967   3.231   9.550   0.800 -0.8681 -0.3663  1.0042
 3477SOL     OW12968   6.971   0.614   4.931  0.5575 -0.4723 -0.2872
 3477SOL    HW112969   6.971   0.672   4.854 -0.3902  2.6611  1.9445
 3477SOL    HW212970   7.059   0.621   4.966  0.5144 -0.5549 -0.1628
 3478SOL     OW12971   7.981   1.009   2.369  0.1736 -0.0635 -0.2686
 3478SOL    HW112972   7.953   1.026   2.459  0.8097  3.2880 -0.6530
 3478SOL    HW212973   8.076   1.011   2.373  0.2153 -0.4907 -0.9345
 3479SOL     OW12974   1.783   8.381   4.353 -0.4341  0.1043 -0.0639
 3479SOL    HW112975   1.795   8.292   4.387 -1.6622 -0.3076 -0.7032
 3479SOL    HW212976   1.797   8.437   4.429 -1.4595 -0.7280  0.7531
 3480SOL     OW12977   3.408   6.671   7.872 -0.0448  0.6303 -0.1159
 3480SOL    HW112978   3.357   6.624   7.937  0.5349  1.0407  0.6574
 3480SOL    HW212979   3.400   6.619   7.792  0.2123 -0.5224  0.5954
 3481SOL     OW12980   8.277   1.915   7.146  0.3027 -0.4590  0.5096
 3481SOL    HW112981   8.354   1.895   7.199 -0.5685 -0.0041  1.9829
 3481SOL    HW212982   8.242   1.996   7.183 -1.2575 -1.0089  0.2955
 3482SOL     OW12983   0.398   8.338   7.686  0.7877 -0.0267 -0.0935
 3482SOL    HW112984   0.486   8.340   7.725  0.5366  0.5977  0.4465
 3482SOL    HW212985   0.339   8.354   7.760  0.2749  0.5221 -0.6216
 3483SOL     OW12986   0.754   2.300   4.066  0.1030  0.1975 -0.6965
 3483SOL    HW112987   0.804   2.317   3.986  2.7960 -0.3783  0.7864
 3483SOL    HW212988   0.743   2.385   4.107  0.3552  0.2517 -0.7437
 3484SOL     OW12989   4.099   9.557   7.052 -0.0785 -0.0661  0.1941
 3484SOL    HW112990   4.114   9.643   7.093  1.0819 -0.4574  0.6023
 3484SOL    HW212991   4.185   9.515   7.053 -0.3234 -0.6209 -1.4361
 3485SOL     OW12992   5.553   2.167   6.633  0.4209 -0.7754 -0.6864
 3485SOL    HW112993   5.494   2.153   6.560 -1.2894  1.0080  0.2995
 3485SOL    HW212994   5.511   2.122   6.707 -0.1251  1.1030  0.1854
 3486SOL     OW12995   0.435   9.653   0.882 -0.0177 -0.2853  0.8032
 3486SOL    HW112996   0.421   9.719   0.950 -0.5149  0.2253  0.2060
 3486SOL    HW212997   0.354   9.602   0.880  0.5723 -1.2796  1.6493
 3487SOL     OW12998   9.971   5.546   6.034 -0.0872 -0.6718  0.1097
 3487SOL    HW112999   9.999   5.548   6.126  1.4853 -1.7583 -0.3254
 3487SOL    HW213000   9.970   5.638   6.008  0.0920 -0.3990  1.0298
 3488SOL     OW13001   4.914   9.155   6.362 -0.5083 -0.6860 -0.6747
 3488SOL    HW113002   4.975   9.164   6.289  0.1819  0.7271  0.0446
 3488SOL    HW213003   4.874   9.242   6.370 -0.2715 -0.6972  0.8587
 3489SOL     OW13004   3.707   6.941   1.674  0.2563 -0.3885  0.4155
 3489SOL    HW113005   3.624   6.977   1.705  0.3369 -0.8178  1.1252
 3489SOL    HW213006   3.764   6.942   1.750  0.5064 -1.2936  0.2502
 3490SOL     OW13007   1.273   5.386   6.192 -0.0531 -0.1434  0.9713
 3490SOL    HW113008   1.253   5.463   6.244 -2.7403  0.2677 -0.5839
 3490SOL    HW213009   1.267   5.415   6.101  0.6776 -1.7629  0.3741
 3491SOL     OW13010   1.516   2.429  10.166 -0.2086  0.1190  0.4652
 3491SOL    HW113011   1.491   2.373  10.240  0.7392  1.0637  1.5240
 3491SOL    HW213012   1.588   2.381  10.124 -1.8038 -1.1833 -0.8210
 3492SOL     OW13013   1.645   8.273   3.101  0.1668  0.6955  0.3110
 3492SOL    HW113014   1.581   8.232   3.159 -2.1146  0.7568 -2.0727
 3492SOL    HW213015   1.675   8.350   3.149 -0.5771 -0.0356  1.9909
 3493SOL     OW13016   6.848   0.407   2.917 -0.6455  0.5572  0.5437
 3493SOL    HW113017   6.903   0.350   2.971 -0.2960  0.7120  0.3566
 3493SOL    HW213018   6.826   0.480   2.975  0.3137  1.0770  0.2748
 3494SOL     OW13019   3.317   8.278   1.402 -0.2666  0.1436 -0.8446
 3494SOL    HW113020   3.268   8.227   1.336 -0.6239  0.6730 -0.9964
 3494SOL    HW213021   3.250   8.330   1.446 -0.3431 -1.9277  1.5351
 3495SOL     OW13022   9.651   3.524   6.771  0.0479  0.5133  0.0376
 3495SOL    HW113023   9.694   3.607   6.752  0.2229  0.2134 -0.9350
 3495SOL    HW213024   9.720   3.458   6.757 -0.9855 -0.0735 -2.6719
 3496SOL     OW13025   0.261   6.985   5.080 -0.2252  0.2158 -0.4112
 3496SOL    HW113026   0.343   6.937   5.067  0.7830  1.7320  0.2581
 3496SOL    HW213027   0.237   7.015   4.992 -1.0031 -1.6619 -0.8852
 3497SOL     OW13028   7.725   9.794   0.099  0.0482 -0.2836  0.3562
 3497SOL    HW113029   7.655   9.783   0.163 -1.0411 -0.9650 -0.9328
 3497SOL    HW213030   7.711   9.881   0.063  0.6867  0.1166  1.0482
 3498SOL     OW13031   6.726   4.851   9.448  0.8113 -0.6426  0.3874
 3498SOL    HW113032   6.680   4.878   9.527  0.8826 -0.1506  0.2627
 3498SOL    HW213033   6.804   4.907   9.446 -0.4525  1.0889 -1.3630
 3499SOL     OW13034   1.941   3.232   5.736  0.5831 -0.2038  0.6330
 3499SOL    HW113035   1.861   3.187   5.764 -1.0529  1.0305 -1.8891
 3499SOL    HW213036   1.956   3.201   5.647  2.3333  0.4152  0.6999
 3500SOL     OW13037   6.740   1.041   0.992  0.2005  0.2383  0.4790
 3500SOL    HW113038   6.831   1.063   0.970  0.1411 -0.8957 -0.9497
 3500SOL    HW213039   6.716   0.972   0.930 -1.5877  0.4102  0.9523
 3501SOL     OW13040   4.365   8.924   5.609  0.1153  0.8504 -0.2533
 3501SOL    HW113041   4.392   8.848   5.557  0.2580  0.9183 -0.2796
 3501SOL    HW213042   4.318   8.980   5.547 -1.2893  0.0913  0.1043
 3502SOL     OW13043   2.427   7.580   9.644 -0.0819  0.2701 -0.0271
 3502SOL    HW113044   2.412   7.526   9.722  1.5510  1.4805  1.1542
 3502SOL    HW213045   2.395   7.667   9.668 -0.8078  0.3305 -1.1883
 3503SOL     OW13046   4.753   5.233   6.330 -0.0354 -0.5216 -0.4804
 3503SOL    HW113047   4.829   5.250   6.385 -0.5148  0.2611 -0.0509
 3503SOL    HW213048   4.783   5.250   6.241 -0.2222  1.6315 -0.1538
 3504SOL     OW13049   8.192   7.670   8.749 -0.5339 -0.1660 -0.3736
 3504SOL    HW113050   8.212   7.607   8.680 -0.6232 -0.6171  0.0130
 3504SOL    HW213051   8.257   7.654   8.817  1.0806  1.8768 -1.3457
 3505SOL     OW13052   8.756   2.617   2.181  0.1058 -0.4405  0.3522
 3505SOL    HW113053   8.682   2.633   2.240  1.3938 -0.8989  2.1267
 3505SOL    HW213054   8.766   2.522   2.180  1.1035 -0.3417  0.6664
 3506SOL     OW13055   2.822   6.922   0.553  0.2390  0.0950 -0.0271
 3506SOL    HW113056   2.755   6.990   0.551  1.1186  0.9641 -0.4185
 3506SOL    HW213057   2.778   6.846   0.590 -1.6312 -0.0767 -2.4504
 3507SOL     OW13058   1.745   9.405   5.242  0.0073 -0.2457  0.7915
 3507SOL    HW113059   1.787   9.354   5.311 -0.3063 -1.6882 -0.0612
 3507SOL    HW213060   1.752   9.350   5.164 -2.7251 -0.1515  0.4388
 3508SOL     OW13061   4.436   5.980   6.615  0.0606 -0.4360  0.2343
 3508SOL    HW113062   4.371   6.032   6.569 -3.2222 -2.0863  2.7964
 3508SOL    HW213063   4.453   6.028   6.696  2.2905  0.1053 -0.5068
 3509SOL     OW13064   8.563   6.901   4.070  0.4032 -0.1876 -0.2253
 3509SOL    HW113065   8.645   6.863   4.102  0.7894  1.1290  0.4077
 3509SOL    HW213066   8.510   6.912   4.149 -0.8266 -2.0318 -0.7632
 3510SOL     OW13067   2.871   4.527   3.805 -0.2849 -0.1107  0.6314
 3510SOL    HW113068   2.865   4.512   3.711 -0.3855  1.8724  0.2869
 3510SOL    HW213069   2.813   4.601   3.821  0.9904  0.6280  1.9827
 3511SOL     OW13070   3.361   6.683   3.961 -0.2233 -0.1873 -0.5802
 3511SOL    HW113071   3.296   6.717   3.899  0.3773  0.3349 -0.9338
 3511SOL    HW213072   3.339   6.591   3.972  0.2304 -0.5151 -2.3011
 3512SOL     OW13073   3.472   0.398   3.979 -0.1942  0.0617 -0.0411
 3512SOL    HW113074   3.538   0.329   3.985 -0.8312 -0.6925 -1.2704
 3512SOL    HW213075   3.482   0.448   4.059  0.5469 -1.2348  0.7012
 3513SOL     OW13076   8.196   3.038   6.909 -0.2871  0.6487 -0.1853
 3513SOL    HW113077   8.219   3.056   7.000 -0.4398 -1.4330  0.2827
 3513SOL    HW213078   8.266   2.981   6.877 -1.6257 -0.8493 -0.5409
 3514SOL     OW13079   3.211   1.736   6.216  0.0581 -0.2683 -0.2014
 3514SOL    HW113080   3.210   1.826   6.247 -1.6888 -0.2382 -0.3016
 3514SOL    HW213081   3.178   1.741   6.126 -0.7740 -1.0880  0.0451
 3515SOL     OW13082   3.552   2.155   1.841 -0.1239 -0.6819 -0.0975
 3515SOL    HW113083   3.586   2.065   1.846  1.8230  0.0124 -0.7601
 3515SOL    HW213084   3.629   2.210   1.829 -1.2422  1.1570  0.8508
 3516SOL     OW13085   0.315   3.096   2.045  0.4157  0.2108  0.0605
 3516SOL    HW113086   0.306   3.077   1.952 -0.5142  1.0110 -0.0232
 3516SOL    HW213087   0.233   3.063   2.084  1.0965 -0.7583  0.7044
 3517SOL     OW13088   5.139   2.335   3.502  0.3848 -0.7642 -0.2566
 3517SOL    HW113089   5.187   2.396   3.557  1.1599 -2.0667  0.5488
 3517SOL    HW213090   5.163   2.358   3.412 -0.1244  0.7444 -0.0151
 3518SOL     OW13091   1.168   4.549   8.866 -0.3198  0.2765  0.4574
 3518SOL    HW113092   1.144   4.561   8.958 -0.6315 -0.7401  0.5094
 3518SOL    HW213093   1.248   4.601   8.856 -0.8655  1.2592  1.0288
 3519SOL     OW13094   6.274   4.978   4.311  0.0226 -0.3497  0.1253
 3519SOL    HW113095   6.311   5.058   4.274 -3.7553  1.6355  0.4061
 3519SOL    HW213096   6.296   4.983   4.405  0.1788  0.1149  0.0660
 3520SOL     OW13097   9.702   0.172   0.413 -0.3015  0.4825 -0.3487
 3520SOL    HW113098   9.797   0.181   0.405  0.0384 -0.0107  2.4028
 3520SOL    HW213099   9.676   0.245   0.470 -1.2905 -0.4083  0.3778
 3521SOL     OW13100   1.095   7.608   7.605 -0.0759  0.2803 -0.1753
 3521SOL    HW113101   1.021   7.560   7.569  0.2388 -0.7204  0.4717
 3521SOL    HW213102   1.071   7.623   7.697  0.8046 -0.6690  0.2284
 3522SOL     OW13103   0.889   1.533   6.209 -0.2146  0.0470  0.4304
 3522SOL    HW113104   0.927   1.556   6.294 -0.2835  2.1661 -0.0981
 3522SOL    HW213105   0.819   1.596   6.196 -0.7460 -0.7892 -0.8315
 3523SOL     OW13106   0.483   5.750   4.351  0.0315  0.0193 -0.2026
 3523SOL    HW113107   0.452   5.789   4.269 -2.7102  1.8816  1.6547
 3523SOL    HW213108   0.409   5.757   4.411  1.0008 -4.0130  1.6066
 3524SOL     OW13109   7.659   9.524   6.697  0.5658 -0.7383  0.8865
 3524SOL    HW113110   7.694   9.495   6.612  1.0271  3.0374 -0.3202
 3524SOL    HW213111   7.737   9.538   6.751  0.5029  0.5189  0.6573
 3525SOL     OW13112   0.812   6.009   8.605  0.3716  0.3750 -0.7152
 3525SOL    HW113113   0.887   6.067   8.599 -0.3953  1.5955  1.1878
 3525SOL    HW213114   0.846   5.928   8.641  0.5919  1.3212  1.2534
 3526SOL     OW13115   7.732   1.623   1.385  0.4471 -0.4120  0.9401
 3526SOL    HW113116   7.673   1.698   1.390  2.2450  1.1101 -0.2118
 3526SOL    HW213117   7.677   1.548   1.408 -2.3723  0.7545 -1.6412
 3527SOL     OW13118   9.296   5.445   8.213  0.2381  0.6295  0.0481
 3527SOL    HW113119   9.311   5.353   8.191  1.0339  0.4087  1.4318
 3527SOL    HW213120   9.210   5.465   8.176 -0.2261 -0.8573  0.2994
 3528SOL     OW13121   9.444   8.842   4.953  0.5671 -0.2739 -1.1928
 3528SOL    HW113122   9.350   8.854   4.969  0.8029  0.5262 -0.3343
 3528SOL    HW213123   9.457   8.747   4.953  0.4781 -0.3877  3.1995
 3529SOL     OW13124   6.401   3.328   7.297  0.2756  0.3944  0.3036
 3529SOL    HW113125   6.488   3.289   7.294 -0.4940 -1.4614  1.1229
 3529SOL    HW213126   6.364   3.297   7.380 -1.1059  1.2506  0.0147
 3530SOL     OW13127   1.286   1.036   1.709 -0.2478  0.3232 -0.4911
 3530SOL    HW113128   1.196   1.006   1.719  0.1161 -0.4975  0.3669
 3530SOL    HW213129   1.279   1.121   1.666 -1.5053  0.9541  0.9408
 3531SOL     OW13130   2.908   4.908   6.158  0.1654 -0.6799  0.1249
 3531SOL    HW113131   2.979   4.944   6.211 -0.1687 -0.7132  0.6035
 3531SOL    HW213132   2.882   4.979   6.100  0.6573 -0.7015 -0.1163
 3532SOL     OW13133   4.817   1.660   0.352 -0.1627 -0.7036 -0.6062
 3532SOL    HW113134   4.873   1.678   0.276 -0.3207 -0.8661 -0.7602
 3532SOL    HW213135   4.876   1.668   0.427 -0.5440  1.9900 -0.5477
 3533SOL     OW13136   7.326   5.722   3.976  0.0883 -0.4660  0.7362
 3533SOL    HW113137   7.284   5.806   3.958 -0.5909 -1.2003 -1.2235
 3533SOL    HW213138   7.405   5.745   4.025  0.3068  1.3874 -0.4504
 3534SOL     OW13139   0.223   6.586   0.908  0.1349 -0.3782 -0.9630
 3534SOL    HW113140   0.244   6.679   0.915  3.5660 -1.2176  0.6235
 3534SOL    HW213141   0.193   6.562   0.995  2.6124 -1.5334 -0.4259
 3535SOL     OW13142   4.620   3.484   3.008  0.0377  0.7734  0.0800
 3535SOL    HW113143   4.668   3.417   2.959  1.4490  0.9486  1.1907
 3535SOL    HW213144   4.670   3.564   2.993 -0.5380  1.1893  0.3518
 3536SOL     OW13145   9.366   6.307   7.048 -0.1624  0.2200 -0.3469
 3536SOL    HW113146   9.377   6.301   7.143  0.9710  0.4955 -0.4552
 3536SOL    HW213147   9.385   6.219   7.016  2.6497  0.8694 -0.6062
 3537SOL     OW13148   7.140   0.961   6.213 -0.4297 -0.3758  0.4262
 3537SOL    HW113149   7.132   0.889   6.275  0.5321 -1.8185 -1.0786
 3537SOL    HW213150   7.092   1.033   6.253  1.3777 -0.8198  3.4828
 3538SOL     OW13151   0.846   4.556   9.291 -0.6554  0.7532 -0.0218
 3538SOL    HW113152   0.872   4.464   9.302  1.0557  0.7858 -3.1750
 3538SOL    HW213153   0.899   4.604   9.355  0.3782 -0.1856 -0.1621
 3539SOL     OW13154   1.355   2.843   0.188  0.3529  0.0803 -0.1419
 3539SOL    HW113155   1.417   2.911   0.161  0.7116  0.1817  0.9181
 3539SOL    HW213156   1.350   2.784   0.113  0.5549  0.9109 -0.8183
 3540SOL     OW13157   0.387   7.415   7.746  0.2685 -0.5782 -0.0941
 3540SOL    HW113158   0.369   7.386   7.657 -1.6596 -0.5647  0.2637
 3540SOL    HW213159   0.304   7.453   7.776  1.3944  0.9845  1.1013
 3541SOL     OW13160   9.233   6.478   5.190 -0.7241  0.2517  0.3655
 3541SOL    HW113161   9.321   6.515   5.194 -0.6497  0.1758 -0.4161
 3541SOL    HW213162   9.183   6.542   5.138 -1.3935  0.8129  1.6870
 3542SOL     OW13163   8.154   6.710   5.256 -0.3864 -0.1518 -0.0206
 3542SOL    HW113164   8.228   6.699   5.316  0.2651 -0.2557 -0.8232
 3542SOL    HW213165   8.122   6.798   5.273  0.5664  0.2664 -0.3743
 3543SOL     OW13166   5.844   7.342   2.188  0.1626  0.0698  0.3918
 3543SOL    HW113167   5.764   7.366   2.141  0.2789 -0.6088 -0.1647
 3543SOL    HW213168   5.821   7.350   2.280 -1.4614 -3.0000  0.2963
 3544SOL     OW13169   9.339   8.578   1.943 -0.1246 -0.9613  0.0590
 3544SOL    HW113170   9.298   8.606   1.861  1.0523 -1.3200 -0.6664
 3544SOL    HW213171   9.296   8.631   2.010  0.2932  0.7939 -1.0031
 3545SOL     OW13172   8.533   9.858   9.694  0.4260 -0.1835  0.4661
 3545SOL    HW113173   8.483   9.787   9.655  0.8207 -0.8081  1.0688
 3545SOL    HW213174   8.590   9.889   9.624 -0.7913  0.5230 -0.2173
 3546SOL     OW13175   9.093   0.370   7.062 -0.1046 -0.0835 -0.1347
 3546SOL    HW113176   9.124   0.446   7.112  0.8204 -0.2243 -0.4893
 3546SOL    HW213177   9.001   0.362   7.086  0.2531  0.0113  1.3569
 3547SOL     OW13178   7.120   4.398   5.836  0.3858  0.2358 -0.0157
 3547SOL    HW113179   7.128   4.317   5.887 -3.2130 -0.0721  0.2033
 3547SOL    HW213180   7.119   4.368   5.745 -3.7221 -0.3735  0.1262
 3548SOL     OW13181   7.183   6.628   7.205 -0.2831 -0.0877 -0.0583
 3548SOL    HW113182   7.091   6.644   7.188 -0.0599  0.7214 -0.5397
 3548SOL    HW213183   7.227   6.653   7.124  0.3890 -0.2046  0.2653
 3549SOL     OW13184   2.369   3.262   4.058 -0.1145  0.2473 -0.5257
 3549SOL    HW113185   2.361   3.348   4.100  1.3800  0.0461  0.2311
 3549SOL    HW213186   2.368   3.281   3.964  0.3330  1.1033 -0.3671
 3550SOL     OW13187   4.417   3.310   2.416 -0.2704  0.6754  0.0262
 3550SOL    HW113188   4.368   3.229   2.431 -0.3224  0.5446 -0.8210
 3550SOL    HW213189   4.350   3.377   2.402 -0.2379  1.0100  1.4383
 3551SOL     OW13190   6.884   9.581   8.294  0.0254 -0.2200  0.1260
 3551SOL    HW113191   6.833   9.652   8.254  0.6555 -0.7670 -1.6812
 3551SOL    HW213192   6.975   9.610   8.289 -0.0599  1.0137  3.8743
 3552SOL     OW13193   8.267   1.668   6.571 -0.3521  0.2861  0.0159
 3552SOL    HW113194   8.181   1.633   6.550 -0.8884  1.7961 -0.3785
 3552SOL    HW213195   8.297   1.707   6.489  1.0940 -1.0041 -0.0852
 3553SOL     OW13196   9.039   4.285   8.568  0.1298  0.5716  0.4914
 3553SOL    HW113197   9.102   4.220   8.598 -0.3324 -0.1039  0.0004
 3553SOL    HW213198   8.974   4.290   8.639  0.4051  0.8329  0.7270
 3554SOL     OW13199   0.158   5.542   0.545 -0.1851  0.0682 -0.4020
 3554SOL    HW113200   0.208   5.602   0.600 -0.6296 -0.8246  0.9981
 3554SOL    HW213201   0.222   5.479   0.514  0.1088  0.7054 -1.1295
 3555SOL     OW13202   4.620   3.438   1.996 -0.3548  0.5057  0.4384
 3555SOL    HW113203   4.633   3.409   1.905  0.4310 -2.8711  1.5399
 3555SOL    HW213204   4.704   3.476   2.021 -0.2277  0.4624  0.0809
 3556SOL     OW13205   1.739   0.475   7.485  0.0386  0.2470  0.2511
 3556SOL    HW113206   1.738   0.564   7.450  1.3068 -0.0616 -0.6002
 3556SOL    HW213207   1.654   0.465   7.528 -0.0308  1.9387  0.5503
 3557SOL     OW13208   5.059   1.934   9.995  0.1804  0.1846 -0.6291
 3557SOL    HW113209   5.032   2.004  10.054  1.1786  0.2697 -0.2716
 3557SOL    HW213210   4.986   1.872   9.996  0.4823 -0.1686  1.2384
 3558SOL     OW13211   6.904   2.376   0.958  0.1330 -0.2342  0.3922
 3558SOL    HW113212   6.851   2.300   0.936 -1.3055 -0.1672  3.3149
 3558SOL    HW213213   6.907   2.428   0.878 -0.4855 -2.3884 -1.0759
 3559SOL     OW13214   4.157   7.688   5.354  0.2785 -0.1264 -0.4303
 3559SOL    HW113215   4.169   7.645   5.438  3.2676 -0.2945 -0.8985
 3559SOL    HW213216   4.138   7.779   5.377  2.0768  0.0530  0.4467
 3560SOL     OW13217   7.507   1.469   7.532  0.1116  0.0671 -0.3116
 3560SOL    HW113218   7.422   1.436   7.502  0.7383 -0.3728 -1.6060
 3560SOL    HW213219   7.556   1.487   7.452  1.9492 -1.5219  0.4165
 3561SOL     OW13220   2.916   7.897   2.395 -0.1219  0.3923  0.5655
 3561SOL    HW113221   2.951   7.868   2.311 -0.0457  1.3332  0.2595
 3561SOL    HW213222   2.993   7.930   2.442 -0.6021  2.9652 -0.3192
 3562SOL     OW13223   3.655   0.570   8.855  0.5811  0.5928 -0.4453
 3562SOL    HW113224   3.726   0.510   8.880  0.2120  1.0427  1.8055
 3562SOL    HW213225   3.690   0.619   8.781  1.7862 -0.7159 -0.7740
 3563SOL     OW13226   3.074   6.904   4.795  0.1438  0.1463 -0.4857
 3563SOL    HW113227   3.029   6.845   4.855 -0.5730 -1.1277 -2.2130
 3563SOL    HW213228   3.152   6.932   4.842  1.5489 -3.7220 -0.2812
 3564SOL     OW13229   3.425   5.691   6.311  0.0373 -0.2397  0.4903
 3564SOL    HW113230   3.418   5.779   6.273  0.9866 -0.9682 -1.4199
 3564SOL    HW213231   3.499   5.698   6.372  0.8555 -0.0210 -0.5243
 3565SOL     OW13232   7.213   4.935   0.198 -0.3371  0.1138 -0.2521
 3565SOL    HW113233   7.244   5.012   0.150  0.1652  1.1373  1.6688
 3565SOL    HW213234   7.219   4.864   0.135 -0.0563  1.4966 -1.8286
 3566SOL     OW13235   9.748   6.072   5.580  0.1267 -0.0883 -0.7409
 3566SOL    HW113236   9.783   6.155   5.547  0.1238  0.0731 -0.3315
 3566SOL    HW213237   9.813   6.007   5.554  0.9295  0.2607  0.3689
 3567SOL     OW13238   5.055   6.661   5.848  0.2603  0.7895 -0.0558
 3567SOL    HW113239   5.128   6.721   5.836  0.5786 -0.1250 -3.0055
 3567SOL    HW213240   5.018   6.649   5.761 -1.9502 -0.6079  1.0166
 3568SOL     OW13241   6.800   7.731   2.094 -0.8174 -0.2453  0.6679
 3568SOL    HW113242   6.853   7.697   2.021 -0.8982 -0.5723  0.7620
 3568SOL    HW213243   6.835   7.688   2.171 -1.9100 -1.2806  0.6081
 3569SOL     OW13244  10.040   5.899   8.624 -0.3301 -0.3368  0.4155
 3569SOL    HW113245  10.103   5.926   8.557  1.0585 -0.4737  1.6276
 3569SOL    HW213246  10.004   5.816   8.591 -0.6817  0.2886 -0.7969
 3570SOL     OW13247   1.273   8.981   4.982 -0.2189  0.0590  0.8651
 3570SOL    HW113248   1.358   8.981   4.939 -0.6878 -1.6020 -0.1187
 3570SOL    HW213249   1.219   9.041   4.931 -0.2198 -0.4521  0.2569
 3571SOL     OW13250   4.757   9.654   4.323 -0.3023 -0.4557  0.5081
 3571SOL    HW113251   4.815   9.727   4.342  0.3086 -1.1031  1.1747
 3571SOL    HW213252   4.815   9.581   4.304 -0.9062 -0.8034 -0.0298
 3572SOL     OW13253  10.173   0.998   7.280 -0.4548 -0.8267  0.4336
 3572SOL    HW113254  10.102   0.982   7.342  1.1749 -0.8472  2.3261
 3572SOL    HW213255  10.224   0.917   7.281 -0.9043 -1.1765 -1.6568
 3573SOL     OW13256   9.782   6.509   3.523  0.0076 -0.6526 -0.4262
 3573SOL    HW113257   9.775   6.550   3.609  0.6062 -0.8760 -0.2654
 3573SOL    HW213258   9.724   6.433   3.529 -1.4274  0.3837 -0.8674
 3574SOL     OW13259   7.228   5.793   7.261 -1.0035  0.4334  0.3209
 3574SOL    HW113260   7.192   5.853   7.196 -0.2424  1.9308  1.2661
 3574SOL    HW213261   7.313   5.831   7.284 -0.6365 -0.8558  1.1536
 3575SOL     OW13262   0.971   1.622   8.475 -0.1697 -0.0897 -0.0099
 3575SOL    HW113263   1.066   1.614   8.465  0.0689  0.9683  1.2526
 3575SOL    HW213264   0.942   1.534   8.499  0.6793 -0.1036  0.9861
 3576SOL     OW13265   3.623   5.009   8.430 -0.1301  0.2008 -0.4977
 3576SOL    HW113266   3.539   4.964   8.441  1.3755 -2.7869 -0.7147
 3576SOL    HW213267   3.653   5.026   8.519 -0.7212  0.8575 -0.4149
 3577SOL     OW13268   4.541   8.066   1.170  0.4849 -0.3798 -0.1979
 3577SOL    HW113269   4.509   8.154   1.192  0.1842 -0.2078 -1.2915
 3577SOL    HW213270   4.501   8.009   1.235  2.4928  0.5674  1.9642
 3578SOL     OW13271   1.154   4.002   5.230 -0.1147 -0.2612  0.5612
 3578SOL    HW113272   1.079   4.049   5.195  0.2514  0.1853  0.3602
 3578SOL    HW213273   1.230   4.054   5.203  0.2152 -0.2286  1.5285
 3579SOL     OW13274   5.772   9.957   9.917 -0.3754 -0.4144 -0.5457
 3579SOL    HW113275   5.794  10.050   9.909 -0.0978 -0.5436 -1.3220
 3579SOL    HW213276   5.759   9.928   9.827  3.7472 -2.1521 -0.6650
 3580SOL     OW13277   9.034   5.357   2.638  0.2860  0.1030  0.1680
 3580SOL    HW113278   9.058   5.444   2.670  0.5047 -0.3424  1.2248
 3580SOL    HW213279   9.019   5.306   2.717 -1.0742 -0.4840 -0.4614
 3581SOL     OW13280   4.941   8.851   0.014 -0.2983  0.1715  0.7322
 3581SOL    HW113281   4.951   8.943  -0.011  2.0958 -0.1334  0.5131
 3581SOL    HW213282   4.916   8.855   0.107 -1.1168  1.0631  0.4805
 3582SOL     OW13283   3.038  10.074   4.970  0.3484 -0.4461  0.3436
 3582SOL    HW113284   3.027   9.987   5.008 -1.6367 -0.6392 -0.5882
 3582SOL    HW213285   2.976  10.129   5.018 -0.6297 -0.2319 -1.1437
 3583SOL     OW13286   9.997   5.078   0.602  0.6357  0.6726 -1.1346
 3583SOL    HW113287   9.957   5.029   0.530 -0.5337 -0.1756  0.0710
 3583SOL    HW213288  10.083   5.104   0.568 -0.2343  1.0257 -3.1279
 3584SOL     OW13289   2.426   4.944   2.836 -0.2560 -0.1378  0.1419
 3584SOL    HW113290   2.461   4.858   2.860  1.9591  0.9373  0.8923
 3584SOL    HW213291   2.434   4.946   2.740  0.3638 -0.4914  0.1796
 3585SOL     OW13292  10.027  10.067   8.485 -0.1311 -0.4845 -0.1705
 3585SOL    HW113293   9.989  10.122   8.553 -1.2509  0.5414 -1.5873
 3585SOL    HW213294  10.052   9.986   8.530 -0.5679  0.2949  1.4962
 3586SOL     OW13295   3.070   9.174  10.142 -0.4624  0.1030  0.5808
 3586SOL    HW113296   3.065   9.269  10.155  1.3819 -0.0356  2.7061
 3586SOL    HW213297   3.146   9.162  10.085  0.0597 -0.1607  1.3275
 3587SOL     OW13298   1.056   2.952   2.018 -0.4516 -0.4306  0.2757
 3587SOL    HW113299   0.987   2.939   1.952 -1.2286  0.5463  0.8754
 3587SOL    HW213300   1.121   3.007   1.974  0.3525 -2.0310 -0.5636
 3588SOL     OW13301   0.806   1.951   0.880  0.1213  0.3589  0.2634
 3588SOL    HW113302   0.726   1.918   0.922  0.3439 -0.2111  0.2491
 3588SOL    HW213303   0.787   2.043   0.862 -0.9813 -0.0457 -0.7998
 3589SOL     OW13304   2.684   9.987  10.097  0.0576 -0.0942  0.2670
 3589SOL    HW113305   2.677  10.048  10.024  1.6575  2.1058  1.8612
 3589SOL    HW213306   2.619  10.018  10.161 -0.8985 -1.6238  0.0612
 3590SOL     OW13307   1.016   8.261   5.122 -0.0935 -0.4241  0.1835
 3590SOL    HW113308   1.110   8.269   5.138 -0.0169 -0.9776  0.0129
 3590SOL    HW213309   0.976   8.319   5.187  0.3975  0.4175 -0.2605
 3591SOL     OW13310   4.729   5.513   6.775  0.0551  0.2208  0.6208
 3591SOL    HW113311   4.654   5.512   6.716 -0.3721 -1.4333  1.1491
 3591SOL    HW213312   4.749   5.420   6.789  2.6424  0.6489 -0.0694
 3592SOL     OW13313   0.057   9.573   9.859 -0.1774  0.5224  0.0861
 3592SOL    HW113314   0.120   9.638   9.888 -0.8292  0.5690  1.4369
 3592SOL    HW213315   0.035   9.523   9.938  0.0836 -1.1406 -0.8603
 3593SOL     OW13316   6.293   9.436   2.974  0.4976 -0.1029  0.0651
 3593SOL    HW113317   6.249   9.491   2.909  0.8074  0.3559  0.2441
 3593SOL    HW213318   6.230   9.366   2.992  0.5149 -0.3852 -0.9209
 3594SOL     OW13319   6.197   8.129   2.961 -0.1665 -0.4236 -0.1475
 3594SOL    HW113320   6.272   8.185   2.979 -0.2963  0.4422 -2.0990
 3594SOL    HW213321   6.121   8.179   2.993  0.2489 -2.6592  4.7675
 3595SOL     OW13322   9.654   2.122   9.724  0.1610 -0.1964  0.5009
 3595SOL    HW113323   9.644   2.216   9.714  0.9674 -0.2347 -0.7940
 3595SOL    HW213324   9.569   2.092   9.756 -0.9841  0.6260 -1.6856
 3596SOL     OW13325   3.120   0.089   2.387  0.2547 -0.1083  0.0438
 3596SOL    HW113326   3.196   0.129   2.429  0.9246  1.2707 -2.3481
 3596SOL    HW213327   3.148   0.001   2.364  0.5388 -0.1987  0.7390
 3597SOL     OW13328   6.856   9.485   9.677  0.3290  0.1832  0.1036
 3597SOL    HW113329   6.862   9.440   9.593 -0.3864  0.2727 -0.0046
 3597SOL    HW213330   6.860   9.415   9.742 -0.5091 -0.0231 -0.0555
 3598SOL     OW13331   7.214   9.138   7.712  0.0110 -0.5586  0.3685
 3598SOL    HW113332   7.148   9.184   7.763 -0.7352 -1.0143 -0.1826
 3598SOL    HW213333   7.259   9.082   7.776 -0.9437 -1.1593  0.5237
 3599SOL     OW13334   6.831   4.183   8.269 -0.0620 -0.1468  0.2105
 3599SOL    HW113335   6.924   4.205   8.267  0.2243 -1.1315  1.8791
 3599SOL    HW213336   6.786   4.268   8.258  0.9937  0.1404 -2.1723
 3600SOL     OW13337   2.364   1.188   4.377  0.1373  0.4005  0.1983
 3600SOL    HW113338   2.279   1.188   4.333 -0.6136 -0.9764  1.5677
 3600SOL    HW213339   2.360   1.261   4.438  1.2192  2.3766 -2.0226
 3601SOL     OW13340   9.302   3.805   1.469 -0.1380 -0.0281 -0.6849
 3601SOL    HW113341   9.332   3.891   1.501 -1.1681  0.6434 -1.4996
 3601SOL    HW213342   9.337   3.798   1.381 -0.8313 -0.0354 -0.9646
 3602SOL     OW13343   4.429   1.605   0.394 -0.3142  0.1472  0.4312
 3602SOL    HW113344   4.432   1.644   0.307  0.1588 -2.2546 -0.6888
 3602SOL    HW213345   4.483   1.661   0.448 -1.2121  2.0922 -0.6420
 3603SOL     OW13346   4.027   3.649   2.914 -0.6493 -0.2396 -0.0783
 3603SOL    HW113347   4.100   3.656   2.975 -0.3552 -1.8099 -0.2177
 3603SOL    HW213348   3.979   3.572   2.943 -2.3358  0.8530  0.0853
 3604SOL     OW13349   5.266   2.382   6.473  0.0526  0.5638  0.3505
 3604SOL    HW113350   5.334   2.428   6.523  0.0672  0.2778  0.5941
 3604SOL    HW213351   5.239   2.445   6.406  0.9652  0.4704 -0.1093
 3605SOL     OW13352   6.032   8.342   3.011  0.0044  0.1533 -0.2631
 3605SOL    HW113353   6.023   8.368   3.102  0.1591 -0.5076 -0.0543
 3605SOL    HW213354   6.008   8.420   2.961  0.9356  0.8354  0.3439
 3606SOL     OW13355   3.258   4.444   7.375  0.1784 -0.2115 -0.1054
 3606SOL    HW113356   3.262   4.483   7.288  0.8321 -0.6681 -0.2909
 3606SOL    HW213357   3.213   4.508   7.429 -1.1087 -0.3509 -1.0045
 3607SOL     OW13358   9.340   0.781   5.455 -0.1109 -0.3414  0.5203
 3607SOL    HW113359   9.328   0.855   5.396  0.3059 -0.6760  0.0032
 3607SOL    HW213360   9.335   0.818   5.543  0.0082  0.2795  0.2658
 3608SOL     OW13361   0.719   3.154   5.687 -0.7056 -0.1307  0.4399
 3608SOL    HW113362   0.680   3.106   5.761 -0.2791 -0.7991  0.2324
 3608SOL    HW213363   0.673   3.119   5.610 -0.5089 -0.0887  0.3046
 3609SOL     OW13364   8.628   6.949   8.270  0.1506 -0.3221  0.1815
 3609SOL    HW113365   8.582   6.932   8.352 -0.4022 -0.6610 -0.1936
 3609SOL    HW213366   8.647   6.863   8.235 -0.4610 -0.1850 -0.5090
 3610SOL     OW13367   0.694   4.388   9.539 -0.0827  0.1967  1.0189
 3610SOL    HW113368   0.705   4.350   9.451 -1.6419 -1.0189  1.3381
 3610SOL    HW213369   0.667   4.478   9.523 -0.4295 -0.0420  0.2526
 3611SOL     OW13370   1.070   8.735   8.640 -0.2742  0.0579 -0.1878
 3611SOL    HW113371   1.110   8.802   8.585  2.0066 -1.0777  0.0330
 3611SOL    HW213372   0.997   8.701   8.588 -0.8004  1.9884 -0.7174
 3612SOL     OW13373   6.443   5.300   3.675  0.0417 -0.1694  0.1061
 3612SOL    HW113374   6.434   5.394   3.657  0.4951 -0.4682 -1.7613
 3612SOL    HW213375   6.353   5.270   3.688 -0.0256  0.7309  1.9254
 3613SOL     OW13376   3.421  10.089   6.581 -0.3715 -0.2376 -0.2297
 3613SOL    HW113377   3.409   9.996   6.601 -0.4223 -0.1955 -0.0663
 3613SOL    HW213378   3.395  10.097   6.489 -0.1114 -0.4329 -0.3187
 3614SOL     OW13379   5.106   5.198   5.738 -0.6273 -0.0799  0.0823
 3614SOL    HW113380   5.087   5.283   5.778  0.7878 -0.4442  1.5873
 3614SOL    HW213381   5.182   5.215   5.682  0.7002 -0.6687  1.6605
 3615SOL     OW13382   7.583   2.266   2.048  0.5724 -0.0622 -0.2275
 3615SOL    HW113383   7.611   2.326   1.978 -0.2231 -0.0616 -0.5487
 3615SOL    HW213384   7.494   2.241   2.024  1.2630 -2.2330 -0.6878
 3616SOL     OW13385   8.477   9.596   2.359  0.6317 -0.6405 -0.7303
 3616SOL    HW113386   8.519   9.681   2.369  1.7000 -1.1265 -1.0142
 3616SOL    HW213387   8.490   9.552   2.443 -0.7323 -0.1720 -0.2652
 3617SOL     OW13388   6.385   8.279   5.793  0.4093 -0.5623 -0.3920
 3617SOL    HW113389   6.295   8.293   5.765  1.2192  2.5107 -1.6758
 3617SOL    HW213390   6.414   8.202   5.744 -0.7516 -0.0581 -1.8844
 3618SOL     OW13391   8.044   4.452   3.058 -0.5959  0.0707 -0.4565
 3618SOL    HW113392   8.078   4.380   3.004  3.1347  1.2723  0.1458
 3618SOL    HW213393   8.032   4.524   2.997  1.8811  0.8726 -0.0398
 3619SOL     OW13394   9.542   8.936   8.086  0.4405 -0.1400  0.3129
 3619SOL    HW113395   9.606   8.978   8.030 -0.2471  0.0781 -0.3137
 3619SOL    HW213396   9.495   9.008   8.128  0.7540 -0.2993  0.9530
 3620SOL     OW13397   4.844   1.750   1.207  0.3157  0.2780 -0.0233
 3620SOL    HW113398   4.916   1.708   1.161  0.2346  0.9256 -0.7365
 3620SOL    HW213399   4.766   1.725   1.158  0.2174  0.8736 -0.1736
 3621SOL     OW13400   2.292   4.537   6.941 -0.3790 -0.2507  0.1155
 3621SOL    HW113401   2.349   4.603   6.982 -0.0439  0.2869 -1.1689
 3621SOL    HW213402   2.335   4.454   6.960 -0.3129 -0.0241  0.9814
 3622SOL     OW13403   5.670   3.640   4.736 -0.3919 -0.1635 -0.1020
 3622SOL    HW113404   5.698   3.571   4.676  0.1491  0.1137 -0.1694
 3622SOL    HW213405   5.691   3.606   4.823  1.2264  0.5101 -0.2035
 3623SOL     OW13406   0.888   9.384   3.948 -0.6475 -0.3586 -0.4214
 3623SOL    HW113407   0.897   9.433   3.866  1.6848 -1.5734 -0.9617
 3623SOL    HW213408   0.915   9.295   3.924  0.8081 -0.5610  1.8312
 3624SOL     OW13409   7.136   9.267   8.800  0.4469 -0.1277 -0.4291
 3624SOL    HW113410   7.221   9.288   8.839  0.0644 -1.3596  1.1354
 3624SOL    HW213411   7.100   9.199   8.857 -1.3024 -0.0893 -1.4542
 3625SOL     OW13412   3.169   6.899   8.125  0.5996  0.0352 -0.1076
 3625SOL    HW113413   3.086   6.945   8.117  1.2963  1.9415  2.8219
 3625SOL    HW213414   3.146   6.814   8.163 -0.0228  0.5843  0.7636
 3626SOL     OW13415   9.585   4.689   0.691  0.9107  0.1066 -0.1341
 3626SOL    HW113416   9.568   4.600   0.661 -2.1616 -0.0617  1.8982
 3626SOL    HW213417   9.592   4.740   0.611  0.9915 -1.6767 -1.2894
 3627SOL     OW13418   6.830   5.278   6.787  0.3892 -0.2935  0.1309
 3627SOL    HW113419   6.906   5.259   6.732 -0.3334 -2.1839 -0.2800
 3627SOL    HW213420   6.815   5.196   6.835 -0.9782  0.2766  0.6980
 3628SOL     OW13421   0.119   7.599   0.431  0.1847 -0.5162  0.2176
 3628SOL    HW113422   0.031   7.570   0.455  0.0495  0.3606  0.8004
 3628SOL    HW213423   0.110   7.638   0.344 -0.1778  0.4166  0.6726
 3629SOL     OW13424   7.377   3.759   7.773  0.1207 -0.1004 -0.1912
 3629SOL    HW113425   7.412   3.818   7.840  0.0846  0.0609 -0.3132
 3629SOL    HW213426   7.391   3.672   7.809  0.0775 -0.0140  0.0390
 3630SOL     OW13427   4.226   3.143   5.319  0.1200 -0.4639 -0.2115
 3630SOL    HW113428   4.271   3.058   5.317 -2.3423 -1.7735 -1.5074
 3630SOL    HW213429   4.212   3.160   5.412  2.1766 -0.5888  0.1579
 3631SOL     OW13430   5.478   9.899   4.115  0.0999  0.1009 -0.6328
 3631SOL    HW113431   5.384   9.913   4.120 -0.0430 -1.1115  0.5242
 3631SOL    HW213432   5.488   9.807   4.092  1.0117  0.2632 -0.9432
 3632SOL     OW13433   5.719   1.547   8.104  0.3785  0.2746 -1.6579
 3632SOL    HW113434   5.719   1.586   8.016 -0.7065  2.6016 -0.6687
 3632SOL    HW213435   5.661   1.604   8.155  0.7986 -1.1966  0.5087
 3633SOL     OW13436   0.719   7.839   5.906  0.0028 -0.1165  0.0225
 3633SOL    HW113437   0.664   7.818   5.981  0.7475 -0.9389  0.3367
 3633SOL    HW213438   0.808   7.838   5.940  0.1723  2.3419 -0.2186
 3634SOL     OW13439   2.987   7.072   1.849  0.2755  0.3116 -0.0576
 3634SOL    HW113440   2.983   6.976   1.858  1.7495  0.2056 -0.4889
 3634SOL    HW213441   2.968   7.104   1.937  1.4235 -0.4264  0.4757
 3635SOL     OW13442   5.355  10.121   1.106 -0.0006 -0.4547  1.0961
 3635SOL    HW113443   5.431  10.115   1.047  0.7755  1.7577  1.8171
 3635SOL    HW213444   5.281  10.091   1.053  1.4530 -3.2748  0.5682
 3636SOL     OW13445   1.450   5.928   0.203 -0.0934  0.5502  0.2433
 3636SOL    HW113446   1.356   5.922   0.218  0.0322 -0.6268  0.6119
 3636SOL    HW213447   1.460   6.004   0.145 -1.5048 -0.8110 -1.8841
 3637SOL     OW13448   0.670   8.806   5.624  0.1466  0.3433 -0.3243
 3637SOL    HW113449   0.594   8.813   5.683 -0.0189  0.3313 -0.5349
 3637SOL    HW213450   0.745   8.796   5.683 -0.2259 -1.6343 -0.1610
 3638SOL     OW13451   4.170   6.985   0.805 -0.5895  0.2653  0.2892
 3638SOL    HW113452   4.166   6.890   0.814  1.6708  0.2450  1.2723
 3638SOL    HW213453   4.079   7.013   0.817 -1.3391 -1.7711 -0.3164
 3639SOL     OW13454   1.446   7.186   9.973 -0.6854  0.2548 -0.1271
 3639SOL    HW113455   1.367   7.139   9.999 -2.3631  1.6556 -2.5865
 3639SOL    HW213456   1.464   7.244  10.047  0.2109 -2.6675  2.0388
 3640SOL     OW13457   3.138   0.872   9.088 -0.6532 -0.1103  0.4270
 3640SOL    HW113458   3.151   0.939   9.021 -2.1437 -0.7133 -0.4998
 3640SOL    HW213459   3.085   0.915   9.155 -2.6963 -0.7076 -0.7722
 3641SOL     OW13460   3.010   9.934   6.109  0.1179 -0.3535 -0.0787
 3641SOL    HW113461   3.022  10.022   6.146 -0.5347 -0.6215  0.8057
 3641SOL    HW213462   3.094   9.913   6.070  0.6576  0.1827  0.7689
 3642SOL     OW13463   1.704   8.324   8.487 -0.1478 -0.7575 -0.2221
 3642SOL    HW113464   1.753   8.302   8.407  2.9721 -0.9786  1.6989
 3642SOL    HW213465   1.704   8.420   8.488 -0.7835 -0.7467 -0.8281
 3643SOL     OW13466   6.475   3.919   8.869 -0.6864  0.2517 -0.3312
 3643SOL    HW113467   6.518   3.937   8.785  0.0433  0.3789  0.0769
 3643SOL    HW213468   6.445   3.828   8.861 -2.6460  0.9592 -1.6204
 3644SOL     OW13469   4.222   0.657   8.274 -0.3973 -0.8475  0.4952
 3644SOL    HW113470   4.192   0.702   8.194 -0.7730 -2.1534 -0.1034
 3644SOL    HW213471   4.142   0.629   8.317 -0.2322  0.6034  1.8002
 3645SOL     OW13472   8.991   3.378   2.781 -0.7303 -0.0030 -0.1507
 3645SOL    HW113473   9.066   3.370   2.721 -0.7107  1.3343 -0.3205
 3645SOL    HW213474   9.031   3.400   2.865 -0.9381  0.9819 -0.3022
 3646SOL     OW13475   1.245   5.552   0.177 -0.0628 -0.6242  0.3518
 3646SOL    HW113476   1.160   5.509   0.171 -0.3345 -0.3361  2.0155
 3646SOL    HW213477   1.295   5.500   0.240  1.5304 -1.6508 -1.6888
 3647SOL     OW13478   5.057   3.101   9.295 -0.2027 -0.2733 -0.5040
 3647SOL    HW113479   4.964   3.081   9.282  0.4918 -2.6166 -2.1540
 3647SOL    HW213480   5.082   3.149   9.215 -0.0348  0.5197  0.0226
 3648SOL     OW13481   6.922   5.619   4.574  0.2216 -0.3511 -0.2107
 3648SOL    HW113482   6.899   5.634   4.483  0.1370  1.1634  0.0392
 3648SOL    HW213483   6.842   5.588   4.615  0.5585 -2.1667 -0.8873
 3649SOL     OW13484   3.545   4.743   7.136  0.7093  0.3492  0.3059
 3649SOL    HW113485   3.530   4.837   7.143  1.4599  0.7010 -2.4093
 3649SOL    HW213486   3.597   4.721   7.213 -1.1745  1.7583  2.0541
 3650SOL     OW13487   7.943   4.736   0.408 -0.5254  0.0258 -0.2258
 3650SOL    HW113488   7.864   4.682   0.408 -0.1755 -0.4905 -0.6955
 3650SOL    HW213489   7.991   4.707   0.485  0.4329 -1.4806 -1.3740
 3651SOL     OW13490   8.301   3.026   0.111  0.1080  0.1817  0.0530
 3651SOL    HW113491   8.268   2.977   0.186  2.5279  0.2431  1.2031
 3651SOL    HW213492   8.373   2.973   0.077 -0.4102  0.5804 -1.7123
 3652SOL     OW13493   7.266   1.135   2.853 -0.2978 -0.4163 -0.2089
 3652SOL    HW113494   7.230   1.076   2.919 -1.0000 -0.0667 -0.2700
 3652SOL    HW213495   7.215   1.115   2.774  0.6657 -0.9662 -0.6967
 3653SOL     OW13496   6.811   1.593   7.323 -0.0131 -0.3364  0.4099
 3653SOL    HW113497   6.786   1.653   7.393 -1.2899 -0.1903 -0.1583
 3653SOL    HW213498   6.871   1.643   7.269  1.2439 -0.5571  1.5666
 3654SOL     OW13499   2.285   5.149   5.248 -0.6635 -0.2181  0.5376
 3654SOL    HW113500   2.372   5.182   5.226 -1.8102  1.4918 -1.5407
 3654SOL    HW213501   2.279   5.160   5.343  0.8827  0.8418  0.5387
 3655SOL     OW13502   5.281   9.436   9.006  0.0139  0.0674 -0.1481
 3655SOL    HW113503   5.256   9.430   8.913 -0.1684  1.2800 -0.1955
 3655SOL    HW213504   5.225   9.373   9.050  0.3559 -0.7837 -0.9156
 3656SOL     OW13505   6.576   7.274   9.502  0.2238 -0.1536 -0.4402
 3656SOL    HW113506   6.519   7.321   9.442  0.3293 -0.1086 -0.5060
 3656SOL    HW213507   6.620   7.209   9.447 -0.6144 -0.9575 -0.1716
 3657SOL     OW13508   1.161   1.552   4.177 -0.6382 -0.1354 -0.1690
 3657SOL    HW113509   1.099   1.483   4.201 -0.5502 -0.9099 -2.1356
 3657SOL    HW213510   1.106   1.621   4.139 -0.6060  0.4623  0.8337
 3658SOL     OW13511   0.896   3.897   1.513 -0.5576  0.3431 -0.3126
 3658SOL    HW113512   0.854   3.819   1.548  0.0557  0.0274 -0.2784
 3658SOL    HW213513   0.919   3.875   1.423 -2.1070  1.1476 -0.9243
 3659SOL     OW13514   6.890   1.087   1.402  0.2965 -0.0801  0.4955
 3659SOL    HW113515   6.969   1.101   1.453  0.3112  0.1075  0.4198
 3659SOL    HW213516   6.903   1.001   1.362  0.0559 -0.4561  1.2214
 3660SOL     OW13517   1.205   8.768   9.499  0.2844  0.5572  0.1969
 3660SOL    HW113518   1.263   8.803   9.566  0.0340  1.5943 -0.1143
 3660SOL    HW213519   1.256   8.698   9.458  0.2061 -0.4958  1.8493
 3661SOL     OW13520   8.657   3.046   1.713 -0.0154 -0.8536  0.4092
 3661SOL    HW113521   8.749   3.027   1.735  1.0259  2.2297 -0.9239
 3661SOL    HW213522   8.612   3.047   1.798  1.4792 -1.0254  1.2267
 3662SOL     OW13523   2.249   6.926   5.872 -0.1751  0.1233 -0.4079
 3662SOL    HW113524   2.322   6.963   5.922  0.8984 -0.9219 -1.1728
 3662SOL    HW213525   2.178   6.989   5.884  0.4740  0.5838  1.3157
 3663SOL     OW13526   5.639   8.229   8.572 -0.2985  0.5143 -0.2238
 3663SOL    HW113527   5.616   8.320   8.551 -1.8048 -0.2152 -1.9253
 3663SOL    HW213528   5.734   8.228   8.576 -0.2442  2.0353 -0.8661
 3664SOL     OW13529   6.201   4.192   4.955  0.1620  0.0105  0.1764
 3664SOL    HW113530   6.131   4.231   5.009  0.5568  0.0903  0.6357
 3664SOL    HW213531   6.165   4.109   4.926 -0.8251  0.8641 -1.1007
 3665SOL     OW13532   7.756   4.123   0.833 -0.2299  0.0792  0.0145
 3665SOL    HW113533   7.828   4.105   0.774  1.7118 -0.6300  2.5042
 3665SOL    HW213534   7.767   4.216   0.855 -0.8657  0.3062 -0.6133
 3666SOL     OW13535   4.548   6.214   9.924 -0.0228  0.1555 -0.0949
 3666SOL    HW113536   4.466   6.230   9.970 -0.8662  0.9810 -1.8612
 3666SOL    HW213537   4.575   6.300   9.892  0.8287 -0.3342 -0.7117
 3667SOL     OW13538   3.285   4.169   2.301  0.4565  0.7285 -0.2817
 3667SOL    HW113539   3.322   4.081   2.300  0.6849  0.7723  1.8454
 3667SOL    HW213540   3.190   4.155   2.302  0.4162  0.5783 -2.5652
 3668SOL     OW13541   5.860   0.043   6.445  0.1258 -0.3806  0.1370
 3668SOL    HW113542   5.793   0.106   6.420  0.6621  0.4024  0.6483
 3668SOL    HW213543   5.935   0.096   6.470  0.5546 -1.2189  0.6628
 3669SOL     OW13544   6.544   1.714   9.322  0.3311  0.4123 -0.5487
 3669SOL    HW113545   6.560   1.793   9.373 -1.4448  2.1590 -2.6237
 3669SOL    HW213546   6.569   1.642   9.381  2.1143  2.4744  1.3118
 3670SOL     OW13547   2.401   2.639   9.961  0.4455  0.6927  0.0406
 3670SOL    HW113548   2.436   2.552   9.944  1.3702  1.3302 -1.4098
 3670SOL    HW213549   2.307   2.631   9.944  0.2594 -0.3982  1.4991
 3671SOL     OW13550   5.639   5.547   9.972 -0.5513 -0.7870  0.4686
 3671SOL    HW113551   5.710   5.499  10.015 -1.3854 -1.2883  1.3169
 3671SOL    HW213552   5.658   5.639   9.990 -1.4276 -1.0245  2.8269
 3672SOL     OW13553   8.127   9.925   7.851 -0.2520 -0.3030  0.1673
 3672SOL    HW113554   8.147   9.907   7.759 -2.1152 -0.4213 -0.2189
 3672SOL    HW213555   8.077  10.006   7.850  2.1464  1.2844  1.3473
 3673SOL     OW13556   8.536   7.492   2.191  0.2118  0.0189  0.0305
 3673SOL    HW113557   8.514   7.423   2.254 -0.0397  0.4886  0.4638
 3673SOL    HW213558   8.535   7.448   2.106 -0.0794 -0.4837  0.2897
 3674SOL     OW13559   7.298   8.990   6.200 -0.3188  0.0792 -0.2149
 3674SOL    HW113560   7.384   9.005   6.159  0.5892 -0.5359  1.4455
 3674SOL    HW213561   7.240   8.971   6.126  0.5826  2.1439 -1.5227
 3675SOL     OW13562   1.568   6.256   6.758 -0.0753 -0.2032 -0.6167
 3675SOL    HW113563   1.480   6.293   6.755 -0.4176 -1.0292 -1.2072
 3675SOL    HW213564   1.570   6.203   6.838  0.7471  1.8588  0.7627
 3676SOL     OW13565   2.729   9.600   8.005 -0.5864 -0.0635 -0.3761
 3676SOL    HW113566   2.774   9.519   8.028  0.3024  0.6525  0.4334
 3676SOL    HW213567   2.771   9.667   8.059 -2.6718  0.6056  0.4657
 3677SOL     OW13568   5.520   2.145   1.813  0.4054 -0.0403  0.2664
 3677SOL    HW113569   5.437   2.189   1.798  1.1927  0.5698 -2.4926
 3677SOL    HW213570   5.575   2.211   1.856  0.4064  0.4703 -0.5283
 3678SOL     OW13571   0.166   5.821   0.342  0.5852 -0.0076  0.1952
 3678SOL    HW113572   0.198   5.839   0.254  1.9781  0.6988  0.8366
 3678SOL    HW213573   0.244   5.798   0.392 -0.2264 -0.6371  1.1879
 3679SOL     OW13574   6.700   2.362   0.444  0.0415  0.4084  0.4124
 3679SOL    HW113575   6.739   2.358   0.356  0.4597  0.7665  0.5794
 3679SOL    HW213576   6.608   2.383   0.429  0.2619  1.1395  0.0983
 3680SOL     OW13577   6.101   3.149   1.387  0.4552  0.5616  0.3730
 3680SOL    HW113578   6.137   3.237   1.375 -0.3117  0.5724 -2.0147
 3680SOL    HW213579   6.176   3.091   1.374  1.0115  0.8331  2.1748
 3681SOL     OW13580   9.744   2.819   9.482 -0.1800  0.4753  0.4004
 3681SOL    HW113581   9.742   2.837   9.388  0.3135 -0.3082  0.2299
 3681SOL    HW213582   9.749   2.905   9.523  0.6420  0.7896 -0.3348
 3682SOL     OW13583   1.666   4.117   1.300 -0.5184 -0.6905  0.4360
 3682SOL    HW113584   1.612   4.052   1.256 -1.7658  0.1930  0.6233
 3682SOL    HW213585   1.714   4.068   1.366  0.1110 -1.7503 -0.7933
 3683SOL     OW13586   7.546   1.002   3.382  0.8361  0.3536  0.0450
 3683SOL    HW113587   7.569   0.916   3.347  0.4644  1.1088 -2.1330
 3683SOL    HW213588   7.504   0.983   3.465  0.0501 -1.6326 -0.7621
 3684SOL     OW13589   0.103   7.116   1.128 -0.2346  0.4790  0.5573
 3684SOL    HW113590   0.058   7.057   1.067 -0.9816  1.0555  0.5371
 3684SOL    HW213591   0.050   7.196   1.126  1.0548  1.3345  0.1940
 3685SOL     OW13592   9.595   0.472   9.863 -0.1823 -0.2657 -0.0732
 3685SOL    HW113593   9.520   0.491   9.919 -0.4161  0.2781 -0.5640
 3685SOL    HW213594   9.652   0.416   9.917 -0.3425  0.3572  0.7514
 3686SOL     OW13595   7.028   1.971   5.060  0.6786 -0.3824 -0.1690
 3686SOL    HW113596   6.971   1.897   5.039 -0.2080  0.1019  0.5047
 3686SOL    HW213597   6.968   2.044   5.077  1.5593  0.5948 -1.1790
 3687SOL     OW13598   1.113   6.200   5.025  0.4239  0.4178 -0.0659
 3687SOL    HW113599   1.028   6.224   4.987  0.6655 -1.0049 -1.5946
 3687SOL    HW213600   1.137   6.119   4.979  2.6338  0.8470  0.3042
 3688SOL     OW13601   1.755   4.089   2.751 -0.0257 -0.8872 -0.5120
 3688SOL    HW113602   1.812   4.014   2.767  1.6444  0.6805  1.3042
 3688SOL    HW213603   1.815   4.164   2.746 -1.8015  0.6218  0.0287
 3689SOL     OW13604   8.906   6.430   8.791  0.8233  0.4196 -0.1092
 3689SOL    HW113605   8.929   6.484   8.866 -0.9608  0.3230  0.5364
 3689SOL    HW213606   8.846   6.485   8.739 -1.7127 -1.1815  1.0034
 3690SOL     OW13607   5.902   0.993   7.185 -0.0406 -0.5246 -0.0692
 3690SOL    HW113608   5.981   0.994   7.239 -0.7703  1.4537  0.9918
 3690SOL    HW213609   5.914   1.065   7.123 -0.8638 -0.4261 -0.1168
 3691SOL     OW13610   4.942   8.032   8.899 -0.1126 -0.1137  0.2575
 3691SOL    HW113611   4.879   8.101   8.922 -0.0641 -0.2782  0.9070
 3691SOL    HW213612   5.005   8.075   8.841  1.3198  1.0668  2.5870
 3692SOL     OW13613   8.804   9.856   6.763 -0.1871  0.2772 -0.0522
 3692SOL    HW113614   8.717   9.824   6.739 -0.8953  2.1435 -0.0528
 3692SOL    HW213615   8.787   9.928   6.824  1.3886  0.2441  0.4431
 3693SOL     OW13616   0.435   3.142   2.775  0.6076  0.4001 -0.5837
 3693SOL    HW113617   0.452   3.060   2.822  0.0266  0.1826 -0.7476
 3693SOL    HW213618   0.436   3.209   2.844 -1.9402 -0.1280  0.0406
 3694SOL     OW13619   6.606   5.137   9.376 -0.3561  0.0221  0.1919
 3694SOL    HW113620   6.673   5.205   9.369 -0.6977  0.5595  1.9077
 3694SOL    HW213621   6.654   5.055   9.365  0.3021  0.4614 -0.2859
 3695SOL     OW13622   6.140   4.154   4.620  0.3833 -0.1396 -0.0577
 3695SOL    HW113623   6.203   4.213   4.661 -0.1449  0.1476  0.3398
 3695SOL    HW213624   6.060   4.163   4.672 -0.9044  1.6398 -2.2699
 3696SOL     OW13625   1.089   6.228   3.712 -0.5016  0.2322  0.2185
 3696SOL    HW113626   1.033   6.293   3.756  0.4883  0.5862  0.9524
 3696SOL    HW213627   1.175   6.238   3.752 -0.1781 -1.1070 -0.1154
 3697SOL     OW13628  10.106  10.030   6.021 -0.3465  1.0501  0.2317
 3697SOL    HW113629  10.117  10.033   5.925 -0.7627  3.3486  0.2391
 3697SOL    HW213630  10.055   9.951   6.036  0.5013  0.1639 -1.3668
 3698SOL     OW13631   5.400   5.014   4.506 -0.4920  0.2316  0.0366
 3698SOL    HW113632   5.321   5.005   4.452 -0.7984 -1.2888  0.6949
 3698SOL    HW213633   5.426   4.924   4.525  1.5869  0.7211 -0.4155
 3699SOL     OW13634   8.660  10.056   1.356 -0.1741 -0.2111  0.4508
 3699SOL    HW113635   8.635  10.099   1.274 -0.3208 -1.6026 -0.2476
 3699SOL    HW213636   8.665   9.963   1.333  0.5599 -0.5167  1.8353
 3700SOL     OW13637   6.271   0.083   5.252  0.3740  0.3131 -0.1346
 3700SOL    HW113638   6.247   0.126   5.334  0.2702  0.3188 -0.1674
 3700SOL    HW213639   6.189   0.047   5.219  0.6862 -1.1426  0.6195
 3701SOL     OW13640   7.768   3.147   9.106 -0.2756 -0.1089  0.4910
 3701SOL    HW113641   7.793   3.230   9.065  0.5515 -1.1574 -1.1702
 3701SOL    HW213642   7.810   3.149   9.192  1.2882  0.3835 -0.2682
 3702SOL     OW13643   4.540   5.868   1.296 -0.4669 -0.2224  0.0202
 3702SOL    HW113644   4.600   5.805   1.335 -0.8802 -1.5248 -1.3758
 3702SOL    HW213645   4.476   5.887   1.364  0.7029  0.0837  1.0431
 3703SOL     OW13646   6.567   8.983   3.427 -0.7327  0.0201  0.5381
 3703SOL    HW113647   6.655   8.963   3.396 -0.5605 -0.7944  1.5208
 3703SOL    HW213648   6.573   9.070   3.466  0.1878 -0.9658  2.6784
 3704SOL     OW13649   1.614   6.058   2.942  0.1089 -0.3263  0.6723
 3704SOL    HW113650   1.595   5.976   2.898  0.0296 -0.0863  0.2519
 3704SOL    HW213651   1.691   6.039   2.997  1.4561 -0.1313 -1.0815
 3705SOL     OW13652   8.511   4.743   8.478 -0.2435  0.2213 -0.1118
 3705SOL    HW113653   8.483   4.697   8.399  0.4757 -0.3114 -0.0602
 3705SOL    HW213654   8.601   4.715   8.491 -0.0970  0.9404  0.4409
 3706SOL     OW13655   2.330   0.564   5.634 -0.1361 -0.0226  0.0976
 3706SOL    HW113656   2.340   0.614   5.715  1.2562  1.6915 -1.1019
 3706SOL    HW213657   2.254   0.603   5.591 -2.3004 -2.4092  1.5673
 3707SOL     OW13658   4.178   9.405   6.406  0.6134 -0.1979  0.7007
 3707SOL    HW113659   4.172   9.494   6.442  2.0802 -0.4032  1.4958
 3707SOL    HW213660   4.191   9.349   6.483  2.7332 -0.7626 -0.0492
 3708SOL     OW13661   0.373   4.468   2.031 -0.4727  1.2388  0.7992
 3708SOL    HW113662   0.344   4.460   1.940  2.9948  1.0708 -0.3499
 3708SOL    HW213663   0.363   4.380   2.067 -2.5904  1.4709  0.8715
 3709SOL     OW13664   2.595   4.216  10.120 -0.9186  0.0006  0.3391
 3709SOL    HW113665   2.546   4.280  10.172 -1.1262 -1.5076  2.0229
 3709SOL    HW213666   2.643   4.164  10.184  1.1347 -0.0160 -1.1568
 3710SOL     OW13667   6.749   2.728   6.747  0.8337 -0.3030  0.1453
 3710SOL    HW113668   6.807   2.733   6.670  0.2944  0.1040 -0.2354
 3710SOL    HW213669   6.793   2.781   6.813 -0.0386  1.5807 -0.7623
 3711SOL     OW13670   9.887   7.116   1.318 -0.2206  0.3729  0.1722
 3711SOL    HW113671   9.915   7.148   1.232  1.1699 -1.3565 -0.0475
 3711SOL    HW213672   9.941   7.039   1.334 -2.0048 -0.6353  1.6240
 3712SOL     OW13673   8.749   7.265   1.416  0.6215 -0.1643  0.3540
 3712SOL    HW113674   8.733   7.183   1.463  0.9963 -0.1807  0.4505
 3712SOL    HW213675   8.732   7.334   1.481  1.7752 -0.2027  0.7028
 3713SOL     OW13676   0.571   3.449   0.560 -0.7111  0.3283 -0.7828
 3713SOL    HW113677   0.649   3.447   0.504 -0.5270 -0.5887 -0.4940
 3713SOL    HW213678   0.539   3.539   0.553  1.0383  1.0379  0.0037
 3714SOL     OW13679   1.140   6.913   3.221  0.2530 -0.2363  0.7302
 3714SOL    HW113680   1.111   6.977   3.156 -0.9546 -1.7609 -0.2670
 3714SOL    HW213681   1.209   6.958   3.270  0.1522  1.4512 -0.6335
 3715SOL     OW13682   8.861   3.360   6.383  0.1823 -0.3143  0.1606
 3715SOL    HW113683   8.868   3.282   6.438 -0.1101 -0.7007 -0.3497
 3715SOL    HW213684   8.888   3.432   6.440  0.9343 -0.8460  0.4858
 3716SOL     OW13685   1.718   8.767   3.067  0.0676 -0.1339  0.5005
 3716SOL    HW113686   1.705   8.681   3.027 -0.6764 -0.5208  1.5702
 3716SOL    HW213687   1.798   8.758   3.118  0.3441  0.0046  0.0974
 3717SOL     OW13688   9.929   9.359   0.959  0.0103 -0.5527 -0.0353
 3717SOL    HW113689   9.888   9.280   0.924 -0.7280  0.0626 -0.5580
 3717SOL    HW213690   9.863   9.427   0.949  0.2501 -0.0856  1.3766
 3718SOL     OW13691   8.114   8.201   6.747 -0.1786  0.0514  0.3575
 3718SOL    HW113692   8.080   8.218   6.659 -2.9115  0.6841  1.4772
 3718SOL    HW213693   8.117   8.287   6.789  1.2178 -0.2313  0.8568
 3719SOL     OW13694   8.001   6.587   1.060 -0.6986  0.2407 -0.4841
 3719SOL    HW113695   8.057   6.665   1.059 -1.6079  0.9017 -0.0126
 3719SOL    HW213696   7.990   6.565   0.967  0.5923 -0.0821 -0.5714
 3720SOL     OW13697   6.267   0.384   7.973  0.0291 -0.3359 -0.3344
 3720SOL    HW113698   6.289   0.364   8.064  0.1906 -1.8842 -0.7019
 3720SOL    HW213699   6.319   0.461   7.952 -0.1845  0.1781  0.9496
 3721SOL     OW13700   5.160   6.515   8.124  0.2651 -0.0028 -0.0341
 3721SOL    HW113701   5.206   6.587   8.167 -0.2694  1.2044 -1.4201
 3721SOL    HW213702   5.227   6.473   8.070  0.5082 -0.3696  0.5475
 3722SOL     OW13703   4.129   0.214   4.685  0.0949 -0.6491 -0.0060
 3722SOL    HW113704   4.173   0.150   4.629 -0.4200  0.3271 -1.5576
 3722SOL    HW213705   4.156   0.191   4.774  2.0413 -1.3703 -0.7621
 3723SOL     OW13706   4.198   7.083   9.091 -0.5302 -0.0805 -0.1047
 3723SOL    HW113707   4.131   7.150   9.106  0.1168  0.1461  1.9877
 3723SOL    HW213708   4.261   7.123   9.032 -0.1111  1.2157  1.1937
 3724SOL     OW13709   3.297   4.821   8.627 -0.2914 -0.0858 -0.0920
 3724SOL    HW113710   3.370   4.784   8.577  1.2982  1.1505  1.2705
 3724SOL    HW213711   3.277   4.904   8.583  0.1187  0.2849  0.4128
 3725SOL     OW13712   9.236   0.524   5.170 -0.4142 -0.1705 -0.0744
 3725SOL    HW113713   9.188   0.606   5.154  2.5974  1.6129 -0.4827
 3725SOL    HW213714   9.221   0.504   5.262 -1.2996  0.7782 -0.0084
 3726SOL     OW13715  10.069   9.848   1.778  0.0764 -0.3005 -0.6072
 3726SOL    HW113716  10.098   9.849   1.687  0.0459 -0.2152 -0.6164
 3726SOL    HW213717  10.111   9.771   1.816  0.2480 -0.2263 -0.6431
 3727SOL     OW13718   7.998   3.291   6.577 -0.5396  0.3459  0.2172
 3727SOL    HW113719   7.974   3.381   6.596 -1.8884 -0.1049  0.7048
 3727SOL    HW213720   7.926   3.258   6.523  0.5146 -0.0838 -0.9289
 3728SOL     OW13721   1.655   7.807   6.756 -0.2463  0.1074 -0.4649
 3728SOL    HW113722   1.582   7.757   6.720 -0.6343  0.5025 -0.2195
 3728SOL    HW213723   1.651   7.892   6.712  0.9634 -0.3678 -1.5647
 3729SOL     OW13724   6.887   9.403   2.085 -0.0506  0.1590  0.1317
 3729SOL    HW113725   6.795   9.386   2.063 -0.6378 -0.5558  2.8805
 3729SOL    HW213726   6.936   9.333   2.043 -0.8562  0.0876 -0.6967
 3730SOL     OW13727   4.683   2.257   3.805 -0.1308 -0.1962  0.2907
 3730SOL    HW113728   4.606   2.314   3.814  0.2143  0.5606 -1.3671
 3730SOL    HW213729   4.740   2.283   3.877 -0.2247  1.1927 -0.1116
 3731SOL     OW13730   5.339   1.741   5.862 -0.2041 -0.1064  0.0794
 3731SOL    HW113731   5.393   1.751   5.941 -0.7548  0.1521  0.4256
 3731SOL    HW213732   5.283   1.666   5.880  0.5180 -0.8091 -0.5622
 3732SOL     OW13733   4.669   2.075   0.256 -0.2413  0.5064  0.4625
 3732SOL    HW113734   4.607   2.048   0.324 -0.5866 -0.5843 -0.2689
 3732SOL    HW213735   4.753   2.082   0.301 -0.6969  0.9842  1.2491
 3733SOL     OW13736   4.794  10.097   7.005  0.3005  0.1169 -0.4152
 3733SOL    HW113737   4.883  10.072   7.029  0.6843  1.4978 -0.3340
 3733SOL    HW213738   4.802  10.186   6.971 -1.4403  1.3857  2.3237
 3734SOL     OW13739   5.917   5.860   9.400  0.2183 -0.2372 -0.1808
 3734SOL    HW113740   5.991   5.913   9.369  0.5476 -0.7296 -0.2441
 3734SOL    HW213741   5.957   5.797   9.461 -0.2032 -0.2727  0.0609
 3735SOL     OW13742   5.700   2.306   1.137 -0.0987 -1.1159 -0.4675
 3735SOL    HW113743   5.630   2.317   1.073  2.1159  0.1377 -2.7344
 3735SOL    HW213744   5.665   2.345   1.217 -1.5652  0.5605 -1.8781
 3736SOL     OW13745   0.563   7.255   1.923 -0.3126 -0.1230  0.3330
 3736SOL    HW113746   0.488   7.285   1.975 -0.1780 -0.2734  0.6166
 3736SOL    HW213747   0.524   7.215   1.846 -0.4809  1.2388 -0.2978
 3737SOL     OW13748   6.363   9.707   5.372 -0.0194  0.2690 -0.4341
 3737SOL    HW113749   6.319   9.642   5.317 -2.0417  1.3196 -0.0861
 3737SOL    HW213750   6.343   9.791   5.331 -2.1433  1.1361  2.2274
 3738SOL     OW13751   2.471   9.197   7.928  0.7773 -0.7265 -0.0348
 3738SOL    HW113752   2.497   9.270   7.872 -1.8990  0.4854  0.1968
 3738SOL    HW213753   2.550   9.173   7.976  1.4029  2.9803  0.9253
 3739SOL     OW13754   4.005   3.782   4.560 -0.4065  0.0065 -0.0998
 3739SOL    HW113755   4.055   3.825   4.490 -0.9649 -0.6477 -0.9082
 3739SOL    HW213756   4.061   3.709   4.588 -0.3856 -0.0039 -0.1678
 3740SOL     OW13757   5.468   2.477  10.180 -0.4049 -0.4438 -0.1272
 3740SOL    HW113758   5.439   2.410  10.240 -0.2743 -0.4770 -0.0998
 3740SOL    HW213759   5.416   2.554  10.202 -0.4009 -0.4736 -0.0146
 3741SOL     OW13760   9.126   7.485   5.499 -0.4067 -0.5009  0.2559
 3741SOL    HW113761   9.207   7.528   5.528 -0.6847 -0.1977  0.5875
 3741SOL    HW213762   9.123   7.501   5.405 -0.0445 -0.5684  0.2339
 3742SOL     OW13763   3.922   4.172   1.758 -0.4592 -0.0909 -0.1255
 3742SOL    HW113764   3.904   4.078   1.763 -0.6994 -0.1508 -1.9552
 3742SOL    HW213765   3.848   4.213   1.803 -1.1704 -0.7067 -0.7226
 3743SOL     OW13766   3.572   7.409   6.364 -0.4361  0.3648 -0.3901
 3743SOL    HW113767   3.573   7.439   6.455 -1.6897  0.8023 -0.5071
 3743SOL    HW213768   3.634   7.336   6.362 -1.7440 -0.8374  1.2585
 3744SOL     OW13769   4.679   8.569   9.342  0.5623  0.0612 -0.2755
 3744SOL    HW113770   4.756   8.570   9.398 -0.3253  1.9302  0.9994
 3744SOL    HW213771   4.633   8.651   9.364 -2.2140 -1.4141 -0.3637
 3745SOL     OW13772   0.457   9.905   1.277  0.5651 -0.2217  0.1357
 3745SOL    HW113773   0.478   9.815   1.303  1.5299 -0.2330 -0.6767
 3745SOL    HW213774   0.383   9.896   1.216  1.8636 -0.6187 -1.4036
 3746SOL     OW13775   8.328   2.707   9.683  0.1997  0.3292  0.0887
 3746SOL    HW113776   8.316   2.617   9.652 -0.5111  0.2159  0.6805
 3746SOL    HW213777   8.420   2.726   9.667  0.0802 -0.0909 -1.1381
 3747SOL     OW13778   5.110   6.126   7.171 -0.0010 -0.1840  0.4189
 3747SOL    HW113779   5.091   6.033   7.188 -2.0731  0.2636  0.7276
 3747SOL    HW213780   5.195   6.126   7.129 -0.4387 -2.3317 -0.5351
 3748SOL     OW13781   9.110   0.034   0.581  0.5343 -0.1573 -0.0016
 3748SOL    HW113782   9.075  -0.017   0.654  1.2977  0.0166  0.4956
 3748SOL    HW213783   9.205   0.017   0.584  0.7695  1.1410  0.0644
 3749SOL     OW13784   0.020   2.417   5.029 -0.3635 -0.1775  0.0555
 3749SOL    HW113785   0.082   2.486   5.006 -0.9162 -0.2142 -1.6215
 3749SOL    HW213786  -0.053   2.429   4.968 -0.3570 -2.4097 -0.4371
 3750SOL     OW13787   1.289   7.606   6.999  1.0030 -0.0008 -0.1487
 3750SOL    HW113788   1.370   7.621   7.047  1.1329 -1.1383  0.0176
 3750SOL    HW213789   1.260   7.693   6.971  2.0132  0.4572  0.2173
 3751SOL     OW13790   9.050   8.857   1.667  0.3035 -0.0535 -0.4247
 3751SOL    HW113791   8.968   8.811   1.648 -1.1307  1.7469  1.1503
 3751SOL    HW213792   9.049   8.934   1.609 -0.0726  0.9840  0.9153
 3752SOL     OW13793   9.987   9.705   9.128 -0.2333  0.0678 -0.4358
 3752SOL    HW113794   9.969   9.629   9.183 -3.8695  0.5547 -0.8555
 3752SOL    HW213795  10.044   9.761   9.182 -0.5375 -1.2516  1.2821
 3753SOL     OW13796   8.525   5.067   8.101 -0.6324 -0.2554 -0.0253
 3753SOL    HW113797   8.614   5.100   8.113 -0.5018 -0.8244  0.6087
 3753SOL    HW213798   8.485   5.071   8.188 -0.5528 -1.8921  0.1120
 3754SOL     OW13799   5.448   0.765   8.288 -0.0152  0.3098 -0.1064
 3754SOL    HW113800   5.406   0.845   8.321 -1.7877 -0.5318 -0.2607
 3754SOL    HW213801   5.457   0.780   8.194 -0.0259  0.4771 -0.0820
 3755SOL     OW13802   4.731   9.024   9.692  0.0417  0.2565  0.2188
 3755SOL    HW113803   4.815   9.012   9.737 -0.3243  0.8494  1.0769
 3755SOL    HW213804   4.673   8.959   9.733  0.1938 -0.4670 -0.6885
 3756SOL     OW13805   4.081   6.823   9.065 -0.2496  0.2646  0.6876
 3756SOL    HW113806   4.106   6.914   9.081  0.7898  0.0417  0.3806
 3756SOL    HW213807   4.164   6.775   9.068 -0.4029 -0.2665 -2.0231
 3757SOL     OW13808   7.582   2.105   3.328 -0.1134  0.5962 -0.1653
 3757SOL    HW113809   7.669   2.092   3.366  0.2155  1.0344 -0.7491
 3757SOL    HW213810   7.526   2.130   3.402 -0.0345 -0.9340  0.4203
 3758SOL     OW13811   0.510   5.594   1.020 -0.0874 -0.1308 -0.5491
 3758SOL    HW113812   0.479   5.675   1.060 -0.3523 -1.3473  1.7824
 3758SOL    HW213813   0.570   5.622   0.951 -0.9629  2.0573 -0.4441
 3759SOL     OW13814   4.531   0.141   8.258  0.2429  0.1454 -0.1825
 3759SOL    HW113815   4.527   0.196   8.336 -0.6739 -0.2595  0.0648
 3759SOL    HW213816   4.452   0.164   8.209  0.1790 -0.4924 -0.3769
 3760SOL     OW13817   8.723   3.890   8.170  0.1733  0.2690  0.3323
 3760SOL    HW113818   8.809   3.867   8.135  0.1709  0.6360  0.0839
 3760SOL    HW213819   8.666   3.892   8.093 -0.2766 -0.9772  0.6188
 3761SOL     OW13820   1.553   1.392   2.418 -0.3976 -0.3764  0.2345
 3761SOL    HW113821   1.594   1.342   2.347 -3.5213 -1.8033 -0.6546
 3761SOL    HW213822   1.585   1.352   2.498  0.1991 -1.2630 -0.4414
 3762SOL     OW13823   4.628   4.529   7.158 -0.3397 -0.0289 -0.7228
 3762SOL    HW113824   4.685   4.598   7.124 -1.2767  2.2707  2.1976
 3762SOL    HW213825   4.542   4.548   7.120 -0.4970  0.0935 -0.3000
 3763SOL     OW13826   1.768   8.874   6.680 -0.3772  0.1016 -0.2160
 3763SOL    HW113827   1.832   8.803   6.687 -2.1171 -1.5691 -0.9784
 3763SOL    HW213828   1.781   8.909   6.592  0.4804  0.7611  0.1598
 3764SOL     OW13829   0.462   2.427   6.838  0.1307  0.1835  0.0209
 3764SOL    HW113830   0.372   2.453   6.817  0.6392  0.4068 -2.0078
 3764SOL    HW213831   0.468   2.335   6.813  0.4964  0.1893  0.0756
 3765SOL     OW13832   8.068   7.942   5.736 -0.1316 -1.0531  0.5182
 3765SOL    HW113833   8.131   7.885   5.692  0.1925 -0.8107  0.6665
 3765SOL    HW213834   8.079   7.925   5.829  1.8530  1.1734  0.7394
 3766SOL     OW13835  10.036   7.672   5.363 -0.2608 -0.1368 -0.0969
 3766SOL    HW113836  10.087   7.753   5.359 -0.9630  0.3242  0.1738
 3766SOL    HW213837  10.099   7.603   5.339  0.7122  0.3166  1.0790
 3767SOL     OW13838   4.424   0.096   2.680 -0.0974  0.3464  0.0660
 3767SOL    HW113839   4.344   0.045   2.664  0.4360 -0.4502 -0.0830
 3767SOL    HW213840   4.397   0.163   2.742 -0.5488 -0.8158  1.1437
 3768SOL     OW13841   6.796   7.267   6.365 -0.3481  0.2906 -0.1847
 3768SOL    HW113842   6.735   7.339   6.381  0.8083  1.2692 -0.1286
 3768SOL    HW213843   6.870   7.285   6.422  0.7294  0.0268 -1.4779
 3769SOL     OW13844   5.067   1.865   3.216 -0.0060 -0.1659 -0.0370
 3769SOL    HW113845   4.971   1.861   3.219 -0.1638 -0.0526 -3.4883
 3769SOL    HW213846   5.089   1.949   3.256 -1.3618 -0.0052  0.4104
 3770SOL     OW13847   2.503   7.658   3.545  0.1464  0.3775 -0.4345
 3770SOL    HW113848   2.425   7.653   3.491 -0.0529 -0.9276 -0.0446
 3770SOL    HW213849   2.490   7.593   3.614  0.6471  1.6107  0.8743
 3771SOL     OW13850   5.977   8.213   1.214 -0.5763  0.0053 -0.3143
 3771SOL    HW113851   5.944   8.299   1.236 -0.6518 -0.0939 -0.0392
 3771SOL    HW213852   5.905   8.169   1.169 -0.8737 -0.2723  0.4373
 3772SOL     OW13853   3.138   6.173   6.310 -0.1670 -0.4334  0.2674
 3772SOL    HW113854   3.158   6.182   6.403  0.3206 -1.6156  0.2883
 3772SOL    HW213855   3.059   6.119   6.307 -0.0433 -0.6010 -0.0081
 3773SOL     OW13856   3.737   6.015   0.785  0.3651  0.5977 -0.1731
 3773SOL    HW113857   3.739   6.077   0.712 -2.0499  0.1210 -0.6971
 3773SOL    HW213858   3.646   5.985   0.788  0.2422  1.1301  3.4742
 3774SOL     OW13859   7.987   2.936   4.995  0.3210  0.4620  0.2071
 3774SOL    HW113860   7.913   2.988   5.027 -0.3875 -0.9059  0.8191
 3774SOL    HW213861   7.995   2.865   5.058  2.0878  0.5257  0.0743
 3775SOL     OW13862   8.223   1.885   1.739 -0.3411  0.3131 -0.2415
 3775SOL    HW113863   8.138   1.929   1.743 -0.6677 -0.2488 -0.9108
 3775SOL    HW213864   8.282   1.942   1.790 -0.7384  1.5848 -1.1590
 3776SOL     OW13865   1.936   0.353   2.129 -0.3667 -0.1335 -0.0705
 3776SOL    HW113866   1.922   0.446   2.146  0.1178 -0.1371  0.3795
 3776SOL    HW213867   1.875   0.308   2.187  2.2725 -0.1814  2.8327
 3777SOL     OW13868   4.750   7.066   3.454  0.3959 -0.0751  0.2548
 3777SOL    HW113869   4.756   7.155   3.419  0.2658 -0.1058  0.1532
 3777SOL    HW213870   4.674   7.068   3.512  0.2796 -0.1676  0.1070
 3778SOL     OW13871   0.471  10.106   7.898  0.2885 -0.2494  0.4557
 3778SOL    HW113872   0.483  10.090   7.992 -1.3115 -1.6424  0.4591
 3778SOL    HW213873   0.483  10.020   7.858  1.2851  0.3982 -0.6683
 3779SOL     OW13874   3.145   4.809   9.190 -0.5148 -0.1721 -0.1492
 3779SOL    HW113875   3.196   4.728   9.199 -0.2151  0.0065 -0.2143
 3779SOL    HW213876   3.193   4.873   9.243  0.1018  0.3536 -1.3091
 3780SOL     OW13877   3.324   6.522   1.670 -0.1233 -0.6348 -0.1957
 3780SOL    HW113878   3.296   6.536   1.761 -0.0559  1.4550 -0.4691
 3780SOL    HW213879   3.244   6.493   1.626 -0.5075 -0.2401  0.2255
 3781SOL     OW13880   7.262   1.528   9.007  0.1904 -0.4989 -0.1735
 3781SOL    HW113881   7.237   1.440   8.978 -0.1176 -0.6945  0.6627
 3781SOL    HW213882   7.196   1.586   8.968  0.9396 -0.5252 -1.5035
 3782SOL     OW13883   0.050   7.585   0.952  0.5669 -0.7829 -0.3690
 3782SOL    HW113884   0.086   7.628   1.030  0.4069  0.8081 -1.1522
 3782SOL    HW213885  -0.045   7.594   0.961  0.5231 -1.1748 -0.4250
 3783SOL     OW13886   8.702   7.758   5.521 -0.0242 -0.3167 -0.3700
 3783SOL    HW113887   8.662   7.710   5.593 -0.6464  0.1234 -0.4144
 3783SOL    HW213888   8.729   7.690   5.459 -1.0162 -0.6151 -0.4926
 3784SOL     OW13889   8.606   7.350   7.221  0.2001 -0.0183 -0.2736
 3784SOL    HW113890   8.541   7.330   7.154 -0.5649  1.2130  0.0906
 3784SOL    HW213891   8.648   7.266   7.240  1.5565 -0.1381 -3.4800
 3785SOL     OW13892   9.911   2.657   2.506 -0.2537 -0.4642  0.1215
 3785SOL    HW113893   9.863   2.621   2.431  1.2943 -0.9490 -0.6513
 3785SOL    HW213894   9.875   2.610   2.582 -5.3867  3.4856  0.4066
 3786SOL     OW13895   6.730   6.368   2.355  0.0646 -0.3324  0.3227
 3786SOL    HW113896   6.798   6.300   2.353  0.3206 -0.0673 -0.0570
 3786SOL    HW213897   6.684   6.352   2.437 -1.2764 -2.3469 -0.7791
 3787SOL     OW13898   1.278   3.206   0.336 -0.0624  0.4642 -0.2612
 3787SOL    HW113899   1.367   3.174   0.347 -0.8176 -2.2266 -1.5451
 3787SOL    HW213900   1.279   3.250   0.251  0.0168  0.2958 -0.3479
 3788SOL     OW13901   2.843   4.960   3.599 -0.2936  0.7670 -0.4509
 3788SOL    HW113902   2.775   5.020   3.570 -1.6999  0.5279  2.2661
 3788SOL    HW213903   2.827   4.880   3.549 -1.7697  0.8345 -0.0878
 3789SOL     OW13904   1.535   3.907   0.655  0.1038 -0.1885  0.1872
 3789SOL    HW113905   1.549   3.871   0.742 -0.0483  1.2889  0.8437
 3789SOL    HW213906   1.622   3.936   0.627  0.1139 -0.4538 -0.0536
 3790SOL     OW13907   5.921   6.417   0.001  0.0753 -0.2245  0.1371
 3790SOL    HW113908   5.856   6.426  -0.068  1.7286 -1.1965 -1.5844
 3790SOL    HW213909   5.957   6.505   0.012  0.3001 -0.2028 -0.7483
 3791SOL     OW13910   3.972   6.869   7.558  0.3950  0.1597  0.3055
 3791SOL    HW113911   3.931   6.905   7.480 -0.5527  0.0199  0.7293
 3791SOL    HW213912   3.907   6.880   7.627 -0.2375 -2.9624  0.3205
 3792SOL     OW13913   7.677   4.183   3.936  0.6570  0.2551 -0.4154
 3792SOL    HW113914   7.753   4.168   3.880  1.9409 -1.4696  1.7136
 3792SOL    HW213915   7.659   4.098   3.976 -1.8479  0.8498 -0.1620
 3793SOL     OW13916   9.029   2.452   3.230 -0.4627 -0.2466  0.3579
 3793SOL    HW113917   9.066   2.477   3.314 -0.3717 -2.4317  0.9857
 3793SOL    HW213918   9.051   2.360   3.220 -1.2596 -0.2470 -1.6485
 3794SOL     OW13919   3.092   8.823   1.853  0.3661  0.1071 -0.4027
 3794SOL    HW113920   3.083   8.916   1.833 -1.2680  0.1445  0.4003
 3794SOL    HW213921   3.181   8.801   1.827  1.0155  2.0671  0.0915
 3795SOL     OW13922   4.266   5.889   0.752  0.0541  0.0074 -0.0396
 3795SOL    HW113923   4.185   5.933   0.777  0.5687  0.8325  0.1806
 3795SOL    HW213924   4.333   5.926   0.810  0.4039 -1.3960  0.4626
 3796SOL     OW13925   6.541   8.652   5.500 -0.1489 -0.5474 -0.0348
 3796SOL    HW113926   6.485   8.600   5.558 -0.2681  0.7505  1.0546
 3796SOL    HW213927   6.480   8.703   5.447 -0.0197  0.0774  0.4115
 3797SOL     OW13928   8.031   3.806  10.159 -0.5146 -0.5355 -0.4289
 3797SOL    HW113929   8.028   3.876  10.094 -0.0805 -1.4281 -1.4185
 3797SOL    HW213930   8.083   3.843  10.230  0.1796 -0.0465 -1.1772
 3798SOL     OW13931   0.508   4.401   8.244  0.0700  0.1533  0.2369
 3798SOL    HW113932   0.467   4.319   8.219  0.4859  0.0667 -0.1600
 3798SOL    HW213933   0.489   4.409   8.338 -2.2977  0.9591 -0.2723
 3799SOL     OW13934   6.319   8.450   5.231  0.2094  0.0625  0.2879
 3799SOL    HW113935   6.263   8.390   5.280  0.5980 -0.8083 -0.3249
 3799SOL    HW213936   6.261   8.490   5.167 -0.1023  0.5341  0.8554
 3800SOL     OW13937   2.446   4.465   5.746  0.1957  0.1893 -0.4496
 3800SOL    HW113938   2.478   4.554   5.758  1.3269 -0.0889 -1.2462
 3800SOL    HW213939   2.375   4.472   5.682 -0.5715  0.6700  0.4468
 3801SOL     OW13940   0.638   9.911   5.968 -0.1519  0.0950  0.4898
 3801SOL    HW113941   0.627   9.822   5.999 -1.0712  0.8945  2.5144
 3801SOL    HW213942   0.553   9.953   5.982  0.8891  1.8937  1.6347
 3802SOL     OW13943   3.030   3.945   7.546 -0.2254  0.1802  0.0317
 3802SOL    HW113944   3.006   4.036   7.528  0.3950 -0.1165 -2.4909
 3802SOL    HW213945   3.109   3.930   7.493 -0.6114 -1.9801  0.0315
 3803SOL     OW13946   1.761   5.157   3.209  0.5355 -0.1872  0.3269
 3803SOL    HW113947   1.781   5.066   3.186  0.6630 -0.1460  0.2679
 3803SOL    HW213948   1.763   5.203   3.125  0.6713 -0.0946  0.3792
 3804SOL     OW13949   5.714   8.866   4.264  0.6346  0.2628 -0.1089
 3804SOL    HW113950   5.780   8.821   4.317  1.4770  1.6483  0.0396
 3804SOL    HW213951   5.762   8.895   4.186 -0.2071 -0.2740 -0.8241
 3805SOL     OW13952   9.474   2.463   3.655  0.0535 -0.1002  0.6800
 3805SOL    HW113953   9.395   2.439   3.704  0.1684  1.2428  1.5834
 3805SOL    HW213954   9.464   2.422   3.570 -2.1955  1.0170  0.3769
 3806SOL     OW13955   1.961   0.404   7.734  0.2207  0.1291  0.0907
 3806SOL    HW113956   1.989   0.477   7.788  2.1518 -0.3557 -0.2174
 3806SOL    HW213957   1.903   0.443   7.669 -1.9808  0.7378  2.3365
 3807SOL     OW13958   0.535   7.183   6.898 -0.2095 -0.2024  0.3887
 3807SOL    HW113959   0.507   7.159   6.810  0.1604  2.1449 -0.3953
 3807SOL    HW213960   0.630   7.175   6.897 -0.3515 -2.6237  1.3702
 3808SOL     OW13961   2.519   6.847   5.735  0.5800  0.2138 -0.1630
 3808SOL    HW113962   2.589   6.813   5.790  0.3554 -0.6772 -0.4162
 3808SOL    HW213963   2.482   6.920   5.786 -0.1671 -1.1183  1.2383
 3809SOL     OW13964   2.357   8.262   6.416  0.2066 -0.0836  0.2452
 3809SOL    HW113965   2.399   8.188   6.373  1.2172 -0.2897  1.5435
 3809SOL    HW213966   2.293   8.294   6.352  1.0216 -0.9464 -1.0321
 3810SOL     OW13967   1.440   0.728   9.344 -0.2148 -0.3698  0.3709
 3810SOL    HW113968   1.397   0.800   9.299 -0.4726  0.1228  1.3965
 3810SOL    HW213969   1.519   0.710   9.292 -0.8326 -0.2297 -0.6194
 3811SOL     OW13970   7.458   9.815   5.223 -0.1837  0.0812  0.0883
 3811SOL    HW113971   7.490   9.893   5.177 -0.2869  0.3090  0.4015
 3811SOL    HW213972   7.467   9.837   5.316 -0.7457 -0.0630  0.1781
 3812SOL     OW13973   4.341   3.779   5.711 -0.5015  0.3987 -0.2965
 3812SOL    HW113974   4.263   3.767   5.765  0.9361  2.5471  2.3771
 3812SOL    HW213975   4.383   3.693   5.711 -2.2278 -0.4621 -0.7400
 3813SOL     OW13976   6.474   5.525  10.032 -0.1156  0.3989 -0.0351
 3813SOL    HW113977   6.461   5.460  10.101  0.1576  1.9151  1.4792
 3813SOL    HW213978   6.475   5.474   9.951  1.1744 -1.6177  1.1978
 3814SOL     OW13979   1.169   7.900   6.169  0.6617  0.2413  0.6219
 3814SOL    HW113980   1.190   7.826   6.226  0.6758 -1.1012 -1.0831
 3814SOL    HW213981   1.153   7.973   6.229  0.9431 -1.0651  2.3211
 3815SOL     OW13982   8.586   9.805   1.713 -0.0231 -0.0440  0.1915
 3815SOL    HW113983   8.595   9.712   1.731 -1.5809  0.1162  1.8686
 3815SOL    HW213984   8.651   9.847   1.769 -0.3507 -0.0315  0.5692
 3816SOL     OW13985   2.835   5.882   4.710 -0.3718  0.1728 -0.0980
 3816SOL    HW113986   2.783   5.954   4.744  1.9580  1.3109  1.2005
 3816SOL    HW213987   2.839   5.819   4.782 -0.4802 -0.2012 -0.4185
 3817SOL     OW13988   7.767   6.617   3.991 -0.8003 -0.1715  0.6507
 3817SOL    HW113989   7.829   6.678   4.029  0.7046 -0.8229 -0.7025
 3817SOL    HW213990   7.757   6.645   3.900 -1.6436 -0.7242  0.5610
 3818SOL     OW13991   7.818   6.358   5.227  0.0087  0.2289  0.2499
 3818SOL    HW113992   7.839   6.371   5.320 -0.1897 -0.5828  0.4169
 3818SOL    HW213993   7.845   6.439   5.185 -0.4097  0.8349  1.1060
 3819SOL     OW13994   2.435   5.491   4.952  0.0450 -0.2844  0.0714
 3819SOL    HW113995   2.502   5.459   4.891 -0.3359 -0.5429 -0.2189
 3819SOL    HW213996   2.412   5.578   4.920 -0.6320 -0.6882 -0.5491
 3820SOL     OW13997   9.459   4.979   7.247  0.2775  0.7597 -0.4904
 3820SOL    HW113998   9.490   4.905   7.300 -1.0074  0.5536 -0.0280
 3820SOL    HW213999   9.491   4.959   7.159 -1.3096 -1.0941 -0.6658
 3821SOL     OW14000   6.693   6.611   2.779 -0.4169 -0.2018  0.1118
 3821SOL    HW114001   6.629   6.628   2.710 -0.8506 -0.6116  0.4106
 3821SOL    HW214002   6.703   6.695   2.823 -0.7808 -0.1410  0.0835
 3822SOL     OW14003   8.232   9.388   6.020  0.8583 -0.5330  0.1331
 3822SOL    HW114004   8.191   9.301   6.019 -0.4686  0.0841  0.0761
 3822SOL    HW214005   8.299   9.383   5.952  0.7608 -1.4992  0.0962
 3823SOL     OW14006   3.487   0.575   5.810 -0.0513  0.0866 -0.6560
 3823SOL    HW114007   3.555   0.638   5.788 -0.0634 -0.0559 -1.0994
 3823SOL    HW214008   3.510   0.546   5.899 -0.5947  1.4336 -0.0604
 3824SOL     OW14009   1.005   1.881   3.911  0.1400  0.1961  0.1094
 3824SOL    HW114010   0.981   1.855   3.822  0.9383 -0.9920  0.2122
 3824SOL    HW214011   1.097   1.907   3.904 -0.1634  1.3390  0.3498
 3825SOL     OW14012   6.527   8.305   6.510  0.2381 -0.1206 -0.1213
 3825SOL    HW114013   6.563   8.370   6.450  1.1845 -0.6458 -0.1372
 3825SOL    HW214014   6.432   8.317   6.504  0.4447  2.4406  1.2261
 3826SOL     OW14015   7.669   3.519  10.173  0.6951 -0.0484 -0.2175
 3826SOL    HW114016   7.666   3.492  10.264  0.2451  0.0515 -0.2032
 3826SOL    HW214017   7.598   3.583  10.164  0.7828 -0.0066 -0.6167
 3827SOL     OW14018   4.124   2.261   5.134 -0.3788  0.4152 -0.0600
 3827SOL    HW114019   4.183   2.312   5.079  0.6711  2.3250  2.7740
 3827SOL    HW214020   4.043   2.312   5.137 -0.0957  0.8069  0.9593
 3828SOL     OW14021   6.966   8.345   3.257 -0.8134 -0.1577  0.1572
 3828SOL    HW114022   6.990   8.433   3.228 -1.0801 -0.9794 -2.6354
 3828SOL    HW214023   7.039   8.290   3.231 -1.2288 -0.9879  0.7410
 3829SOL     OW14024   6.422   8.498   6.744  0.2598 -0.2096 -0.6017
 3829SOL    HW114025   6.436   8.542   6.660 -0.2762  0.8661 -0.1482
 3829SOL    HW214026   6.505   8.454   6.762  0.9275  0.8846 -0.9236
 3830SOL     OW14027   0.760   3.269   9.140  0.2478  0.0298  0.7181
 3830SOL    HW114028   0.677   3.302   9.106 -0.6708 -0.4384  2.4716
 3830SOL    HW214029   0.822   3.340   9.125 -1.0695  1.4257  1.8015
 3831SOL     OW14030   0.485   1.190   5.093  0.5378 -0.1778  0.3029
 3831SOL    HW114031   0.578   1.168   5.086  0.1001 -2.0289  0.0893
 3831SOL    HW214032   0.479   1.280   5.061  2.0211 -0.5632 -1.1138
 3832SOL     OW14033   4.358   8.045   6.353 -0.8135 -0.2161  0.3275
 3832SOL    HW114034   4.444   8.076   6.382 -0.5257 -1.4605  0.8897
 3832SOL    HW214035   4.310   8.124   6.328  0.9404  0.3867 -1.2335
 3833SOL     OW14036   7.081   8.233   1.640  0.2793 -0.5579 -0.2669
 3833SOL    HW114037   7.082   8.141   1.614  0.4804 -0.5913 -0.1455
 3833SOL    HW214038   7.169   8.264   1.620  1.1333 -1.1496  2.3170
 3834SOL     OW14039   9.013   4.881   5.179  0.4412 -0.2009  0.8422
 3834SOL    HW114040   9.071   4.938   5.231  0.3371 -0.6927  1.5024
 3834SOL    HW214041   8.942   4.858   5.239 -0.7513  0.8562 -0.1382
 3835SOL     OW14042   5.295   2.223   0.053  0.8150 -0.2669 -0.0992
 3835SOL    HW114043   5.325   2.139   0.019 -3.0729 -1.5794 -0.5085
 3835SOL    HW214044   5.328   2.226   0.143 -0.3854 -3.0083  0.4665
 3836SOL     OW14045   5.282   1.750   3.899 -0.4909 -0.3237  0.6304
 3836SOL    HW114046   5.286   1.667   3.850 -0.9321 -0.5262  0.9298
 3836SOL    HW214047   5.292   1.723   3.990 -5.6992 -0.6500  1.2611
 3837SOL     OW14048   5.112  10.152   3.180 -0.0603 -0.0290  0.1476
 3837SOL    HW114049   5.184  10.214   3.195 -0.9886  1.5550 -1.7979
 3837SOL    HW214050   5.147  10.091   3.114 -1.0542  1.7976 -2.1401
 3838SOL     OW14051   7.402   9.396   0.621 -0.4203 -0.0034  0.0760
 3838SOL    HW114052   7.422   9.450   0.697 -1.4474  0.2194  0.1947
 3838SOL    HW214053   7.474   9.414   0.560  0.6580 -0.5277  1.1582
 3839SOL     OW14054   3.472   5.467   3.281 -0.3270 -0.1178  0.0026
 3839SOL    HW114055   3.406   5.404   3.253  0.7780 -1.0179 -0.5888
 3839SOL    HW214056   3.442   5.550   3.245 -1.5181 -0.3772  0.3574
 3840SOL     OW14057   9.629   3.660   3.155  0.2569  0.2818 -0.0154
 3840SOL    HW114058   9.660   3.751   3.153 -0.7598  0.6181 -0.5582
 3840SOL    HW214059   9.706   3.609   3.130  0.7384  1.0151 -0.0643
 3841SOL     OW14060   4.804   8.604  10.029 -0.1970 -0.6181  0.2858
 3841SOL    HW114061   4.738   8.544   9.993  0.0242 -0.0923 -1.0186
 3841SOL    HW214062   4.775   8.621  10.118 -0.5788 -2.2092  0.4758
 3842SOL     OW14063   1.591   2.865   2.464 -1.0352 -0.2725  0.0555
 3842SOL    HW114064   1.571   2.827   2.549 -2.9197 -0.9172 -0.6641
 3842SOL    HW214065   1.592   2.791   2.404 -0.3418  0.2615 -0.6004
 3843SOL     OW14066   9.565   3.546   9.096 -0.6672 -0.2203  0.1181
 3843SOL    HW114067   9.521   3.624   9.131  0.8317 -0.7752  3.4461
 3843SOL    HW214068   9.640   3.581   9.048 -1.5006  0.4603 -0.7264
 3844SOL     OW14069   6.780   7.297   5.309 -0.0253  0.5038 -0.4696
 3844SOL    HW114070   6.685   7.307   5.308  0.0961  1.7043 -0.8183
 3844SOL    HW214071   6.804   7.280   5.218  0.0356 -0.4493 -0.2829
 3845SOL     OW14072   8.086   6.380   5.713 -0.9725  0.0195  0.1006
 3845SOL    HW114073   7.993   6.376   5.691 -0.8912 -0.9290 -0.0874
 3845SOL    HW214074   8.088   6.422   5.799 -1.4483  1.6265 -0.6674
 3846SOL     OW14075   9.428   2.330   3.392  0.1063  0.5583  0.1850
 3846SOL    HW114076   9.521   2.347   3.385  0.2176 -0.6288 -1.8728
 3846SOL    HW214077   9.388   2.388   3.327 -0.4160 -0.0925 -0.0840
 3847SOL     OW14078   7.791   9.264   6.295 -0.1945  0.1717  0.0953
 3847SOL    HW114079   7.749   9.208   6.229  0.6165  1.9589 -2.0045
 3847SOL    HW214080   7.883   9.237   6.294 -0.0203  0.7595 -0.1252
 3848SOL     OW14081   6.749   3.982   2.655  1.2493 -0.2771 -0.6163
 3848SOL    HW114082   6.744   3.888   2.641  0.6457 -0.4219  0.5517
 3848SOL    HW214083   6.764   3.992   2.749 -0.2420  0.8319 -0.4715
 3849SOL     OW14084   7.810   8.624   3.836 -0.0472  0.0087  0.1985
 3849SOL    HW114085   7.887   8.675   3.864  0.3669 -0.3302 -0.3197
 3849SOL    HW214086   7.743   8.690   3.819  0.3618  0.3554 -0.0766
 3850SOL     OW14087   5.705   5.964   1.494 -0.5165 -0.1639  0.5244
 3850SOL    HW114088   5.785   5.912   1.484 -0.0269  1.1313 -3.1662
 3850SOL    HW214089   5.641   5.918   1.440 -1.0861  1.0351  0.1729
 3851SOL     OW14090   2.121   6.332   8.723 -0.4425  0.4058 -0.3605
 3851SOL    HW114091   2.053   6.353   8.786  0.5690 -0.0450  0.9100
 3851SOL    HW214092   2.078   6.275   8.659 -1.6625  1.4761 -0.5262
 3852SOL     OW14093   7.726   9.584   7.805  0.9035  0.6433  0.6005
 3852SOL    HW114094   7.785   9.581   7.880  0.6901 -0.0404  0.7397
 3852SOL    HW214095   7.705   9.677   7.795  2.0152  0.8846  0.5431
 3853SOL     OW14096   4.339   1.828   5.669  0.0569  0.0309 -0.0414
 3853SOL    HW114097   4.412   1.888   5.656  1.6573 -2.2284 -1.9078
 3853SOL    HW214098   4.332   1.781   5.586 -1.6914 -1.7816  1.1000
 3854SOL     OW14099   1.822   1.113   9.444 -0.0837 -0.1384  0.1855
 3854SOL    HW114100   1.792   1.023   9.459  0.7225  0.1052  3.6306
 3854SOL    HW214101   1.910   1.103   9.408  0.5160 -0.7235  1.8019
 3855SOL     OW14102   0.951   2.749   1.510  0.1762  0.0604  0.1626
 3855SOL    HW114103   0.951   2.740   1.605 -0.3076 -1.2134  0.0495
 3855SOL    HW214104   1.044   2.745   1.486  0.4294  1.9141  0.6891
 3856SOL     OW14105   7.011   5.908   5.436 -0.1752 -0.0054 -0.3240
 3856SOL    HW114106   6.952   5.891   5.363  0.9308  0.2642 -1.2784
 3856SOL    HW214107   7.095   5.870   5.410  0.5438  1.1171  0.2991
 3857SOL     OW14108   5.812  10.108   8.483 -0.3993 -0.0724  0.7433
 3857SOL    HW114109   5.851  10.092   8.569  0.7099 -0.9767  0.1008
 3857SOL    HW214110   5.766  10.191   8.492  2.8204  1.7783  1.2175
 3858SOL     OW14111   8.271   3.046   8.470 -0.1114  0.5757 -0.7347
 3858SOL    HW114112   8.296   3.064   8.561  0.5259  0.7203 -0.9359
 3858SOL    HW214113   8.313   2.962   8.450 -0.4598  0.4203 -0.8155
 3859SOL     OW14114   4.060   7.445   8.181  0.0171 -0.2784 -0.1763
 3859SOL    HW114115   3.976   7.461   8.139 -0.2206 -0.6870  0.1324
 3859SOL    HW214116   4.057   7.499   8.260 -0.3791 -1.0763  0.3592
 3860SOL     OW14117   4.643   7.611   4.900  0.0925  0.2894  0.0625
 3860SOL    HW114118   4.622   7.519   4.886  1.1499 -0.0368  0.5912
 3860SOL    HW214119   4.600   7.633   4.983  0.8675 -0.0683  0.5631
 3861SOL     OW14120   7.864   0.809   6.554  0.0381 -0.4158 -0.0147
 3861SOL    HW114121   7.795   0.745   6.534  0.4266 -1.4316  1.8491
 3861SOL    HW214122   7.944   0.756   6.563  0.7298  0.5557 -0.3236
 3862SOL     OW14123   4.504   7.231   7.421  0.0877 -0.1602 -0.2356
 3862SOL    HW114124   4.527   7.202   7.332 -1.3992 -1.1672 -0.2982
 3862SOL    HW214125   4.429   7.177   7.445  1.8827 -1.5218  2.5436
 3863SOL     OW14126   9.253   9.677   2.858  0.2939 -0.3207  0.0051
 3863SOL    HW114127   9.260   9.590   2.818  0.6767 -0.8777  1.2582
 3863SOL    HW214128   9.279   9.737   2.789 -0.1109 -1.1999 -0.9186
 3864SOL     OW14129   9.699   1.408   3.057  0.1957  0.0617 -0.4757
 3864SOL    HW114130   9.649   1.451   3.126 -1.9569  0.6455 -2.3432
 3864SOL    HW214131   9.747   1.338   3.102 -2.3798 -0.5882  1.3587
 3865SOL     OW14132   4.172   8.915   4.315  0.0908 -0.1464  0.4353
 3865SOL    HW114133   4.259   8.953   4.301  0.3703 -1.4083 -1.4318
 3865SOL    HW214134   4.188   8.821   4.317 -1.2399 -0.3875 -0.0276
 3866SOL     OW14135   0.892   5.977   6.934 -0.6671 -0.1123  0.6318
 3866SOL    HW114136   0.920   5.935   7.015 -1.3186 -0.0042  0.9112
 3866SOL    HW214137   0.813   5.930   6.908 -1.3840  0.9290  0.9315
 3867SOL     OW14138   1.251   6.164   8.331 -0.1245 -0.6482 -0.1567
 3867SOL    HW114139   1.324   6.218   8.303  0.7736 -0.5546  2.2546
 3867SOL    HW214140   1.268   6.146   8.424 -1.3416 -3.5255 -0.4220
 3868SOL     OW14141   1.236   0.909   3.649  0.6461 -0.3797 -0.3712
 3868SOL    HW114142   1.190   0.866   3.720  1.5385  1.1882  1.2081
 3868SOL    HW214143   1.204   0.999   3.650  0.5655 -0.3648 -2.0601
 3869SOL     OW14144   5.283   0.962   6.648 -0.0011  0.2781 -0.5865
 3869SOL    HW114145   5.299   0.908   6.725 -2.2341  0.4094  0.0127
 3869SOL    HW214146   5.349   1.031   6.652 -0.3328  0.5072  1.4350
 3870SOL     OW14147   5.238   2.363   0.329  0.0281 -0.2245 -0.4178
 3870SOL    HW114148   5.210   2.272   0.340 -0.9946  0.1450  0.1713
 3870SOL    HW214149   5.230   2.401   0.416 -0.3904  0.6531 -0.8299
 3871SOL     OW14150   9.626   7.111  10.188 -0.1922  0.3521 -0.3598
 3871SOL    HW114151   9.681   7.162  10.129 -0.0535  0.1456 -0.4080
 3871SOL    HW214152   9.688   7.067  10.246 -0.2824 -0.4236 -0.8538
 3872SOL     OW14153   8.519   1.948   4.701 -0.1935 -0.4529  0.3520
 3872SOL    HW114154   8.500   1.954   4.607  0.3238 -0.9585  0.2126
 3872SOL    HW214155   8.475   1.869   4.730  0.4449 -0.8167  0.3359
 3873SOL     OW14156   8.829   7.923   3.738  0.0742  0.1964  0.3615
 3873SOL    HW114157   8.841   7.832   3.711  1.6518  0.8282 -1.1551
 3873SOL    HW214158   8.787   7.965   3.664 -1.3762  0.5409  1.3667
 3874SOL     OW14159   3.297   4.798   1.904 -0.3219  0.1857  0.7304
 3874SOL    HW114160   3.228   4.864   1.908  0.1416  0.7174  0.0805
 3874SOL    HW214161   3.352   4.816   1.980 -0.5233  0.1789  0.8782
 3875SOL     OW14162   8.640   9.338   0.339  0.2769 -0.4917 -0.0749
 3875SOL    HW114163   8.670   9.386   0.416 -1.4143 -0.8314  0.8188
 3875SOL    HW214164   8.547   9.360   0.330  0.1682 -1.3624 -1.3345
 3876SOL     OW14165   5.203   6.891   5.068 -0.3241  0.3351 -0.3706
 3876SOL    HW114166   5.171   6.827   5.131 -0.0045  0.0607 -0.4840
 3876SOL    HW214167   5.280   6.850   5.029 -0.6816  0.3889 -1.1413
 3877SOL     OW14168   9.905   5.964   2.222  0.3604 -0.1688  0.3530
 3877SOL    HW114169   9.906   6.044   2.274  2.3523  1.1260 -1.5469
 3877SOL    HW214170   9.971   5.908   2.263  1.0295  0.3483  0.0052
 3878SOL     OW14171   9.626   9.075   9.855  0.2341 -0.2475 -0.4361
 3878SOL    HW114172   9.665   9.040   9.935 -1.5708 -0.5794  0.3218
 3878SOL    HW214173   9.693   9.132   9.818  2.0941 -2.1666 -0.0865
 3879SOL     OW14174   6.426   4.702   4.482 -0.3226 -0.3539  0.1954
 3879SOL    HW114175   6.455   4.611   4.476 -1.3690 -0.6192 -1.2533
 3879SOL    HW214176   6.474   4.738   4.557 -0.4609 -2.2936  1.2512
 3880SOL     OW14177   3.249   2.007   9.720 -0.1474  0.4158  0.0737
 3880SOL    HW114178   3.245   1.966   9.634 -2.0290 -1.2816  0.9388
 3880SOL    HW214179   3.252   2.101   9.702  1.9537  0.0247 -1.8729
 3881SOL     OW14180   9.148   3.724   6.885 -0.0627 -0.2269 -0.2379
 3881SOL    HW114181   9.233   3.762   6.903  0.1501 -1.0229  0.4672
 3881SOL    HW214182   9.132   3.664   6.958 -0.2632 -1.6746 -1.4367
 3882SOL     OW14183   6.902   0.672   8.065 -0.1575 -0.5066  0.3764
 3882SOL    HW114184   6.952   0.601   8.025  0.3807 -0.3859  0.8311
 3882SOL    HW214185   6.953   0.697   8.142 -1.5078 -1.1565  1.4999
 3883SOL     OW14186   8.608   0.931   2.726 -0.1356  0.5004 -0.1746
 3883SOL    HW114187   8.674   0.889   2.671 -0.4963 -1.5618  0.9206
 3883SOL    HW214188   8.653   0.953   2.807 -0.3302  0.7809 -0.1414
 3884SOL     OW14189   5.623   7.905   5.809 -0.0786 -0.2332 -0.1097
 3884SOL    HW114190   5.579   7.820   5.817  0.6038 -0.6799 -0.9656
 3884SOL    HW214191   5.703   7.886   5.761  0.0216  0.9243 -0.4212
 3885SOL     OW14192   6.218   2.909   7.839  0.4245 -0.1941 -0.3601
 3885SOL    HW114193   6.195   3.002   7.843  0.5698 -0.0251 -2.7351
 3885SOL    HW214194   6.265   2.892   7.921  0.6983  1.9115 -0.0548
 3886SOL     OW14195   2.608   6.295   0.119 -0.7932  0.1099  0.5870
 3886SOL    HW114196   2.532   6.262   0.166  0.2264 -1.4462  1.2028
 3886SOL    HW214197   2.622   6.383   0.153 -1.8270  0.1050  1.0415
 3887SOL     OW14198   8.394   3.290   0.026  0.1511 -0.4510  0.0006
 3887SOL    HW114199   8.397   3.277   0.121 -0.3358 -0.2476  0.0453
 3887SOL    HW214200   8.448   3.220  -0.009 -0.5828 -1.2133  0.3609
 3888SOL     OW14201   7.155   9.994   5.215  0.3532  0.2237  0.8911
 3888SOL    HW114202   7.222  10.006   5.282  1.0455 -2.6183  0.7821
 3888SOL    HW214203   7.179  10.057   5.146  3.6602 -1.4767  0.3411
 3889SOL     OW14204   6.769   3.249   5.406  0.6083  0.4333  0.5575
 3889SOL    HW114205   6.820   3.216   5.333 -1.5511 -1.6595 -0.0838
 3889SOL    HW214206   6.681   3.263   5.370  0.0291  1.3559  2.2602
 3890SOL     OW14207   5.793   5.244   7.419  1.0847 -0.2930  0.1746
 3890SOL    HW114208   5.788   5.176   7.353 -1.0005  2.0763 -2.2381
 3890SOL    HW214209   5.876   5.289   7.402  0.6292  0.2087 -0.7575
 3891SOL     OW14210   5.657   0.801   8.470 -0.1336 -0.2609  0.1120
 3891SOL    HW114211   5.584   0.788   8.410 -0.6179 -0.5424  0.7557
 3891SOL    HW214212   5.617   0.836   8.550  0.3304 -1.0846  0.7199
 3892SOL     OW14213   3.749   9.230   5.063  0.5473  0.0082 -0.2538
 3892SOL    HW114214   3.836   9.269   5.054  0.1405  0.2350 -3.9773
 3892SOL    HW214215   3.741   9.173   4.986 -2.0025 -1.1852  0.8564
 3893SOL     OW14216   1.490   2.481   5.119 -0.5105 -0.2235 -0.2432
 3893SOL    HW114217   1.473   2.389   5.100  0.7840 -0.6307  0.5560
 3893SOL    HW214218   1.574   2.499   5.077  0.1794  0.0662  1.2202
 3894SOL     OW14219   0.912   6.844   8.727  0.4463  0.2217  0.1298
 3894SOL    HW114220   0.998   6.866   8.691  1.3378 -0.2077  1.9187
 3894SOL    HW214221   0.907   6.894   8.808 -0.7768 -0.1697  0.2999
 3895SOL     OW14222   4.277   7.782   9.657 -0.3223  0.2827  0.6028
 3895SOL    HW114223   4.235   7.794   9.572 -1.6465 -0.4812  1.1290
 3895SOL    HW214224   4.368   7.807   9.643 -0.7573  1.1270 -0.7831
 3896SOL     OW14225   3.395   4.196   7.390 -0.4626 -0.0620 -0.4170
 3896SOL    HW114226   3.388   4.291   7.395  1.4116  0.0788  0.0782
 3896SOL    HW214227   3.380   4.165   7.479 -0.7589 -0.1997 -0.5149
 3897SOL     OW14228  10.193   7.770   9.966  0.3501 -0.0435 -0.2617
 3897SOL    HW114229  10.134   7.698   9.944  1.1457  0.0101 -2.6965
 3897SOL    HW214230  10.246   7.783   9.887  1.9541  1.5266  1.0247
 3898SOL     OW14231   5.690   9.504   5.451 -1.0431  0.3141  0.0244
 3898SOL    HW114232   5.689   9.597   5.427  1.5025  0.2204 -0.6238
 3898SOL    HW214233   5.753   9.498   5.523  1.5999 -1.3922 -2.3303
 3899SOL     OW14234   1.898  10.078   7.176 -0.7405  0.9225  0.6097
 3899SOL    HW114235   1.825  10.034   7.218 -0.3375 -1.3710 -1.0233
 3899SOL    HW214236   1.975  10.049   7.225 -0.3578 -1.1143 -1.1249
 3900SOL     OW14237   1.472   0.267   5.448  0.3518  0.0105 -0.4503
 3900SOL    HW114238   1.557   0.225   5.458  0.3677 -0.4288 -2.2910
 3900SOL    HW214239   1.433   0.225   5.372 -1.9202 -0.4517  0.9291
 3901SOL     OW14240   1.022   4.223   0.804  0.5743 -0.0082 -0.3119
 3901SOL    HW114241   0.953   4.204   0.868  0.5536  1.0566 -0.0065
 3901SOL    HW214242   0.987   4.295   0.751  1.1554  0.0475 -0.6304
 3902SOL     OW14243   3.364   8.370   6.297  0.3810  0.0651  0.1162
 3902SOL    HW114244   3.419   8.447   6.306  0.0312  0.4069 -0.6014
 3902SOL    HW214245   3.275   8.401   6.317  0.1993 -0.0795 -0.4428
 3903SOL     OW14246   0.776   6.163   2.862 -0.2253  0.1679  0.5499
 3903SOL    HW114247   0.730   6.171   2.946  0.0421  1.9900  0.5409
 3903SOL    HW214248   0.855   6.114   2.883 -0.2411  0.4710  1.3475
 3904SOL     OW14249   2.427   0.245   1.339  0.2159 -0.0828  0.5098
 3904SOL    HW114250   2.408   0.191   1.263  0.3359  1.2697 -0.5060
 3904SOL    HW214251   2.354   0.307   1.343  0.7227  0.4924  0.8955
 3905SOL     OW14252   2.186   9.620   7.142  0.7564  0.3001 -0.1951
 3905SOL    HW114253   2.092   9.629   7.157  0.9416  1.8447  0.0582
 3905SOL    HW214254   2.192   9.561   7.067 -0.4648  1.7617 -1.4655
 3906SOL     OW14255   7.929   8.640   6.562  0.1525 -0.4756 -0.3155
 3906SOL    HW114256   7.989   8.705   6.598  1.9443 -2.7358  0.8233
 3906SOL    HW214257   7.848   8.689   6.548  0.4637  1.3155  3.4882
 3907SOL     OW14258   7.239   5.355   0.801  0.1411 -0.2032 -0.7302
 3907SOL    HW114259   7.240   5.261   0.821 -2.4671 -0.0067  0.5128
 3907SOL    HW214260   7.292   5.395   0.869  0.5261 -0.7003 -0.7393
 3908SOL     OW14261   0.533   7.078   7.686  0.1634  0.3053 -0.7014
 3908SOL    HW114262   0.513   7.170   7.668 -0.9941  0.0946 -0.5000
 3908SOL    HW214263   0.625   7.078   7.711 -0.3222  1.6749  1.1523
 3909SOL     OW14264   8.887   0.794   4.211  0.0460 -0.1891  0.6255
 3909SOL    HW114265   8.801   0.773   4.247 -0.1930  2.2198  1.5787
 3909SOL    HW214266   8.947   0.784   4.285  0.0976  1.0975  0.7836
 3910SOL     OW14267   0.262   6.917   9.966  0.0437  0.4061 -0.0445
 3910SOL    HW114268   0.168   6.924   9.980 -0.1210  0.3412 -1.0434
 3910SOL    HW214269   0.291   7.007   9.950  0.4837  0.6813  2.1543
 3911SOL     OW14270   3.992   8.610   0.261 -0.4760  0.2324 -0.1337
 3911SOL    HW114271   3.957   8.536   0.210 -2.1410  1.4464 -0.7992
 3911SOL    HW214272   4.045   8.569   0.330  2.6079 -1.4626 -3.3101
 3912SOL     OW14273   1.676   1.990   0.698  0.3753 -0.4248 -0.1993
 3912SOL    HW114274   1.635   1.946   0.624 -0.6233  0.2931 -0.0863
 3912SOL    HW214275   1.715   1.919   0.750  1.1975 -0.9210 -1.4600
 3913SOL     OW14276   8.806   9.732   3.591 -0.7360  0.2695 -0.1496
 3913SOL    HW114277   8.736   9.718   3.527 -0.4158 -0.1335 -0.4100
 3913SOL    HW214278   8.779   9.682   3.668 -0.5736 -0.1523 -0.3667
 3914SOL     OW14279   4.985   0.923   5.413  0.5748  0.2416 -0.0947
 3914SOL    HW114280   4.994   0.982   5.338  0.8972 -0.4316 -0.5949
 3914SOL    HW214281   4.891   0.921   5.431  0.4647  0.1717 -0.6745
 3915SOL     OW14282   8.122   0.331   8.299 -0.1027 -0.4544 -0.0121
 3915SOL    HW114283   8.199   0.388   8.306 -1.0502  0.9710 -0.9568
 3915SOL    HW214284   8.062   0.378   8.241 -1.7363 -1.4905  0.7922
 3916SOL     OW14285   1.990   4.466   4.132 -0.5340 -0.0940  0.0610
 3916SOL    HW114286   1.938   4.446   4.210  2.6305 -0.0451  2.2802
 3916SOL    HW214287   1.958   4.551   4.102 -3.0735 -0.9851  0.1168
 3917SOL     OW14288   2.071   0.300   1.557 -0.4444  0.4406  0.2385
 3917SOL    HW114289   2.003   0.233   1.549 -0.0334  0.0789 -0.2317
 3917SOL    HW214290   2.138   0.259   1.612  0.0091  0.3077 -0.4187
 3918SOL     OW14291   9.411   0.590   4.724  0.2870  0.0491  0.0832
 3918SOL    HW114292   9.377   0.508   4.759  0.1813  0.4581  0.9607
 3918SOL    HW214293   9.413   0.649   4.800  1.0525  0.6302 -0.3875
 3919SOL     OW14294   0.053   6.015   7.514 -0.1428 -0.4462 -0.3989
 3919SOL    HW114295  -0.027   6.040   7.560 -0.9678 -0.8923 -1.5534
 3919SOL    HW214296   0.050   5.919   7.511 -0.4121 -0.4036 -1.8912
 3920SOL     OW14297   0.908   1.857   1.539  0.3869 -0.0247 -0.5631
 3920SOL    HW114298   0.859   1.926   1.495 -0.4686 -0.8983 -1.0096
 3920SOL    HW214299   0.941   1.802   1.468  1.7215  0.3512 -0.2509
 3921SOL     OW14300   3.292   8.922   0.500  0.4737 -0.0845 -0.0272
 3921SOL    HW114301   3.330   8.923   0.412 -0.0385 -3.2102 -0.3497
 3921SOL    HW214302   3.366   8.907   0.558  0.3857 -1.3470 -0.2323
 3922SOL     OW14303   9.295   7.990   0.131  0.7229  0.0900  0.3397
 3922SOL    HW114304   9.311   7.911   0.182  2.2624 -0.7129 -1.3360
 3922SOL    HW214305   9.336   7.973   0.046  3.5827  3.7463  0.8511
 3923SOL     OW14306   9.690   6.736   2.144  0.0161 -0.3257  0.0678
 3923SOL    HW114307   9.661   6.667   2.084  2.7331 -0.1578 -1.5272
 3923SOL    HW214308   9.611   6.786   2.164 -1.4187 -1.9834 -1.2794
 3924SOL     OW14309   5.072   1.419   5.591  0.1974  0.2260  0.2122
 3924SOL    HW114310   5.076   1.512   5.569 -1.0371 -0.0604 -1.3845
 3924SOL    HW214311   5.037   1.378   5.512 -0.4217 -1.4353  1.3269
 3925SOL     OW14312   6.158   0.527   9.488  0.9559  0.1544  0.2000
 3925SOL    HW114313   6.133   0.598   9.430  0.0710  0.7392  1.2667
 3925SOL    HW214314   6.215   0.471   9.435 -2.5017 -1.1443 -2.3287
 3926SOL     OW14315   0.280   0.798   0.575 -0.1129 -0.2331 -0.0277
 3926SOL    HW114316   0.307   0.708   0.591  0.6590  0.0389  0.2211
 3926SOL    HW214317   0.292   0.843   0.659 -1.3009 -0.0941  0.0730
 3927SOL     OW14318   3.914   7.362   4.570 -0.0798  0.2719  0.1329
 3927SOL    HW114319   3.992   7.318   4.602 -0.5566 -1.6299 -1.2478
 3927SOL    HW214320   3.861   7.376   4.648  1.9693  2.3544  1.2114
 3928SOL     OW14321   8.413   2.815   8.527 -0.3574  0.1346  0.7351
 3928SOL    HW114322   8.352   2.766   8.582  1.1412 -1.0333  1.4310
 3928SOL    HW214323   8.468   2.747   8.486 -0.4725  1.0793 -1.0081
 3929SOL     OW14324   1.589   9.085   8.054 -0.2473 -0.0751 -0.0073
 3929SOL    HW114325   1.517   9.121   8.106  1.0371  0.3909  1.4670
 3929SOL    HW214326   1.661   9.147   8.066  0.8601 -1.2920 -0.2806
 3930SOL     OW14327   9.400   0.914   1.618  0.6534  0.1243 -0.4748
 3930SOL    HW114328   9.488   0.929   1.652  0.6250 -0.0601 -0.3169
 3930SOL    HW214329   9.408   0.926   1.524  0.8161  0.2502 -0.4452
 3931SOL     OW14330   0.339   4.586   1.434 -0.3360 -0.2185 -0.0802
 3931SOL    HW114331   0.366   4.647   1.366 -0.4794 -0.5742 -0.4563
 3931SOL    HW214332   0.370   4.501   1.404  1.0829 -0.1401  1.1063
 3932SOL     OW14333   4.938   5.582   1.989 -0.0637  0.1982  0.1325
 3932SOL    HW114334   5.012   5.585   2.050  0.5132  0.4744 -0.5785
 3932SOL    HW214335   4.889   5.662   2.007 -0.0399  0.1507  0.4126
 3933SOL     OW14336   6.395   8.353   0.098  0.3417  0.4432 -0.6312
 3933SOL    HW114337   6.456   8.423   0.121  0.5171  0.0011  0.2633
 3933SOL    HW214338   6.315   8.399   0.073  0.0712  0.9482  1.0825
 3934SOL     OW14339   8.650   3.055   6.752 -0.3525 -0.2360 -0.0179
 3934SOL    HW114340   8.576   3.007   6.715  0.3562 -0.2596 -1.4426
 3934SOL    HW214341   8.618   3.088   6.836 -1.4763 -1.5435  0.0838
 3935SOL     OW14342   5.012   7.159   7.753  0.3335  0.3116  0.2922
 3935SOL    HW114343   5.026   7.095   7.822 -0.9625  1.6491  1.8391
 3935SOL    HW214344   5.062   7.236   7.780  3.7781 -0.7500 -2.6939
 3936SOL     OW14345   4.633   6.038   3.798  0.2237 -0.1760 -0.8707
 3936SOL    HW114346   4.617   6.132   3.800  1.0354 -0.0114 -1.7003
 3936SOL    HW214347   4.580   6.003   3.870 -0.6258  0.8218 -1.0061
 3937SOL     OW14348   5.622   4.480   7.311  0.1559 -0.2153  0.4713
 3937SOL    HW114349   5.606   4.544   7.242  0.9514 -1.0751 -0.5378
 3937SOL    HW214350   5.598   4.396   7.272  0.3534 -0.6815  1.3397
 3938SOL     OW14351   9.415   3.669   8.758 -0.0197  0.6250 -0.6933
 3938SOL    HW114352   9.384   3.635   8.674 -0.8672  0.9177 -0.5067
 3938SOL    HW214353   9.370   3.616   8.823 -0.7058  1.5506 -0.4111
 3939SOL     OW14354   6.633   9.430   8.832 -0.1323  0.4980  0.3410
 3939SOL    HW114355   6.542   9.455   8.844 -0.8962 -1.3799 -1.2783
 3939SOL    HW214356   6.636   9.337   8.856  1.0817  0.2466 -0.7092
 3940SOL     OW14357   1.113   1.576   1.706 -0.2024 -0.1796 -0.2867
 3940SOL    HW114358   1.064   1.654   1.683 -2.3020 -0.9181  1.4797
 3940SOL    HW214359   1.191   1.608   1.751 -0.5594  0.9281 -0.4563
 3941SOL     OW14360   3.319   5.761   2.389 -0.2967 -0.2994 -0.4598
 3941SOL    HW114361   3.405   5.769   2.349 -0.0058  1.1166  0.4058
 3941SOL    HW214362   3.337   5.732   2.479 -0.6611  0.7055 -0.0504
 3942SOL     OW14363   1.118   1.057   9.894  0.0631  0.0526 -0.6008
 3942SOL    HW114364   1.192   1.026   9.842 -0.2059  0.2810 -1.1204
 3942SOL    HW214365   1.152   1.132   9.942 -0.2895  1.2124 -2.1325
 3943SOL     OW14366   5.573   3.230   0.772 -0.9460 -0.1367 -0.6470
 3943SOL    HW114367   5.580   3.165   0.702  0.3102  0.4365 -1.0718
 3943SOL    HW214368   5.656   3.278   0.769 -1.4145  0.7692  0.3714
 3944SOL     OW14369   9.111   8.371   9.707  0.1831  0.2103 -0.5853
 3944SOL    HW114370   9.078   8.285   9.679  1.9976 -0.6481 -0.1434
 3944SOL    HW214371   9.045   8.402   9.769  0.3423 -1.6640  0.5768
 3945SOL     OW14372   5.693   2.625   9.779  0.0415 -0.0055  0.0049
 3945SOL    HW114373   5.713   2.547   9.830  0.2199 -0.7042 -1.1098
 3945SOL    HW214374   5.777   2.653   9.744 -0.1411  0.2029 -0.2687
 3946SOL     OW14375   9.670   5.501   7.598  0.0445  0.0388  0.1510
 3946SOL    HW114376   9.739   5.516   7.533 -0.3157  1.6006  0.1067
 3946SOL    HW214377   9.609   5.441   7.554 -0.0264  0.8218 -0.8485
 3947SOL     OW14378   6.058   9.585   4.648  0.2096  0.7079 -0.0053
 3947SOL    HW114379   6.045   9.564   4.556 -0.2740 -0.9305  0.4176
 3947SOL    HW214380   6.140   9.541   4.672 -0.9221 -0.9590  0.9401
 3948SOL     OW14381   6.457   1.784   6.267 -0.0975 -0.0928  0.7916
 3948SOL    HW114382   6.523   1.716   6.282 -0.3686 -0.9168 -1.4400
 3948SOL    HW214383   6.478   1.819   6.181 -2.7015 -0.5645 -0.0979
 3949SOL     OW14384   8.458   5.608   2.471  0.1775  0.0588 -0.6081
 3949SOL    HW114385   8.524   5.583   2.535 -0.9234  0.8121  0.8562
 3949SOL    HW214386   8.396   5.534   2.471 -1.4691  1.3566  1.5167
 3950SOL     OW14387   7.010   0.846   4.264  0.0986 -0.3482  0.1333
 3950SOL    HW114388   6.923   0.884   4.252  0.8344  1.7204  1.0452
 3950SOL    HW214389   6.999   0.782   4.334 -0.1598  2.0109  2.3329
 3951SOL     OW14390   6.575   9.724   9.501  0.2316  0.1093 -0.2132
 3951SOL    HW114391   6.658   9.762   9.474 -0.6684  2.5020  0.2321
 3951SOL    HW214392   6.509   9.788   9.473 -1.1981 -0.2483  2.1832
 3952SOL     OW14393   4.884   9.728   5.965  0.2369  0.1045  0.1723
 3952SOL    HW114394   4.797   9.689   5.971  1.7521 -3.4051  0.8902
 3952SOL    HW214395   4.915   9.703   5.878  0.6688  1.0617  0.0421
 3953SOL     OW14396   8.077   1.095   9.589  0.8268  0.2345 -0.0263
 3953SOL    HW114397   8.046   1.074   9.501  0.5835  1.1213 -0.1565
 3953SOL    HW214398   8.089   1.010   9.631  0.0551 -0.1694 -0.6094
 3954SOL     OW14399   9.238   8.355   5.130 -0.2836  0.2839  0.5508
 3954SOL    HW114400   9.256   8.407   5.208 -1.2865  0.7791  0.4492
 3954SOL    HW214401   9.165   8.299   5.154 -0.2714  0.0815  0.1219
 3955SOL     OW14402   4.398   8.808   7.613  1.0059 -0.2182  0.4439
 3955SOL    HW114403   4.493   8.816   7.603  0.5424  2.7232 -2.3968
 3955SOL    HW214404   4.373   8.881   7.669  0.2755 -0.1530  0.0446
 3956SOL     OW14405   8.367   1.012   2.979 -0.0867  0.3289  0.2869
 3956SOL    HW114406   8.393   1.098   2.947 -2.3653  1.2031  0.6426
 3956SOL    HW214407   8.356   0.958   2.900 -2.5145  1.5389 -0.2524
 3957SOL     OW14408   1.691   5.497   2.205  0.2588  0.1984 -0.3208
 3957SOL    HW114409   1.713   5.560   2.274 -0.3313  0.0658 -0.0121
 3957SOL    HW214410   1.598   5.480   2.217  0.5578 -1.2771  0.0478
 3958SOL     OW14411   7.236   6.966   8.002  0.3248  0.5247  0.5586
 3958SOL    HW114412   7.319   6.997   7.966  0.4619  0.0209  0.4367
 3958SOL    HW214413   7.237   6.993   8.093  0.8021  0.1731  0.6629
 3959SOL     OW14414   0.230   6.347   3.449 -0.3977 -0.4121  0.1971
 3959SOL    HW114415   0.165   6.394   3.502 -0.7050 -1.9110  1.1993
 3959SOL    HW214416   0.178   6.305   3.381  0.0882  2.1462 -1.8147
 3960SOL     OW14417   8.518   5.999   7.756 -0.0744  0.3356  0.1200
 3960SOL    HW114418   8.578   6.037   7.821  0.1555 -0.2722  0.2664
 3960SOL    HW214419   8.431   6.031   7.782 -0.0866 -0.5530  1.2205
 3961SOL     OW14420   7.622   8.664   7.236  0.0908 -0.9513  0.5941
 3961SOL    HW114421   7.706   8.617   7.236  1.2497  0.9661 -2.8878
 3961SOL    HW214422   7.563   8.607   7.188 -0.0297 -1.2843  1.1247
 3962SOL     OW14423   6.695   9.019   7.496  0.2271 -0.2244  0.0759
 3962SOL    HW114424   6.748   9.075   7.440  0.1883 -1.5447 -1.3233
 3962SOL    HW214425   6.756   8.985   7.562  0.0813  2.0726  1.4599
 3963SOL     OW14426   7.768   0.813   1.425 -0.1546  0.4612 -0.2680
 3963SOL    HW114427   7.675   0.834   1.434  0.2560  1.7668  1.2623
 3963SOL    HW214428   7.811   0.898   1.415  0.9737 -0.0531  0.0869
 3964SOL     OW14429   0.913   0.754   8.834 -0.5855  0.1637 -0.1876
 3964SOL    HW114430   0.822   0.739   8.859 -0.9637 -0.8515 -2.0680
 3964SOL    HW214431   0.916   0.848   8.813 -0.9875  0.3831  0.7158
 3965SOL     OW14432   5.140   0.375   1.167  0.5693  0.5071  0.4016
 3965SOL    HW114433   5.144   0.313   1.094  1.1229  1.3619 -0.3060
 3965SOL    HW214434   5.056   0.356   1.209  0.8151 -0.8508  0.3235
 3966SOL     OW14435   0.551   7.234   4.893 -0.2307 -0.7062 -0.0247
 3966SOL    HW114436   0.516   7.228   4.982 -0.1179  1.2034  0.1829
 3966SOL    HW214437   0.475   7.227   4.836 -0.1400 -3.4163  0.1479
 3967SOL     OW14438   8.864   0.035   5.622  0.3533 -0.5275 -0.6607
 3967SOL    HW114439   8.870   0.122   5.582 -0.0636 -0.8957 -1.5648
 3967SOL    HW214440   8.771   0.013   5.615  0.2467 -0.5402  0.6727
 3968SOL     OW14441   4.123   5.944   6.482  0.1852 -0.2104 -0.1654
 3968SOL    HW114442   4.199   5.972   6.433  0.2452 -1.3240 -0.7242
 3968SOL    HW214443   4.067   6.021   6.487  0.4439  0.0652 -1.4766
 3969SOL     OW14444   1.808   1.118   8.233  0.1917 -0.2991 -0.1060
 3969SOL    HW114445   1.840   1.034   8.266  2.2929 -0.4435 -2.3311
 3969SOL    HW214446   1.885   1.175   8.233 -0.5641  0.7552 -1.2930
 3970SOL     OW14447   5.222   9.335   6.271  0.4008  0.0830  0.0164
 3970SOL    HW114448   5.163   9.274   6.227 -1.9149  2.1563  0.1530
 3970SOL    HW214449   5.294   9.349   6.209 -0.9315  0.0893 -1.5445
 3971SOL     OW14450   4.301   8.139   0.927  0.4327 -0.3702  0.2828
 3971SOL    HW114451   4.288   8.200   1.000 -0.8044  2.2745 -2.0532
 3971SOL    HW214452   4.212   8.117   0.898  0.9039 -0.9146 -0.7963
 3972SOL     OW14453   4.020   8.343   7.118  0.5335  0.4415  0.4999
 3972SOL    HW114454   4.108   8.305   7.109  0.1282 -0.3759 -0.0413
 3972SOL    HW214455   3.963   8.284   7.069 -0.1202  1.7296 -0.3120
 3973SOL     OW14456   0.925   1.479   4.262  0.2199 -0.0438 -0.0175
 3973SOL    HW114457   0.837   1.442   4.258 -0.7214  1.9353  1.3639
 3973SOL    HW214458   0.920   1.559   4.208  0.7554  0.8454  1.2327
 3974SOL     OW14459   4.386   5.896   1.527 -0.5701 -0.0428  0.4124
 3974SOL    HW114460   4.461   5.914   1.584 -0.3842  0.0328  0.1454
 3974SOL    HW214461   4.314   5.878   1.588  0.0123 -1.5876  0.6754
 3975SOL     OW14462   2.854   3.664   5.213  0.0584 -0.3734  0.3399
 3975SOL    HW114463   2.764   3.673   5.243  0.3434 -1.1381  1.4332
 3975SOL    HW214464   2.888   3.589   5.262  1.4525  0.2433  0.3124
 3976SOL     OW14465   9.582   8.675   7.856 -0.1724 -0.3052 -0.8162
 3976SOL    HW114466   9.614   8.648   7.942 -2.0366 -1.0226 -0.3159
 3976SOL    HW214467   9.631   8.755   7.836  2.2426 -1.6138 -0.3299
 3977SOL     OW14468   2.189   2.446   7.376  0.0745  0.0654  0.1134
 3977SOL    HW114469   2.270   2.430   7.328  0.4262 -0.5073  0.8760
 3977SOL    HW214470   2.124   2.462   7.309  0.5102 -0.9493 -0.5667
 3978SOL     OW14471   1.122   0.049   2.607 -0.1401  0.2456  0.0017
 3978SOL    HW114472   1.126   0.031   2.700  0.7709  0.0154 -0.0857
 3978SOL    HW214473   1.056  -0.012   2.573 -0.6459  0.4950  0.5291
 3979SOL     OW14474   1.524   9.173   5.175 -0.0916  0.1617  0.1511
 3979SOL    HW114475   1.549   9.162   5.267 -0.6594  0.4395  0.3419
 3979SOL    HW214476   1.604   9.156   5.126 -0.0344 -1.0067  0.6411
 3980SOL     OW14477   9.459   2.239   3.919  0.6865 -0.1206  0.2806
 3980SOL    HW114478   9.519   2.205   3.853 -0.1823  2.7151 -2.0572
 3980SOL    HW214479   9.512   2.298   3.973  0.9299 -0.8972  0.9105
 3981SOL     OW14480   7.259   5.855   4.776  0.1403  0.7561  0.4506
 3981SOL    HW114481   7.268   5.849   4.681  2.3133  2.4821  0.5166
 3981SOL    HW214482   7.169   5.885   4.789 -0.1903  0.4596 -1.0633
 3982SOL     OW14483   2.944   4.052   6.746 -0.4427 -0.2425 -0.2140
 3982SOL    HW114484   2.938   3.963   6.709  0.3288 -0.7247  0.7834
 3982SOL    HW214485   3.037   4.074   6.737  0.4257 -1.6210  4.2195
 3983SOL     OW14486   1.815   7.434   3.602  0.5935  0.6270 -0.2557
 3983SOL    HW114487   1.784   7.504   3.659  1.1606  0.1117  0.7106
 3983SOL    HW214488   1.796   7.353   3.651  0.1906  0.1162 -1.2313
 3984SOL     OW14489   2.084   0.816   9.502  0.1744  0.0686  0.8256
 3984SOL    HW114490   2.011   0.755   9.513  1.1077 -1.2665 -0.1369
 3984SOL    HW214491   2.050   0.884   9.444  0.0652 -1.2092 -0.6307
 3985SOL     OW14492   6.381   1.379   7.200  0.0781 -0.1113 -0.1116
 3985SOL    HW114493   6.361   1.446   7.265  1.9679 -0.9022  1.3433
 3985SOL    HW214494   6.463   1.407   7.161  1.1084 -1.7713  0.8191
 3986SOL     OW14495   3.974   0.152   8.501 -0.2356  0.0364  0.3039
 3986SOL    HW114496   3.927   0.234   8.492 -0.0493  0.1933  0.7543
 3986SOL    HW214497   3.907   0.088   8.525  0.0102  0.5762  2.5389
 3987SOL     OW14498   4.489   6.158   0.184 -0.4309  0.5182 -0.1872
 3987SOL    HW114499   4.582   6.134   0.193 -1.1092 -1.7015  1.5876
 3987SOL    HW214500   4.470   6.206   0.265 -1.1747 -0.2847  0.1157
 3988SOL     OW14501   6.590   1.691   8.334 -0.2664 -0.2496 -0.4769
 3988SOL    HW114502   6.614   1.717   8.423 -3.6381  1.9861 -0.1126
 3988SOL    HW214503   6.579   1.773   8.287 -0.0156 -1.3644 -2.5347
 3989SOL     OW14504   6.823   6.726   0.460 -0.1936 -0.0316 -0.1536
 3989SOL    HW114505   6.764   6.718   0.535 -0.7870  0.8596 -0.5193
 3989SOL    HW214506   6.782   6.674   0.391 -1.4930  2.0072 -0.9674
 3990SOL     OW14507   0.041   2.352   1.712 -0.0549  0.0182  0.4842
 3990SOL    HW114508   0.040   2.381   1.803 -1.4749  1.8767 -0.0834
 3990SOL    HW214509  -0.043   2.381   1.677  1.5858  1.7966 -2.1299
 3991SOL     OW14510   2.040   7.889   8.785  0.5108 -0.4829 -0.0266
 3991SOL    HW114511   2.104   7.954   8.813  0.4243 -0.1472 -0.6139
 3991SOL    HW214512   2.025   7.907   8.692 -0.4473 -0.5539  0.1109
 3992SOL     OW14513   7.634   5.248   0.633 -0.1070  0.1691  0.1145
 3992SOL    HW114514   7.682   5.176   0.591  0.7272  1.2420 -0.8189
 3992SOL    HW214515   7.678   5.261   0.717 -1.3323 -1.5180  1.0395
 3993SOL     OW14516   5.355   0.887   4.086  0.4023  0.0094 -0.5527
 3993SOL    HW114517   5.313   0.951   4.029  1.8870  0.2325 -1.3959
 3993SOL    HW214518   5.441   0.924   4.105  0.5031 -0.7919  0.5881
 3994SOL     OW14519   6.760   5.846   6.397 -0.0251  0.1540 -0.4161
 3994SOL    HW114520   6.669   5.870   6.413 -0.4948 -1.1317 -1.1033
 3994SOL    HW214521   6.805   5.930   6.383 -0.9928  0.8264  0.4280
 3995SOL     OW14522   0.309   2.064   5.443  0.0746 -0.0927 -0.2435
 3995SOL    HW114523   0.348   1.984   5.478 -0.3477 -0.4407 -0.5795
 3995SOL    HW214524   0.218   2.062   5.473 -0.4650 -0.7012 -1.9030
 3996SOL     OW14525   2.068   9.679   4.840 -0.6836  0.3362 -0.4217
 3996SOL    HW114526   1.995   9.736   4.865 -1.4903 -0.4746 -0.8913
 3996SOL    HW214527   2.069   9.611   4.907 -0.8076 -0.0361 -0.7923
 3997SOL     OW14528   4.550   4.923   2.845 -0.1546 -0.2157  0.1557
 3997SOL    HW114529   4.457   4.908   2.827  0.1677 -1.6994 -0.3356
 3997SOL    HW214530   4.551   5.005   2.895 -1.5736  0.7687 -1.3369
 3998SOL     OW14531   5.824   3.514   2.047  0.1407  0.7370  0.2666
 3998SOL    HW114532   5.839   3.441   1.986  0.7353  1.3953 -0.3824
 3998SOL    HW214533   5.729   3.523   2.051  0.0681  0.0403  0.2133
 3999SOL     OW14534   8.011   8.192   0.033  0.0842  0.0048  0.0430
 3999SOL    HW114535   7.925   8.233   0.044 -0.3149  0.1208 -3.0164
 3999SOL    HW214536   8.073   8.264   0.043 -0.3618  0.5034 -0.6891
 4000SOL     OW14537   3.653   3.570   2.019 -0.0253 -0.2772 -0.1918
 4000SOL    HW114538   3.580   3.549   2.077 -1.2833  0.0515 -1.6289
 4000SOL    HW214539   3.648   3.504   1.949  1.2372 -0.4427 -0.1377
 4001SOL     OW14540   1.740   3.273   8.388  0.1319 -0.0971 -0.1660
 4001SOL    HW114541   1.777   3.274   8.476  0.3181  0.2025 -0.2475
 4001SOL    HW214542   1.753   3.362   8.355  0.4777 -0.3311 -0.6661
 4002SOL     OW14543   7.976   9.413   7.694  0.4243 -0.3186 -0.0747
 4002SOL    HW114544   7.976   9.327   7.735  1.6879  0.0920  0.8301
 4002SOL    HW214545   7.893   9.453   7.721  0.4963 -0.6952  0.7256
 4003SOL     OW14546   4.724   8.063   7.258 -0.1602 -0.4359  0.5376
 4003SOL    HW114547   4.694   7.990   7.204 -1.2782 -1.9677  3.1339
 4003SOL    HW214548   4.645   8.113   7.277  0.2362  0.1369  0.6870
 4004SOL     OW14549   9.181   3.984   7.446 -0.5764 -0.0585  0.3213
 4004SOL    HW114550   9.108   3.942   7.491 -1.6133  1.3726  0.0055
 4004SOL    HW214551   9.180   4.074   7.477  0.8424  0.0674  0.0408
 4005SOL     OW14552   5.541   2.651   0.779 -0.2473 -0.3613  0.0014
 4005SOL    HW114553   5.595   2.591   0.831 -0.5493 -1.0107 -0.4325
 4005SOL    HW214554   5.572   2.640   0.690 -0.3600  0.0700 -0.0903
 4006SOL     OW14555   4.403   9.513   5.162  0.4752 -0.7611 -0.5828
 4006SOL    HW114556   4.430   9.478   5.077  2.0405  0.3014 -0.5331
 4006SOL    HW214557   4.315   9.477   5.175  0.7687 -2.0664 -1.9979
 4007SOL     OW14558   2.140   7.578   6.664 -0.7542  0.1108  0.1459
 4007SOL    HW114559   2.064   7.630   6.638 -0.7715 -0.2230 -0.4810
 4007SOL    HW214560   2.214   7.639   6.660 -1.1903  0.7977  2.1001
 4008SOL     OW14561   3.022   5.236   6.814  0.2121  0.6957  0.1213
 4008SOL    HW114562   3.084   5.188   6.759  0.4358  1.1290 -0.0010
 4008SOL    HW214563   3.076   5.292   6.869 -0.0176  0.3493  0.7097
 4009SOL     OW14564   4.496   0.437   9.243 -0.7190  0.2492 -0.0489
 4009SOL    HW114565   4.495   0.515   9.187  0.6728 -0.2346 -0.7847
 4009SOL    HW214566   4.541   0.371   9.190  0.6481 -0.2224  1.6621
 4010SOL     OW14567   7.020   4.352   2.504  0.4923 -0.3970  0.0137
 4010SOL    HW114568   7.035   4.446   2.514 -3.3851  0.3959 -0.8415
 4010SOL    HW214569   6.994   4.342   2.412  1.4897 -2.4293 -0.0711
 4011SOL     OW14570   7.346   3.129   5.816  0.2808  0.1735 -0.4372
 4011SOL    HW114571   7.280   3.059   5.824  0.9696 -0.4080  0.3360
 4011SOL    HW214572   7.312   3.200   5.871  0.4713 -0.2756  0.2790
 4012SOL     OW14573   5.231   2.296   9.173  0.3221 -0.0372 -0.6748
 4012SOL    HW114574   5.182   2.214   9.170 -1.2151  0.8340  0.0603
 4012SOL    HW214575   5.247   2.317   9.081 -0.6991 -0.3482 -0.9356
 4013SOL     OW14576   5.736   9.746   3.927  0.1951 -0.3051  0.0032
 4013SOL    HW114577   5.733   9.817   3.992  1.0014 -0.6045  0.3717
 4013SOL    HW214578   5.661   9.691   3.948 -0.5094  0.4971 -0.3570
 4014SOL     OW14579   9.862   6.319   5.678  0.1413  0.1299 -0.3770
 4014SOL    HW114580   9.860   6.279   5.765  1.3140  0.1147 -0.3556
 4014SOL    HW214581   9.915   6.260   5.625 -1.5442 -0.4883 -1.4316
 4015SOL     OW14582   4.260   8.893   7.048 -0.5044  0.1393 -0.2424
 4015SOL    HW114583   4.228   8.828   6.986 -0.1451 -0.0853 -0.1983
 4015SOL    HW214584   4.216   8.974   7.023 -0.8740 -0.1003 -0.3635
 4016SOL     OW14585   4.284   9.114   2.404  0.2808  0.0693  0.2727
 4016SOL    HW114586   4.203   9.110   2.455 -0.9289  0.2257 -1.5849
 4016SOL    HW214587   4.279   9.039   2.344  0.4503  1.3574 -1.3835
 4017SOL     OW14588   2.447   5.229   4.364  0.2348 -0.1558 -0.5566
 4017SOL    HW114589   2.458   5.168   4.437 -0.0620 -0.9060 -1.1290
 4017SOL    HW214590   2.453   5.315   4.404  1.1329 -0.5551  0.1912
 4018SOL     OW14591   4.599   0.196   1.813 -0.4399 -0.0049  0.9059
 4018SOL    HW114592   4.540   0.227   1.882 -2.7943 -1.4734 -0.4014
 4018SOL    HW214593   4.659   0.269   1.798 -2.7633  2.0510  1.3500
 4019SOL     OW14594   8.791   4.233   3.940 -0.6555  0.1669  0.8809
 4019SOL    HW114595   8.713   4.206   3.890 -0.1722  1.4618 -0.6069
 4019SOL    HW214596   8.852   4.161   3.928 -0.1960  0.8484 -1.2293
 4020SOL     OW14597   9.114   9.129   1.524 -0.8078 -0.1522  0.1377
 4020SOL    HW114598   9.191   9.138   1.581 -0.4189 -0.6471 -0.3044
 4020SOL    HW214599   9.148   9.148   1.437 -1.1843 -0.4273 -0.0646
 4021SOL     OW14600   3.698   5.562   5.652 -0.1803  0.5052  0.6059
 4021SOL    HW114601   3.643   5.490   5.621 -0.2303  0.9696 -0.3788
 4021SOL    HW214602   3.651   5.597   5.728 -0.7594  0.2896  0.3442
 4022SOL     OW14603   6.989   3.753   5.630  0.4135  0.1171 -0.4282
 4022SOL    HW114604   6.922   3.692   5.599  1.1768  0.2124 -2.3370
 4022SOL    HW214605   7.072   3.710   5.609  0.9569  0.3955  1.1163
 4023SOL     OW14606   1.503   1.390   2.871 -0.2437  0.4133 -0.7335
 4023SOL    HW114607   1.532   1.452   2.938 -0.0542 -0.4397 -0.0263
 4023SOL    HW214608   1.436   1.337   2.914  0.0572 -0.3065 -1.1445
 4024SOL     OW14609   3.410   1.760   3.130 -0.5216  0.9133  0.2365
 4024SOL    HW114610   3.499   1.774   3.164 -0.5780  1.1251  0.3022
 4024SOL    HW214611   3.401   1.825   3.060 -0.3360  0.3407 -0.3190
 4025SOL     OW14612   8.398   2.728   1.635 -0.5408  0.1017 -0.5264
 4025SOL    HW114613   8.472   2.678   1.599 -0.8292 -0.2291 -0.6645
 4025SOL    HW214614   8.418   2.819   1.614  0.4970  0.1582  0.6358
 4026SOL     OW14615   7.664   7.305   7.657 -0.5459 -0.0324 -0.5052
 4026SOL    HW114616   7.677   7.387   7.704 -0.4502 -0.2120 -0.2158
 4026SOL    HW214617   7.719   7.313   7.579  0.5573 -0.3954  0.2321
 4027SOL     OW14618   6.000   7.509   1.714 -0.0753  0.4414 -0.1831
 4027SOL    HW114619   6.034   7.557   1.639 -0.8339  0.6016 -0.4258
 4027SOL    HW214620   6.076   7.494   1.770  0.4116  0.6876 -0.7841
 4028SOL     OW14621   4.262   1.081   3.038  0.3524  0.1090  1.3179
 4028SOL    HW114622   4.327   1.022   3.000  0.0414 -2.2636  4.2400
 4028SOL    HW214623   4.188   1.024   3.060 -1.4906  2.2495  0.8522
 4029SOL     OW14624   5.688   0.015   4.268 -0.1100  0.2060 -0.2407
 4029SOL    HW114625   5.601   0.014   4.307 -0.4667 -2.5730 -1.0086
 4029SOL    HW214626   5.739   0.073   4.325 -1.1622 -2.0952  3.1973
 4030SOL     OW14627   8.475   5.163   9.337 -0.3962  0.1422  0.2786
 4030SOL    HW114628   8.390   5.203   9.315  0.0737  0.7764 -0.3812
 4030SOL    HW214629   8.503   5.210   9.416 -0.8393 -0.3359  0.7258
 4031SOL     OW14630   3.048   1.101   7.693  0.5252 -0.3437  0.0653
 4031SOL    HW114631   3.108   1.053   7.637  0.1510 -0.3819 -0.3028
 4031SOL    HW214632   3.102   1.127   7.768  1.1111  0.0031 -0.4665
 4032SOL     OW14633   1.979   5.242   7.094 -0.1964 -0.1516 -0.1670
 4032SOL    HW114634   1.997   5.170   7.033  1.0884  0.4627 -0.5406
 4032SOL    HW214635   1.988   5.204   7.181  2.2357 -0.0586 -0.3504
 4033SOL     OW14636   5.596   3.000   1.401 -0.1892  0.9232  0.0366
 4033SOL    HW114637   5.585   2.948   1.481 -0.6114  0.0450 -0.5860
 4033SOL    HW214638   5.675   2.965   1.360 -0.3836  0.8699 -0.3009
 4034SOL     OW14639   2.253   6.426   0.780  0.4120  0.1279  0.4840
 4034SOL    HW114640   2.232   6.406   0.689 -0.2718 -0.4767  0.7603
 4034SOL    HW214641   2.261   6.521   0.783 -0.1814  0.1989 -0.0806
 4035SOL     OW14642   2.375   5.949   1.761 -0.1583 -0.6584 -0.3363
 4035SOL    HW114643   2.416   5.947   1.675 -1.6788 -0.9096 -1.0690
 4035SOL    HW214644   2.297   6.003   1.750 -0.5303 -0.9366  0.8037
 4036SOL     OW14645   1.503   3.252   0.703  0.2397  0.0927  0.5587
 4036SOL    HW114646   1.517   3.183   0.638  0.5647 -0.3733  1.1172
 4036SOL    HW214647   1.585   3.256   0.751  0.1602  0.7546  0.6435
 4037SOL     OW14648   0.212   8.581   7.119  0.0956  0.0845  0.3088
 4037SOL    HW114649   0.169   8.636   7.184 -0.4153 -0.7403  0.6595
 4037SOL    HW214650   0.305   8.587   7.141  0.1476  1.5258 -0.1988
 4038SOL     OW14651   9.033   9.738   1.951  0.0568 -0.0342 -0.0672
 4038SOL    HW114652   9.109   9.795   1.951 -0.5824  0.8353 -1.0378
 4038SOL    HW214653   9.057   9.666   1.893  1.1121 -1.1131  1.6697
 4039SOL     OW14654   4.009   6.584   8.336 -0.8107 -0.2783 -0.6874
 4039SOL    HW114655   3.999   6.609   8.244 -0.1720 -2.2683 -1.3061
 4039SOL    HW214656   4.051   6.498   8.334 -0.5526 -0.2335  1.4738
 4040SOL     OW14657   3.008   0.318   6.795  0.7674 -0.3307  0.1526
 4040SOL    HW114658   3.017   0.243   6.736 -0.9985 -0.8517  0.5064
 4040SOL    HW214659   2.978   0.389   6.738 -1.5164 -0.9915  0.4967
 4041SOL     OW14660   5.326   1.740   7.262 -0.0496 -0.2109 -0.0771
 4041SOL    HW114661   5.336   1.808   7.196  0.8804 -0.3465 -0.0865
 4041SOL    HW214662   5.296   1.663   7.213 -0.8844  0.1202 -0.0979
 4042SOL     OW14663   7.827  10.027   5.568 -0.2665  0.2122  0.4985
 4042SOL    HW114664   7.753  10.056   5.621  0.1850  0.5137  0.9721
 4042SOL    HW214665   7.813  10.068   5.483 -0.8237 -0.0060  0.4863
 4043SOL     OW14666   6.638   5.873   4.744  0.0397 -0.2332  0.1915
 4043SOL    HW114667   6.672   5.941   4.686  0.1196 -1.2647 -1.0041
 4043SOL    HW214668   6.716   5.827   4.775 -0.1318 -1.2060 -0.8014
 4044SOL     OW14669   4.293   3.800   5.416 -0.3338 -0.2552 -0.0245
 4044SOL    HW114670   4.340   3.882   5.400 -3.0469  0.8587 -2.7446
 4044SOL    HW214671   4.282   3.797   5.511  1.2546  1.6701  0.2669
 4045SOL     OW14672   2.020   6.624   7.913 -0.1766  0.3008 -0.0268
 4045SOL    HW114673   2.088   6.660   7.856  0.5459 -1.7720 -0.4996
 4045SOL    HW214674   2.032   6.671   7.996 -0.0293  1.9887 -0.9798
 4046SOL     OW14675   4.789   7.443   2.578  0.3504 -0.2075  0.2848
 4046SOL    HW114676   4.792   7.355   2.542 -1.0247 -1.0413  2.1285
 4046SOL    HW214677   4.879   7.462   2.603  1.2562  0.1989 -2.9977
 4047SOL     OW14678   8.097   6.984   7.585 -0.4943 -0.0295  0.3472
 4047SOL    HW114679   8.063   7.031   7.661  0.5412  0.8351  0.2979
 4047SOL    HW214680   8.166   6.928   7.620 -1.8660 -1.6955  0.4343
 4048SOL     OW14681   4.337   4.168   2.865  0.5508 -0.3066 -0.6739
 4048SOL    HW114682   4.250   4.186   2.828  0.5875  1.9460  0.2310
 4048SOL    HW214683   4.322   4.159   2.959  1.2076 -0.5358 -0.5874
 4049SOL     OW14684   8.031   2.533   2.360  0.1967  0.3584 -0.0477
 4049SOL    HW114685   8.064   2.592   2.292 -0.6049  1.0774  0.1750
 4049SOL    HW214686   7.958   2.488   2.318 -0.8969  1.4862  0.6184
 4050SOL     OW14687   4.434   9.426   1.648  0.4048  0.0078 -0.0619
 4050SOL    HW114688   4.370   9.469   1.705 -0.1757 -1.0144  0.0769
 4050SOL    HW214689   4.497   9.386   1.708  0.9666  0.7037 -0.1902
 4051SOL     OW14690   6.508   7.117   7.267 -0.2299 -0.7140 -0.0924
 4051SOL    HW114691   6.509   7.130   7.362 -0.2060 -2.4299  0.1634
 4051SOL    HW214692   6.416   7.106   7.245 -0.0393 -3.3312  0.2111
 4052SOL     OW14693   4.165   2.676   4.636 -0.2032 -0.4657  0.4621
 4052SOL    HW114694   4.124   2.752   4.677  0.4080  0.3358 -0.3900
 4052SOL    HW214695   4.249   2.709   4.604 -0.8225 -0.9892 -1.7533
 4053SOL     OW14696   4.963   0.193   1.716  0.1326  0.0209 -0.1508
 4053SOL    HW114697   4.917   0.115   1.685 -0.3488  0.8373 -1.5191
 4053SOL    HW214698   4.899   0.263   1.710  0.2321  0.3299  2.1210
 4054SOL     OW14699   8.321   6.201   8.605 -1.0820 -0.5726  0.6468
 4054SOL    HW114700   8.395   6.165   8.654 -1.1874 -0.9347  0.5463
 4054SOL    HW214701   8.286   6.270   8.662  2.3481  3.0835 -1.4242
 4055SOL     OW14702   7.459   2.636   3.683 -0.1931 -0.2219 -0.2567
 4055SOL    HW114703   7.463   2.585   3.602  0.1883  0.6025 -0.7597
 4055SOL    HW214704   7.365   2.645   3.700 -0.2683 -0.9842 -0.2230
 4056SOL     OW14705   2.433   3.656   3.757 -0.5454 -0.4473 -0.0380
 4056SOL    HW114706   2.500   3.645   3.824 -2.0236 -0.2842  1.5069
 4056SOL    HW214707   2.460   3.733   3.707  0.2475 -0.2043  0.7684
 4057SOL     OW14708   6.123   7.163   1.505  0.0448 -0.1371 -0.7271
 4057SOL    HW114709   6.162   7.250   1.501 -1.4790  0.7609  2.7591
 4057SOL    HW214710   6.029   7.179   1.506 -0.2319 -1.7291  1.2586
 4058SOL     OW14711   4.170   9.952   4.219 -0.3654 -0.3037  0.1438
 4058SOL    HW114712   4.140   9.880   4.164  0.1650  2.1167 -3.5121
 4058SOL    HW214713   4.116  10.026   4.192  1.0679  1.3576  1.7275
 4059SOL     OW14714   2.706   9.715   2.498 -0.0753  0.4437  0.1798
 4059SOL    HW114715   2.659   9.772   2.436 -0.4104 -0.5689 -0.5053
 4059SOL    HW214716   2.720   9.770   2.575 -2.6262  0.7148  0.4997
 4060SOL     OW14717   9.621   1.065   0.535  0.4912  0.2103 -0.3837
 4060SOL    HW114718   9.637   1.108   0.451 -0.1447  0.2601 -0.4842
 4060SOL    HW214719   9.541   1.105   0.568  0.6498  0.0785  0.1744
 4061SOL     OW14720   7.165   1.369   3.366 -0.8200 -0.3829  0.4115
 4061SOL    HW114721   7.076   1.404   3.375 -0.8497 -0.2623 -0.2957
 4061SOL    HW214722   7.222   1.444   3.381 -0.8790 -0.0706 -0.9111
 4062SOL     OW14723   7.479   8.894   7.828 -0.2314 -0.1557  0.3457
 4062SOL    HW114724   7.521   8.825   7.879 -0.9935 -0.7120  0.2213
 4062SOL    HW214725   7.429   8.945   7.892 -0.2737 -0.1735  0.3267
 4063SOL     OW14726   1.122   8.993   9.300 -0.1184  0.1606 -0.3695
 4063SOL    HW114727   1.098   8.932   9.231 -0.0263  1.4192 -1.5298
 4063SOL    HW214728   1.038   9.021   9.337 -0.1457 -1.0279  0.5034
 4064SOL     OW14729   7.461   2.649   7.986 -0.2728  0.2720 -0.7656
 4064SOL    HW114730   7.408   2.662   8.065 -0.3197  0.8938 -0.9027
 4064SOL    HW214731   7.463   2.554   7.975  1.2876  0.0474  1.0670
 4065SOL     OW14732  10.066   9.784   2.153  0.1557 -0.7532 -0.1865
 4065SOL    HW114733  10.092   9.874   2.174 -1.2086 -0.6244  1.0256
 4065SOL    HW214734  10.049   9.744   2.238 -2.4359 -1.1717 -0.8652
 4066SOL     OW14735   9.331   9.702   9.202 -0.0321  0.0998 -0.3709
 4066SOL    HW114736   9.394   9.675   9.268  0.0575 -0.4202 -0.6628
 4066SOL    HW214737   9.246   9.689   9.243  0.0717  2.0908  0.5120
 4067SOL     OW14738   8.769   5.392   1.543  0.6411 -0.1478  0.5063
 4067SOL    HW114739   8.696   5.446   1.573  0.9350  0.6822 -0.2503
 4067SOL    HW214740   8.735   5.348   1.465  1.4459  1.5124 -0.8288
 4068SOL     OW14741   2.067   9.944   0.166  0.6217 -0.5470 -0.4674
 4068SOL    HW114742   1.999   9.954   0.099 -2.6886  0.1446  2.8283
 4068SOL    HW214743   2.049  10.014   0.228  3.0786 -1.7022  1.6009
 4069SOL     OW14744   0.998   2.254   5.108  0.2239  0.3420 -0.3104
 4069SOL    HW114745   0.983   2.173   5.060 -2.0130 -0.0870  1.0527
 4069SOL    HW214746   1.032   2.315   5.042 -1.0176 -0.7808 -2.0280
 4070SOL     OW14747   1.022   3.654   8.758 -0.4178  0.4352 -0.2137
 4070SOL    HW114748   1.088   3.606   8.807  0.4427  0.7456 -1.0535
 4070SOL    HW214749   1.071   3.700   8.690 -1.7063 -0.8046 -2.0360
 4071SOL     OW14750   0.987   4.882   3.718 -0.4159  0.0368  0.2048
 4071SOL    HW114751   1.051   4.815   3.743  0.6095  1.0578  0.3700
 4071SOL    HW214752   1.012   4.907   3.629 -0.3906  0.6589  0.3845
 4072SOL     OW14753   5.104   0.618   9.977 -0.0602  0.0249  0.0213
 4072SOL    HW114754   5.053   0.611   9.896  0.5538  2.8184 -0.6768
 4072SOL    HW214755   5.189   0.580   9.955 -0.3058 -0.3660 -0.2594
 4073SOL     OW14756   9.144   2.791   0.458  0.0007 -0.0862 -0.1809
 4073SOL    HW114757   9.137   2.764   0.367  1.6018 -1.2289  0.0094
 4073SOL    HW214758   9.215   2.737   0.494  1.4596  2.4538  0.9229
 4074SOL     OW14759   9.846   9.027   6.392 -0.4816 -0.5414 -0.9145
 4074SOL    HW114760   9.778   9.047   6.327 -1.0166 -0.1162 -0.2330
 4074SOL    HW214761   9.914   9.093   6.377 -1.3702  0.6139  0.0609
 4075SOL     OW14762   0.331   1.097   5.304 -0.1869 -0.0689 -0.1175
 4075SOL    HW114763   0.376   1.112   5.221 -0.6259  0.5548 -0.2474
 4075SOL    HW214764   0.359   1.010   5.331  1.9375  0.7214  0.3431
 4076SOL     OW14765   4.078   2.591   7.871 -0.1770 -0.6916 -0.3402
 4076SOL    HW114766   4.099   2.684   7.881 -0.1646 -0.5537 -1.5877
 4076SOL    HW214767   4.134   2.547   7.934 -0.1629  0.1381  0.2479
 4077SOL     OW14768   0.711   0.176   7.485 -0.4146 -0.4301 -0.1973
 4077SOL    HW114769   0.684   0.209   7.571 -0.1900 -1.4528  0.2797
 4077SOL    HW214770   0.630   0.176   7.433 -1.1249 -2.2690  0.8290
 4078SOL     OW14771   4.093   3.689   5.806  0.5603  0.5696 -0.0210
 4078SOL    HW114772   4.030   3.726   5.745  0.3395 -2.0874 -1.5028
 4078SOL    HW214773   4.039   3.652   5.877  0.6946  1.7170  0.6898
 4079SOL     OW14774   1.386   9.221   1.106 -0.4352  0.0325 -0.2317
 4079SOL    HW114775   1.427   9.198   1.189 -0.3855 -0.8360 -0.4891
 4079SOL    HW214776   1.313   9.278   1.130  0.3244  0.7778  0.3064
 4080SOL     OW14777   0.595   9.949   1.694 -0.5713  0.3946 -0.2568
 4080SOL    HW114778   0.568   9.951   1.786 -0.3717  2.2144 -0.2060
 4080SOL    HW214779   0.529   9.896   1.650 -0.4008 -0.8807  1.0217
 4081SOL     OW14780   7.787   2.278   7.160  0.0517 -0.4107  0.1084
 4081SOL    HW114781   7.726   2.329   7.214  0.7188 -0.6618  1.1148
 4081SOL    HW214782   7.813   2.205   7.217 -0.1201 -1.3177 -0.9685
 4082SOL     OW14783   3.624   2.899   6.879  0.1233  0.0735  0.2946
 4082SOL    HW114784   3.603   2.806   6.884 -0.4164  0.1557 -0.4690
 4082SOL    HW214785   3.707   2.903   6.832  1.0275 -0.1286  1.8137
 4083SOL     OW14786   1.037   8.997   0.469 -0.1834  0.3673  0.2393
 4083SOL    HW114787   1.015   9.090   0.468 -2.4116 -0.1544 -0.3047
 4083SOL    HW214788   1.055   8.976   0.378  0.2288  0.2133  0.3509
 4084SOL     OW14789   7.718   5.142   4.229 -1.0380 -0.1269  0.0285
 4084SOL    HW114790   7.691   5.229   4.199 -0.6990 -0.2307 -0.5924
 4084SOL    HW214791   7.714   5.087   4.150 -0.8640 -0.5814  0.3338
 4085SOL     OW14792   0.168   0.460   6.163  0.4886 -0.7448 -0.2802
 4085SOL    HW114793   0.207   0.542   6.133  0.9427 -1.0858 -0.6213
 4085SOL    HW214794   0.079   0.462   6.128 -0.0779  0.4085  1.1857
 4086SOL     OW14795   9.935   1.184   1.595  0.0896 -0.4117 -0.3438
 4086SOL    HW114796   9.869   1.234   1.642 -0.1338 -0.5945 -0.4638
 4086SOL    HW214797   9.910   1.192   1.503  1.6915  1.6753 -0.6231
 4087SOL     OW14798   0.979   4.233   4.038 -0.3691  0.7844 -0.3799
 4087SOL    HW114799   1.035   4.160   4.012  1.4712  1.1730  2.2904
 4087SOL    HW214800   1.040   4.299   4.072 -2.3410  1.6307  1.6315
 4088SOL     OW14801   5.351   9.779   7.080 -0.0241  0.1678 -0.0172
 4088SOL    HW114802   5.432   9.762   7.129 -0.5428 -1.1869  0.4013
 4088SOL    HW214803   5.283   9.782   7.146 -0.4678  0.1850 -0.4765
 4089SOL     OW14804   1.425   9.026   0.138 -0.0469 -0.9847 -0.4802
 4089SOL    HW114805   1.503   8.992   0.093  0.5619  1.4518 -1.3565
 4089SOL    HW214806   1.460   9.079   0.209 -0.9754 -1.5135  0.3909
 4090SOL     OW14807   4.345   7.252   9.766  0.5546  0.5446  0.0046
 4090SOL    HW114808   4.280   7.195   9.726  0.5953  0.3024  0.2817
 4090SOL    HW214809   4.374   7.310   9.696  0.0018  0.6849 -0.1069
 4091SOL     OW14810   7.995   9.024   1.991 -0.2106 -0.2129 -0.0925
 4091SOL    HW114811   7.945   9.089   2.039 -1.3084 -0.1867 -1.2425
 4091SOL    HW214812   8.087   9.045   2.009 -0.5655 -1.3538  3.5111
 4092SOL     OW14813   4.947   7.403   4.865  0.0776  0.5587  0.1826
 4092SOL    HW114814   4.946   7.316   4.827  1.9938 -0.3759  2.1917
 4092SOL    HW214815   4.885   7.453   4.812  0.4287 -1.4808 -2.2233
 4093SOL     OW14816   6.294   6.831   4.901 -0.1118 -0.7238 -0.8393
 4093SOL    HW114817   6.236   6.770   4.947 -0.1655 -0.6901 -0.8634
 4093SOL    HW214818   6.366   6.846   4.963  0.3239 -1.4675 -1.1538
 4094SOL     OW14819   9.287   9.380   6.455  0.2055 -0.1569 -0.5878
 4094SOL    HW114820   9.328   9.305   6.412  0.1940 -0.4979 -0.0111
 4094SOL    HW214821   9.360   9.441   6.471  0.5670 -0.9461  0.8190
 4095SOL     OW14822   5.299   6.611   7.056 -0.2115  0.0299  0.1258
 4095SOL    HW114823   5.362   6.626   7.127  0.1228  2.7754 -0.7105
 4095SOL    HW214824   5.303   6.690   7.003 -3.6269 -0.1828 -0.5557
 4096SOL     OW14825   9.988   9.601   3.438 -0.1961 -0.5359 -0.5550
 4096SOL    HW114826   9.914   9.544   3.414 -1.6517  0.6102  1.0145
 4096SOL    HW214827  10.035   9.552   3.506 -1.1545 -0.1186  0.4316
 4097SOL     OW14828   9.519   8.609   5.177 -0.1190 -0.4285 -0.2482
 4097SOL    HW114829   9.430   8.574   5.177 -0.7083  1.0276 -1.8709
 4097SOL    HW214830   9.546   8.607   5.085  1.6190 -1.0534  0.2478
 4098SOL     OW14831   9.808   0.149   5.197 -0.1237 -0.3218 -0.0979
 4098SOL    HW114832   9.902   0.167   5.190 -0.1197  0.9835  2.3768
 4098SOL    HW214833   9.767   0.235   5.186 -0.9787 -0.7582 -0.3539
 4099SOL     OW14834   8.637   4.149   0.516 -0.6524 -0.0697 -0.0475
 4099SOL    HW114835   8.699   4.098   0.568  0.6246  1.6833  0.2184
 4099SOL    HW214836   8.654   4.122   0.425 -2.1378 -2.3425  0.3149
 4100SOL     OW14837   0.404   9.180  10.158  0.4808  0.5758 -0.5711
 4100SOL    HW114838   0.347   9.115  10.116 -0.1152  0.8897 -0.2660
 4100SOL    HW214839   0.467   9.128  10.208 -0.0791  0.2270 -0.2114
 4101SOL     OW14840   1.704   9.932   2.053 -0.3158  0.0272  0.0554
 4101SOL    HW114841   1.795   9.905   2.050 -0.5599 -0.8502  0.6190
 4101SOL    HW214842   1.656   9.861   2.009 -0.7446  0.4126 -0.1094
 4102SOL     OW14843   3.247   3.297   8.424  0.1579 -0.1576  0.2767
 4102SOL    HW114844   3.256   3.238   8.349  1.5559  1.1547 -0.6251
 4102SOL    HW214845   3.153   3.302   8.439  0.0237 -2.6231  0.3876
 4103SOL     OW14846   4.007   0.348   6.813 -0.4441 -0.8233 -0.0816
 4103SOL    HW114847   3.921   0.352   6.854 -0.7421  0.8886 -0.8231
 4103SOL    HW214848   4.007   0.419   6.749  1.4495 -0.9012 -0.2148
 4104SOL     OW14849   5.859   8.996   5.925  0.0915  0.5787 -0.3363
 4104SOL    HW114850   5.816   8.926   5.974  0.7319 -0.6973 -1.5537
 4104SOL    HW214851   5.952   8.974   5.928  0.0484 -0.1382 -3.0003
 4105SOL     OW14852   9.847   5.576   2.637 -0.1354  0.4967 -0.6347
 4105SOL    HW114853   9.895   5.650   2.600 -0.3044  0.4782 -0.8930
 4105SOL    HW214854   9.843   5.595   2.731 -0.4174  0.9543 -0.7371
 4106SOL     OW14855   5.857   7.509   3.974 -0.2514 -0.1923  0.1380
 4106SOL    HW114856   5.784   7.449   3.955 -0.5531  0.5405 -1.0989
 4106SOL    HW214857   5.873   7.499   4.068  0.4213 -3.0007 -0.2388
 4107SOL     OW14858   0.257   7.453   7.398  0.3376 -0.1355 -0.0843
 4107SOL    HW114859   0.262   7.451   7.303  1.9960 -0.6436 -0.0119
 4107SOL    HW214860   0.163   7.456   7.418 -0.0452 -1.0051 -1.7051
 4108SOL     OW14861   0.829   4.851   2.041 -0.1240  0.2477  0.3463
 4108SOL    HW114862   0.752   4.907   2.043 -0.0959  0.3005  0.0726
 4108SOL    HW214863   0.845   4.827   2.132  0.1236  1.0449  0.5211
 4109SOL     OW14864   8.586   3.855   9.380 -0.2979  0.3802 -0.3882
 4109SOL    HW114865   8.560   3.768   9.409 -0.1216  0.3027 -0.4678
 4109SOL    HW214866   8.675   3.866   9.413 -1.1699  1.4661  1.7374
 4110SOL     OW14867   4.717   4.793   6.202  0.3605  0.1353  0.0148
 4110SOL    HW114868   4.629   4.768   6.229  0.4120  0.4685  0.4980
 4110SOL    HW214869   4.717   4.889   6.207  0.0069  0.2926 -2.3051
 4111SOL     OW14870   2.624   2.845   5.770 -0.2113  0.4910 -0.2043
 4111SOL    HW114871   2.681   2.843   5.847  2.2196 -0.2605 -1.9484
 4111SOL    HW214872   2.566   2.919   5.784  0.6378  0.7596  2.0321
 4112SOL     OW14873   9.917   4.401   5.745 -0.0333  0.3763  0.8756
 4112SOL    HW114874   9.833   4.384   5.787 -0.4873  0.6644  0.0963
 4112SOL    HW214875   9.937   4.320   5.699 -0.9816  1.0565 -0.7797
 4113SOL     OW14876   9.553   6.523   2.326  0.2918 -0.3386  0.3781
 4113SOL    HW114877   9.642   6.534   2.294 -0.3058  1.0646 -0.8543
 4113SOL    HW214878   9.510   6.467   2.261  0.2123 -0.8402  0.8577
 4114SOL     OW14879   6.449   1.568   0.934 -0.3207  0.2007  0.5272
 4114SOL    HW114880   6.445   1.479   0.970  1.5476 -0.6125 -1.1713
 4114SOL    HW214881   6.371   1.575   0.880  0.6825 -1.2729 -1.1698
 4115SOL     OW14882   2.987   3.677   1.203  0.1050  0.1941  0.1838
 4115SOL    HW114883   3.019   3.747   1.145 -2.5915 -0.0500 -1.7459
 4115SOL    HW214884   3.022   3.597   1.165 -0.5737  0.1533 -0.3910
 4116SOL     OW14885   7.722   2.165   3.741 -0.1994  0.1072 -0.0311
 4116SOL    HW114886   7.686   2.254   3.739 -0.4598 -0.0061 -0.6370
 4116SOL    HW214887   7.746   2.150   3.832  0.3275  0.9924 -0.0251
 4117SOL     OW14888   2.372   4.250   3.159 -0.0228  0.4441 -0.0734
 4117SOL    HW114889   2.424   4.223   3.084  0.3693  1.0317 -0.0093
 4117SOL    HW214890   2.412   4.332   3.189 -1.6650  1.5081 -0.7243
 4118SOL     OW14891   0.038   8.020   5.648 -0.0606 -0.0949 -0.4925
 4118SOL    HW114892   0.086   8.036   5.730  0.5292  1.0112 -1.0457
 4118SOL    HW214893   0.018   8.107   5.615 -0.7248 -0.5485 -1.2882
 4119SOL     OW14894   4.099   6.468   3.598 -0.6031 -0.4062  0.1530
 4119SOL    HW114895   4.136   6.550   3.631  1.4326 -0.3571 -2.0800
 4119SOL    HW214896   4.139   6.400   3.652 -0.7057 -0.0530  0.6705
 4120SOL     OW14897   8.349   9.460   1.325  0.0343 -0.2968  0.0959
 4120SOL    HW114898   8.273   9.501   1.367  1.1175  1.4902  0.3378
 4120SOL    HW214899   8.372   9.520   1.254 -0.8711 -2.5480 -2.1896
 4121SOL     OW14900  10.173   6.592   9.868  0.3249 -0.2196 -0.0301
 4121SOL    HW114901  10.243   6.564   9.809  0.1371  0.8937 -0.8099
 4121SOL    HW214902  10.207   6.575   9.955  0.0164 -3.2597 -0.4464
 4122SOL     OW14903   4.509   6.679   0.931 -0.3187  0.2594 -0.1030
 4122SOL    HW114904   4.470   6.676   1.018 -2.3673  1.1571 -0.9601
 4122SOL    HW214905   4.556   6.596   0.923 -0.9326 -0.2492  1.4715
 4123SOL     OW14906   7.815   5.883  10.089 -0.6742 -0.0581  0.7352
 4123SOL    HW114907   7.735   5.848  10.050 -1.0910  1.3627  0.2742
 4123SOL    HW214908   7.786   5.928  10.168 -0.0844 -1.1147  1.5780
 4124SOL     OW14909   6.321   1.843   1.347 -0.3842  0.6555  0.4913
 4124SOL    HW114910   6.359   1.906   1.286  0.2833 -0.6010 -0.4036
 4124SOL    HW214911   6.355   1.869   1.433 -1.6086  2.6436  0.4167
 4125SOL     OW14912   9.461   8.400   3.040 -0.0549 -0.0719  0.2248
 4125SOL    HW114913   9.396   8.386   3.109 -1.1560  0.5462 -0.6644
 4125SOL    HW214914   9.537   8.348   3.067 -0.1539  0.8223  2.3250
 4126SOL     OW14915   5.869   4.828   6.391  0.3587 -0.4258  0.2062
 4126SOL    HW114916   5.843   4.842   6.300  1.1867 -0.8930 -0.1094
 4126SOL    HW214917   5.874   4.733   6.400 -1.6094 -0.4441  1.2872
 4127SOL     OW14918   7.253   1.035   9.657  0.6008 -0.1129 -0.0002
 4127SOL    HW114919   7.162   1.058   9.677  1.2108  0.8958  1.7915
 4127SOL    HW214920   7.304   1.106   9.696  2.2817 -1.8576  1.0731
 4128SOL     OW14921   0.290   7.096   7.269 -0.8810  0.3442  0.0219
 4128SOL    HW114922   0.319   7.175   7.223  2.7927  1.0940  3.3185
 4128SOL    HW214923   0.209   7.123   7.313 -0.0423  2.0767  0.5531
 4129SOL     OW14924   0.629   8.683   5.225 -0.0410 -0.3031 -0.0447
 4129SOL    HW114925   0.609   8.590   5.226  0.4791 -0.4194 -0.4158
 4129SOL    HW214926   0.580   8.718   5.150 -1.1832 -0.0580  0.7952
 4130SOL     OW14927   8.302   3.843   1.381  0.1256  0.4065 -0.3498
 4130SOL    HW114928   8.334   3.925   1.343 -1.4077  1.5185  0.6607
 4130SOL    HW214929   8.259   3.870   1.462  2.3759 -1.7964  1.6512
 4131SOL     OW14930   6.437   0.886   4.207  0.2169 -0.0259 -0.2043
 4131SOL    HW114931   6.425   0.837   4.289  0.8707 -0.6415 -0.4650
 4131SOL    HW214932   6.457   0.975   4.235 -1.4682  0.2274  0.2761
 4132SOL     OW14933   9.987   0.420   9.107 -0.0450  0.1037 -0.2594
 4132SOL    HW114934  10.033   0.436   9.190  0.0979  1.9733 -0.6807
 4132SOL    HW214935  10.048   0.446   9.039  0.2018 -2.3368 -1.0394
 4133SOL     OW14936   6.946   6.547   8.660  0.1705 -0.4790  0.1105
 4133SOL    HW114937   6.871   6.553   8.601  0.5008  2.6505 -0.0855
 4133SOL    HW214938   7.015   6.599   8.617  1.2267 -0.2300  2.0239
 4134SOL     OW14939   7.956   1.992   2.905  0.1615  0.3011 -0.0800
 4134SOL    HW114940   7.997   2.020   2.823 -0.6851 -0.3561 -0.7352
 4134SOL    HW214941   7.989   2.054   2.970  0.5487  1.0664 -0.9870
 4135SOL     OW14942   6.421   7.660   6.949 -0.3741  0.0410 -0.1089
 4135SOL    HW114943   6.328   7.668   6.927 -0.4013  1.3074  0.4438
 4135SOL    HW214944   6.453   7.750   6.950  0.5586 -0.2950  0.9961
 4136SOL     OW14945   7.766   4.563   1.419 -0.0630  0.7575  0.8074
 4136SOL    HW114946   7.780   4.650   1.455  0.2887  0.6189  1.0088
 4136SOL    HW214947   7.852   4.521   1.423 -0.3687  0.1774  1.3210
 4137SOL     OW14948   3.800   4.690   7.845  0.4085 -0.0443  0.4541
 4137SOL    HW114949   3.840   4.604   7.833 -0.1465 -0.4300  1.2782
 4137SOL    HW214950   3.781   4.695   7.939 -0.9823  0.3293  0.1752
 4138SOL     OW14951   9.999   2.173   4.254 -0.0062  0.3482  0.5908
 4138SOL    HW114952   9.992   2.103   4.189  2.8817  0.7121 -0.2073
 4138SOL    HW214953  10.018   2.129   4.336 -1.1796  0.0339  0.7002
 4139SOL     OW14954   3.785   8.511   9.566  0.3953  0.1611 -0.2372
 4139SOL    HW114955   3.791   8.548   9.654 -0.3203  2.0407 -0.9641
 4139SOL    HW214956   3.875   8.502   9.537  0.7355 -2.4028  1.4549
 4140SOL     OW14957   8.439   1.701   4.814 -0.4833  0.1499  0.6142
 4140SOL    HW114958   8.388   1.628   4.779  1.2673 -1.2442  0.9281
 4140SOL    HW214959   8.445   1.682   4.908  1.8590 -0.5000  0.3615
 4141SOL     OW14960   5.315   7.423   9.256 -0.2737 -0.2728 -0.0630
 4141SOL    HW114961   5.251   7.492   9.272  0.8040  0.6052  0.4626
 4141SOL    HW214962   5.300   7.361   9.327 -1.0420 -0.4580 -0.3724
 4142SOL     OW14963   0.561   1.778   7.784 -0.2981 -0.1396 -0.0144
 4142SOL    HW114964   0.488   1.722   7.758 -0.4974 -0.1720  0.6045
 4142SOL    HW214965   0.569   1.765   7.879  0.7097 -0.3853 -0.1197
 4143SOL     OW14966   6.590   5.570   6.212  0.4247  0.0665 -0.8399
 4143SOL    HW114967   6.645   5.587   6.288 -1.2149 -1.3593  0.7009
 4143SOL    HW214968   6.583   5.655   6.168  1.0053  1.0012  0.8334
 4144SOL     OW14969   0.556   1.743   3.712  0.0116 -0.1154  0.2354
 4144SOL    HW114970   0.508   1.823   3.691 -1.8942 -1.4980 -0.8014
 4144SOL    HW214971   0.615   1.768   3.783 -1.3183  1.9439  0.6360
 4145SOL     OW14972   7.194   7.213   2.876  0.3762 -0.0893  0.2419
 4145SOL    HW114973   7.238   7.208   2.791 -1.1858  0.7663 -0.6228
 4145SOL    HW214974   7.260   7.251   2.934  0.7684  1.2633 -1.0602
 4146SOL     OW14975   1.587   0.283   9.584  0.3045  0.3943  0.6112
 4146SOL    HW114976   1.551   0.359   9.537 -0.4695 -0.6167 -0.4719
 4146SOL    HW214977   1.678   0.279   9.555 -0.5737 -1.1584 -2.1172
 4147SOL     OW14978   7.724   3.934   4.574  0.8696  0.2967  0.3793
 4147SOL    HW114979   7.778   3.856   4.557  0.6676  0.2162  0.1095
 4147SOL    HW214980   7.787   4.001   4.601  0.8592 -0.4616  2.3742
 4148SOL     OW14981   2.410   6.221   6.672 -0.0769 -0.2064 -0.4219
 4148SOL    HW114982   2.449   6.133   6.672  0.0435 -0.1570  0.3930
 4148SOL    HW214983   2.326   6.209   6.628  0.1077 -0.6558 -0.6635
 4149SOL     OW14984   2.460   5.638   2.521 -0.1025 -0.3354 -0.4409
 4149SOL    HW114985   2.473   5.711   2.461  2.0843  0.8805  1.4270
 4149SOL    HW214986   2.369   5.647   2.551  0.0954  1.5226 -0.3618
 4150SOL     OW14987   8.002   0.316   4.403 -0.3571 -0.1922 -0.4694
 4150SOL    HW114988   8.085   0.348   4.437 -0.7973  2.3793 -1.6158
 4150SOL    HW214989   8.012   0.221   4.396  2.2671  0.0374 -0.0631
 4151SOL     OW14990   7.731   4.704   3.201 -0.0966 -0.1623  0.3103
 4151SOL    HW114991   7.781   4.636   3.246  1.0423 -0.2619 -1.0730
 4151SOL    HW214992   7.791   4.779   3.197 -0.4148  0.0563 -0.4872
 4152SOL     OW14993   8.360   5.189   3.212  0.3063 -0.0305  0.1124
 4152SOL    HW114994   8.323   5.265   3.168 -0.5208 -0.1230  0.6351
 4152SOL    HW214995   8.328   5.195   3.302 -0.0723 -1.1813  0.0703
 4153SOL     OW14996   2.845   1.343   5.827 -0.4816 -0.5014  0.2220
 4153SOL    HW114997   2.837   1.395   5.747  0.7613 -1.6550 -0.6730
 4153SOL    HW214998   2.874   1.257   5.797 -0.6030 -1.1357  1.8664
 4154SOL     OW14999   9.562   2.771   7.932 -0.0047 -0.9499  0.1203
 4154SOL    HW115000   9.466   2.771   7.939  0.0820 -3.0958  1.6914
 4154SOL    HW215001   9.580   2.715   7.856  0.0310 -0.7655 -0.0093
 4155SOL     OW15002   8.394   0.067   7.807 -0.3119 -0.2108 -0.4618
 4155SOL    HW115003   8.473   0.108   7.841 -0.3015 -0.6761  0.0837
 4155SOL    HW215004   8.395   0.085   7.713  0.1346  0.2883 -0.3608
 4156SOL     OW15005   7.006   5.987   9.251  0.2755  0.2816 -0.2024
 4156SOL    HW115006   7.018   5.893   9.234  0.0387  0.2098  0.0230
 4156SOL    HW215007   7.065   6.005   9.324 -0.3448  0.1107  0.3504
 4157SOL     OW15008   0.348   1.341   8.031  0.1058 -0.1712 -0.7409
 4157SOL    HW115009   0.422   1.394   8.060  1.0151 -0.7031 -2.0604
 4157SOL    HW215010   0.355   1.259   8.081  0.8175 -0.5011 -1.3773
 4158SOL     OW15011   3.081   7.842   4.361 -0.1018  0.1801  0.1796
 4158SOL    HW115012   3.037   7.786   4.425  0.7838 -1.9082 -1.0053
 4158SOL    HW215013   3.173   7.818   4.368  0.0736  0.3009 -1.5144
 4159SOL     OW15014   9.691   6.195   9.568 -0.6769  0.7347 -0.0619
 4159SOL    HW115015   9.756   6.244   9.517 -3.5267  2.2543 -2.4213
 4159SOL    HW215016   9.677   6.249   9.646  2.1825 -0.5494  1.4225
 4160SOL     OW15017   6.478   0.552   1.328  0.5750 -0.0009 -0.0190
 4160SOL    HW115018   6.507   0.533   1.417 -0.7697 -1.5817  0.1241
 4160SOL    HW215019   6.547   0.517   1.272  1.6733  1.4620  0.4021
 4161SOL     OW15020   8.330   5.721   6.589  0.1387 -0.0758 -0.1991
 4161SOL    HW115021   8.301   5.721   6.680  0.3527  1.3516 -0.1224
 4161SOL    HW215022   8.254   5.753   6.540  0.8120  1.5288 -0.2369
 4162SOL     OW15023   3.760   4.109   5.166  0.3386 -0.5788  0.0448
 4162SOL    HW115024   3.854   4.110   5.184  0.2060 -0.3215  0.7454
 4162SOL    HW215025   3.752   4.073   5.078  1.0800 -0.8502  0.0906
 4163SOL     OW15026   9.716   7.669   3.853  0.0677 -0.1664 -0.0552
 4163SOL    HW115027   9.749   7.755   3.878 -1.7042  0.9782 -1.5778
 4163SOL    HW215028   9.790   7.610   3.867  1.2093  1.5366  1.2936
 4164SOL     OW15029   5.282   3.179   9.463 -0.5479  0.0371 -0.0344
 4164SOL    HW115030   5.205   3.161   9.409 -0.1046  1.0070 -1.0160
 4164SOL    HW215031   5.346   3.114   9.436 -0.6289 -0.0359 -0.0501
 4165SOL     OW15032   9.681   7.348   5.979 -0.1008  0.3631  0.2091
 4165SOL    HW115033   9.715   7.288   6.046  0.4028 -0.4200 -0.7451
 4165SOL    HW215034   9.644   7.420   6.029 -2.8422 -1.8264  1.5109
 4166SOL     OW15035   7.657   1.809   0.866 -0.0971  0.2141 -0.0787
 4166SOL    HW115036   7.715   1.825   0.940  0.8339  0.0372 -0.7605
 4166SOL    HW215037   7.664   1.714   0.850  1.3840  0.5582 -1.7291
 4167SOL     OW15038   9.485   3.440   5.171 -0.0038  0.0479  0.1316
 4167SOL    HW115039   9.418   3.476   5.229 -0.3718  0.7632 -0.7307
 4167SOL    HW215040   9.440   3.429   5.087  0.9327  0.4286 -0.4186
 4168SOL     OW15041   0.983   9.804   6.589 -0.1531 -0.8275  0.1128
 4168SOL    HW115042   0.907   9.746   6.584 -0.1382 -0.7505 -1.0288
 4168SOL    HW215043   0.966   9.873   6.526  0.0856  0.1302  1.0674
 4169SOL     OW15044   5.264   0.069   4.653 -0.2259 -0.2101  0.0766
 4169SOL    HW115045   5.189   0.050   4.710  1.3708 -0.5001  2.1568
 4169SOL    HW215046   5.284   0.161   4.669  2.1720 -1.0641  2.4733
 4170SOL     OW15047   8.800   1.073   3.167  0.3891  0.2040  0.5629
 4170SOL    HW115048   8.793   1.027   3.083  0.5819  0.3005  0.4928
 4170SOL    HW215049   8.861   1.145   3.150  0.6591  0.0497  0.8614
 4171SOL     OW15050   7.746   0.127   6.570 -0.2686 -0.1553  0.5412
 4171SOL    HW115051   7.829   0.173   6.553  1.2230 -1.9852  2.5337
 4171SOL    HW215052   7.739   0.064   6.499  0.2681 -0.2629  0.5805
 4172SOL     OW15053   4.982   3.188   6.782 -0.0643  0.1156  0.1422
 4172SOL    HW115054   4.901   3.137   6.792 -0.0330 -0.4575 -2.2088
 4172SOL    HW215055   4.955   3.279   6.789 -1.0113 -0.0586 -1.1019
 4173SOL     OW15056   6.331   4.626   7.722  0.2779  0.0906  0.2677
 4173SOL    HW115057   6.391   4.566   7.677 -0.6700 -0.8671  0.2757
 4173SOL    HW215058   6.244   4.597   7.696 -0.2675 -0.0679  2.2089
 4174SOL     OW15059   0.953   0.050   2.143 -0.0192 -0.0753  0.4633
 4174SOL    HW115060   0.947   0.047   2.048 -0.8599 -0.7595  0.5306
 4174SOL    HW215061   0.875   0.099   2.170  0.0323 -0.1898  0.8181
 4175SOL     OW15062   1.568   6.789  10.083 -0.1701  0.5377  0.6274
 4175SOL    HW115063   1.483   6.768  10.122 -1.9146  1.7654 -2.3834
 4175SOL    HW215064   1.597   6.706  10.045 -0.8863  0.5230  0.0967
 4176SOL     OW15065   8.807   5.417   4.217  0.5580 -0.5073  0.2526
 4176SOL    HW115066   8.859   5.345   4.253  0.3574 -0.4063  0.7529
 4176SOL    HW215067   8.792   5.475   4.292  1.0792  0.2719 -0.2444
 4177SOL     OW15068   1.649   5.163   6.853  0.0850 -0.4323 -0.0994
 4177SOL    HW115069   1.573   5.220   6.852  0.5958  0.3182  1.7122
 4177SOL    HW215070   1.616   5.079   6.885 -0.3654 -0.7405 -1.3226
 4178SOL     OW15071   2.449  10.198   2.926  0.4896  0.4184 -0.1002
 4178SOL    HW115072   2.516  10.179   2.860  1.3002  1.3117  0.4605
 4178SOL    HW215073   2.428  10.112   2.964  0.4771 -0.0094 -1.0747
 4179SOL     OW15074   1.919   9.645   2.712  0.0415 -0.7335  0.4098
 4179SOL    HW115075   1.967   9.660   2.630  0.3101  0.4905  0.7844
 4179SOL    HW215076   1.834   9.687   2.697 -0.0254 -0.7842  0.6542
 4180SOL     OW15077   6.704   1.821   9.542 -0.0827 -0.8081 -0.5864
 4180SOL    HW115078   6.688   1.775   9.624 -1.9782  1.5324  0.4426
 4180SOL    HW215079   6.764   1.891   9.566 -1.4819  0.5414 -0.9088
 4181SOL     OW15080   4.670   7.949   4.090 -0.6470 -0.0009 -0.1791
 4181SOL    HW115081   4.575   7.943   4.103 -0.8153 -2.0575 -2.0464
 4181SOL    HW215082   4.708   7.898   4.161 -0.9624  0.2767  0.1881
 4182SOL     OW15083   1.786   3.760   6.794 -0.1437 -0.4064  0.8233
 4182SOL    HW115084   1.849   3.820   6.834 -0.5852 -1.5384  3.2639
 4182SOL    HW215085   1.839   3.684   6.768  0.3354  0.7800 -1.8496
 4183SOL     OW15086   7.941   4.453   5.189 -0.0621  0.0302 -0.2482
 4183SOL    HW115087   7.922   4.483   5.100  1.4145  0.2117 -0.5106
 4183SOL    HW215088   7.910   4.524   5.245 -1.2071 -0.1840 -0.5946
 4184SOL     OW15089   8.138   5.751   4.498  0.0395 -0.4620 -0.1308
 4184SOL    HW115090   8.212   5.811   4.504  0.7728 -1.4300  0.5019
 4184SOL    HW215091   8.177   5.665   4.483 -1.0131 -0.7622 -1.3215
 4185SOL     OW15092   8.350   8.489   1.351  0.6358 -0.3514 -0.0739
 4185SOL    HW115093   8.281   8.546   1.318  1.0092 -0.8101 -1.7224
 4185SOL    HW215094   8.373   8.526   1.436 -0.5547  0.7184 -0.1959
 4186SOL     OW15095   4.720   0.034   6.069  0.0593 -0.1454  0.1139
 4186SOL    HW115096   4.702   0.071   5.982  0.6816 -1.4039 -0.5580
 4186SOL    HW215097   4.812   0.009   6.066  0.8376  2.2435  2.0617
 4187SOL     OW15098   3.483   0.969   5.567  0.3775 -0.2264 -0.4413
 4187SOL    HW115099   3.527   0.958   5.483 -0.6335  0.2312 -1.0385
 4187SOL    HW215100   3.416   0.900   5.568 -0.1122  0.2522 -0.3416
 4188SOL     OW15101   8.081   8.104   3.960 -0.2491  0.0136  0.2020
 4188SOL    HW115102   8.103   8.041   3.891  2.3650 -1.3826  2.1861
 4188SOL    HW215103   7.999   8.144   3.932  0.8905 -0.2963 -3.8152
 4189SOL     OW15104   2.243   3.422   2.717  0.1540 -0.3010 -0.2080
 4189SOL    HW115105   2.182   3.425   2.790  1.1422 -0.8039  0.6409
 4189SOL    HW215106   2.296   3.501   2.726 -1.9380  1.4381 -2.3498
 4190SOL     OW15107   5.788   1.564   2.153 -0.4185 -0.0234 -0.0672
 4190SOL    HW115108   5.875   1.560   2.192 -0.3438  0.3214 -0.1975
 4190SOL    HW215109   5.769   1.658   2.147 -0.9724 -0.1061  0.3546
 4191SOL     OW15110   8.212   6.967   5.105  0.2583  0.3323 -0.8017
 4191SOL    HW115111   8.285   6.986   5.164 -0.6290 -2.1765  1.2187
 4191SOL    HW215112   8.252   6.929   5.027  1.1523 -0.8359  0.2082
 4192SOL     OW15113   2.034   4.736   9.948  0.7056 -0.1709 -0.5097
 4192SOL    HW115114   2.075   4.675  10.009  0.8549  0.2792 -0.1562
 4192SOL    HW215115   2.089   4.815   9.953  0.4464  0.0342 -0.8740
 4193SOL     OW15116   1.399   8.842   7.996  0.2186 -0.3502  0.1095
 4193SOL    HW115117   1.464   8.911   8.007  1.8374 -2.4069  4.9133
 4193SOL    HW215118   1.439   8.779   7.936  0.1260  1.2157 -1.6183
 4194SOL     OW15119   7.822   0.477   0.603  0.2501 -0.2757 -0.0712
 4194SOL    HW115120   7.739   0.523   0.612  0.6714  0.5964 -0.5925
 4194SOL    HW215121   7.877   0.512   0.674  0.1869 -0.8344  0.2600
 4195SOL     OW15122   4.053   2.366   2.440  0.3269  0.2013  0.1487
 4195SOL    HW115123   4.135   2.402   2.476  1.7789  0.7646 -3.5679
 4195SOL    HW215124   4.003   2.444   2.415  1.0702 -0.2009 -2.7094
 4196SOL     OW15125   2.266   8.566   0.458  0.5584 -0.3003  1.0914
 4196SOL    HW115126   2.281   8.474   0.482  2.2021  0.0400  1.4125
 4196SOL    HW215127   2.291   8.616   0.536  3.9241  0.6793 -0.5044
 4197SOL     OW15128   4.745   5.019   2.186 -0.1548  0.2447 -0.7070
 4197SOL    HW115129   4.692   4.940   2.202 -0.4778  1.0228  2.5054
 4197SOL    HW215130   4.757   5.057   2.273  1.9013  2.5485 -1.9395
 4198SOL     OW15131   5.634   6.742   2.280 -0.5185  0.1610 -0.1526
 4198SOL    HW115132   5.599   6.671   2.333  1.3030  0.2864  1.3111
 4198SOL    HW215133   5.711   6.772   2.329 -0.8102  2.6274 -1.1169
 4199SOL     OW15134   5.897   1.505   1.084  0.3375 -0.0245 -0.2226
 4199SOL    HW115135   5.849   1.585   1.105 -1.0692 -0.5121 -1.5295
 4199SOL    HW215136   5.938   1.479   1.167 -0.6692  1.0473  0.6220
 4200SOL     OW15137   2.288   2.835   5.416  0.3121  0.9221 -0.4662
 4200SOL    HW115138   2.380   2.837   5.391  0.3571  1.7189 -0.2433
 4200SOL    HW215139   2.241   2.810   5.336  0.5971  1.8856 -0.9393
 4201SOL     OW15140   8.194   7.371   2.338  0.5739 -0.1745  0.1676
 4201SOL    HW115141   8.252   7.372   2.414  1.8113  0.3406 -0.7701
 4201SOL    HW215142   8.164   7.462   2.329  1.2428 -0.0271 -0.5728
 4202SOL     OW15143   1.251   7.081   6.386  0.0301  0.0094  0.3608
 4202SOL    HW115144   1.172   7.135   6.377 -0.7939 -1.2231  0.0184
 4202SOL    HW215145   1.312   7.136   6.435 -1.3229  0.7033  1.3004
 4203SOL     OW15146   1.656   2.931   2.090 -0.6217  0.6084 -0.1505
 4203SOL    HW115147   1.611   3.015   2.093 -1.3732  0.1986  0.0782
 4203SOL    HW215148   1.620   2.886   2.013  0.9576  1.1467 -1.2321
 4204SOL     OW15149   7.359  10.019   5.395 -0.0460  0.0503 -0.5672
 4204SOL    HW115150   7.368  10.113   5.411 -0.0599  0.1269 -1.0122
 4204SOL    HW215151   7.342   9.982   5.482 -1.3503  0.6152 -0.5747
 4205SOL     OW15152   6.302   8.047   9.987 -0.3093 -0.0224 -0.2455
 4205SOL    HW115153   6.270   8.127   9.946 -0.3360  1.1025  1.9448
 4205SOL    HW215154   6.247   8.036  10.065 -0.7778 -2.5458 -0.8765
 4206SOL     OW15155   2.074   0.930   1.670  0.3256  0.0541 -0.1524
 4206SOL    HW115156   2.035   0.886   1.594  0.9741 -1.6851  0.4998
 4206SOL    HW215157   2.163   0.951   1.643  0.2189  0.4021 -0.2386
 4207SOL     OW15158   9.434   4.685   3.097  0.4985  0.0848  0.5831
 4207SOL    HW115159   9.417   4.612   3.156 -1.0023  0.6102  0.8378
 4207SOL    HW215160   9.365   4.749   3.117  0.3261  0.5356 -1.2800
 4208SOL     OW15161   0.161   6.267   4.722 -0.3366  0.2367  0.6094
 4208SOL    HW115162   0.080   6.317   4.737 -0.3274  0.7111 -0.8697
 4208SOL    HW215163   0.225   6.307   4.781 -0.2761  2.1323 -0.6910
 4209SOL     OW15164   1.687   6.658   8.015 -0.2441  0.0639 -0.2253
 4209SOL    HW115165   1.758   6.704   7.971  0.9543 -0.5226  1.0591
 4209SOL    HW215166   1.644   6.725   8.069  1.0083 -0.1339  1.0408
 4210SOL     OW15167   6.470   2.505   8.902  0.1577 -0.4695 -0.2789
 4210SOL    HW115168   6.530   2.541   8.967 -1.3098  0.9948  0.2864
 4210SOL    HW215169   6.395   2.565   8.902 -0.6106 -1.3935 -2.1013
 4211SOL     OW15170   0.127   4.891   9.434 -0.3928 -0.2748 -0.7467
 4211SOL    HW115171   0.128   4.959   9.502 -1.6104 -0.6796 -0.3190
 4211SOL    HW215172   0.207   4.907   9.384  0.4676  0.0968  0.7145
 4212SOL     OW15173   3.135   7.247   4.268 -0.0192  0.2166  0.0954
 4212SOL    HW115174   3.053   7.263   4.220  1.0730 -0.4914 -2.0784
 4212SOL    HW215175   3.106   7.224   4.357 -2.1811 -0.0015 -0.6198
 4213SOL     OW15176   6.929   8.553   7.066  0.0146 -0.1222  0.3839
 4213SOL    HW115177   6.997   8.556   6.999  1.3331 -0.4949  1.6779
 4213SOL    HW215178   6.941   8.633   7.118 -0.8668  0.0689  0.3095
 4214SOL     OW15179   2.645   0.112   6.578  0.4641 -0.0839  0.2443
 4214SOL    HW115180   2.687   0.096   6.663  1.6040  0.0491 -0.2752
 4214SOL    HW215181   2.605   0.198   6.586  0.0710 -0.3230  0.8448
 4215SOL     OW15182  10.125   8.545   3.235 -0.1892  0.1380  0.6725
 4215SOL    HW115183  10.089   8.485   3.170 -1.2686 -0.6839  2.0052
 4215SOL    HW215184  10.207   8.576   3.196  0.5781 -2.4627  0.1078
 4216SOL     OW15185   3.142   8.212   9.347  0.0938 -0.2367 -0.2601
 4216SOL    HW115186   3.103   8.234   9.263 -0.0493 -0.9648 -0.3869
 4216SOL    HW215187   3.077   8.241   9.412  0.8813  1.7472 -0.3287
 4217SOL     OW15188   5.699   6.048   9.232  0.6639  0.0365 -0.2362
 4217SOL    HW115189   5.659   6.037   9.145  0.5081 -1.1851 -0.0150
 4217SOL    HW215190   5.792   6.056   9.214  0.4865  1.4318 -0.6392
 4218SOL     OW15191   0.617   9.287   5.670 -0.3727  0.3036 -0.1881
 4218SOL    HW115192   0.592   9.280   5.577 -0.9554 -2.4020  0.1240
 4218SOL    HW215193   0.713   9.281   5.669 -0.3453  0.8017 -0.6653
 4219SOL     OW15194   5.605   3.472   2.370 -0.1911 -0.0362  0.3569
 4219SOL    HW115195   5.566   3.558   2.380 -0.1316  0.3330 -2.1601
 4219SOL    HW215196   5.536   3.411   2.396 -2.1288  0.6483 -2.8780
 4220SOL     OW15197   1.795   8.435   4.839 -0.0446 -0.1914 -0.6639
 4220SOL    HW115198   1.823   8.487   4.914 -1.0994 -0.5730 -0.0039
 4220SOL    HW215199   1.836   8.349   4.853  1.7402  0.4308 -1.7798
 4221SOL     OW15200   6.301   5.957   7.426 -0.0679  0.2355 -0.2187
 4221SOL    HW115201   6.208   5.970   7.441 -0.3176 -1.3862 -0.3265
 4221SOL    HW215202   6.307   5.931   7.333  0.2845 -1.5624  0.2841
 4222SOL     OW15203   4.318   3.971   5.934 -0.0086  0.0906  0.0023
 4222SOL    HW115204   4.382   3.933   5.873 -1.4185 -2.9808  0.3308
 4222SOL    HW215205   4.253   4.012   5.877  1.1960  1.5184 -0.3844
 4223SOL     OW15206   8.860   8.979   8.608 -0.2736 -0.4071 -0.0865
 4223SOL    HW115207   8.867   9.041   8.680  0.8697 -1.3348  0.6254
 4223SOL    HW215208   8.770   8.946   8.613 -0.7458  0.8365 -0.2023
 4224SOL     OW15209   6.773   9.634   9.194  0.1638 -0.4147 -0.1270
 4224SOL    HW115210   6.791   9.672   9.280 -0.2662 -0.5647  0.0296
 4224SOL    HW215211   6.808   9.545   9.199 -1.5525 -1.0722  0.5411
 4225SOL     OW15212   3.754   5.553   6.732 -0.1149 -0.1933 -0.1541
 4225SOL    HW115213   3.819   5.485   6.715  1.1976  0.9890  0.0790
 4225SOL    HW215214   3.804   5.634   6.738 -1.8556  1.0935 -2.2631
 4226SOL     OW15215   1.008   0.327   5.019 -0.0244  0.1754  0.4424
 4226SOL    HW115216   0.969   0.390   4.957  1.4967  1.6787  0.9684
 4226SOL    HW215217   1.083   0.291   4.972 -1.8448 -2.5547 -0.4846
 4227SOL     OW15218   5.080   2.191  10.079  0.4770 -0.5791  0.6169
 4227SOL    HW115219   5.157   2.230  10.118  0.6715 -1.5096  1.1936
 4227SOL    HW215220   5.050   2.254  10.014  1.6134 -0.1406  0.5234
 4228SOL     OW15221   2.676   5.723   0.328 -0.0589 -0.1765  0.0277
 4228SOL    HW115222   2.689   5.809   0.289 -1.6988  0.2830  0.4418
 4228SOL    HW215223   2.588   5.698   0.301  0.6049 -1.9706 -0.5459
 4229SOL     OW15224   4.368   3.077   6.291  0.1242 -0.0049  0.2763
 4229SOL    HW115225   4.456   3.097   6.260 -0.0422 -0.8437 -0.7843
 4229SOL    HW215226   4.379   3.058   6.384  0.9120  0.8184  0.3639
 4230SOL     OW15227   4.421   8.303   8.762 -0.2747 -0.6568  0.2288
 4230SOL    HW115228   4.488   8.369   8.741 -1.2456 -0.2546 -1.6612
 4230SOL    HW215229   4.446   8.272   8.849  1.3029  0.8302  0.3473
 4231SOL     OW15230   7.675   2.540   6.838 -0.0661 -0.4185 -0.5970
 4231SOL    HW115231   7.759   2.562   6.797  0.2553 -0.5620 -0.0147
 4231SOL    HW215232   7.697   2.479   6.908 -0.4061  1.1455  0.9018
 4232SOL     OW15233   0.964   7.141   6.455 -0.3294  0.1036 -0.7091
 4232SOL    HW115234   0.941   7.233   6.469  0.3930  0.3100 -0.8242
 4232SOL    HW215235   0.919   7.094   6.524  1.6743  0.8909  1.1758
 4233SOL     OW15236  10.078   3.131   7.607  0.3997  0.0918 -0.0306
 4233SOL    HW115237  10.080   3.214   7.654  1.2438  1.0920 -1.7891
 4233SOL    HW215238  10.170   3.108   7.595  0.2378  0.6994 -2.6255
 4234SOL     OW15239   5.818   6.599   4.593 -0.1718  0.1356 -0.2036
 4234SOL    HW115240   5.765   6.672   4.627  0.2483  0.3024  0.1021
 4234SOL    HW215241   5.901   6.640   4.567  0.2201 -0.2969  0.3566
 4235SOL     OW15242   7.680   9.247   7.451  0.2334 -0.1357 -0.3561
 4235SOL    HW115243   7.639   9.171   7.493 -1.8483  1.1570  0.0236
 4235SOL    HW215244   7.687   9.223   7.359  1.8480 -1.7215  0.1482
 4236SOL     OW15245   3.600  10.058   5.612 -0.1386 -0.0835 -0.2699
 4236SOL    HW115246   3.608   9.988   5.676 -0.2890 -0.8761 -1.1099
 4236SOL    HW215247   3.681  10.109   5.621 -0.5953  0.4029  1.2262
 4237SOL     OW15248   9.612   5.865   7.074  0.2560 -0.6360 -0.0049
 4237SOL    HW115249   9.601   5.798   7.142  1.4820 -1.2173 -0.3707
 4237SOL    HW215250   9.689   5.837   7.025  1.9526  2.0606  1.0019
 4238SOL     OW15251   8.581   7.058   7.571  0.1372  0.0905  0.2103
 4238SOL    HW115252   8.597   7.136   7.623  1.3354  0.2628 -0.4139
 4238SOL    HW215253   8.562   6.990   7.636  0.6458  0.5284  0.8281
 4239SOL     OW15254   1.406   6.761   8.022  0.2580  0.4717 -0.0229
 4239SOL    HW115255   1.373   6.686   8.072  0.1459 -0.2604 -1.1650
 4239SOL    HW215256   1.348   6.833   8.045 -1.0230 -0.3578 -0.6008
 4240SOL     OW15257   8.732   3.286   4.759  0.0180  0.2127  0.1419
 4240SOL    HW115258   8.782   3.215   4.800  1.5787  0.4529 -1.2984
 4240SOL    HW215259   8.684   3.326   4.832  0.8589 -0.9128  1.3344
 4241SOL     OW15260   1.384   5.358   4.282  0.5085 -0.5760 -0.6222
 4241SOL    HW115261   1.363   5.447   4.253  0.4992 -0.3621  0.0294
 4241SOL    HW215262   1.421   5.316   4.204  2.9987  0.8246 -0.2201
 4242SOL     OW15263   1.868   9.324   1.667  0.1001 -0.1252  0.2195
 4242SOL    HW115264   1.826   9.408   1.685  1.3817  0.8075 -0.9984
 4242SOL    HW215265   1.946   9.324   1.723  0.5157 -0.1609 -0.3600
 4243SOL     OW15266   8.081   0.340   0.043  0.0257  0.0601 -0.0676
 4243SOL    HW115267   8.088   0.248   0.021 -0.2587  0.5354 -2.2007
 4243SOL    HW215268   7.999   0.369   0.003 -0.8433  0.8197  2.1410
 4244SOL     OW15269   3.787   5.369   7.570  0.1762 -0.2171  0.3063
 4244SOL    HW115270   3.859   5.430   7.583 -1.0506  0.9016  2.1432
 4244SOL    HW215271   3.753   5.353   7.659 -1.8386 -0.7117 -0.5318
 4245SOL     OW15272   0.702   0.637   2.435  0.4560  0.3072 -0.6887
 4245SOL    HW115273   0.628   0.586   2.402  0.4790  0.6519 -1.2874
 4245SOL    HW215274   0.718   0.603   2.523 -0.1911 -0.0063 -0.6914
 4246SOL     OW15275   3.169   3.968   8.859  0.0038 -0.1373  0.2668
 4246SOL    HW115276   3.203   4.054   8.883  1.0613 -0.6482  0.5957
 4246SOL    HW215277   3.183   3.963   8.764 -1.3543  0.6181  0.0098
 4247SOL     OW15278   6.492   5.768   2.836 -0.0487 -0.3772  0.5582
 4247SOL    HW115279   6.526   5.758   2.925  1.0990 -0.2003  0.1519
 4247SOL    HW215280   6.570   5.763   2.781 -0.6868  0.1219 -0.3876
 4248SOL     OW15281   4.553   5.954   7.817 -0.2582  0.5909  0.5968
 4248SOL    HW115282   4.623   5.986   7.873 -0.7165  0.6914  1.1147
 4248SOL    HW215283   4.594   5.887   7.763  0.2786  0.7806  0.7671
 4249SOL     OW15284   0.628   2.492   9.165  0.2663 -0.2397  0.2855
 4249SOL    HW115285   0.618   2.406   9.124 -0.3729  0.1324 -0.3426
 4249SOL    HW215286   0.662   2.548   9.096  0.1594  0.1515  0.5459
 4250SOL     OW15287   1.520   4.592   7.066  0.6108 -0.0038  0.4837
 4250SOL    HW115288   1.608   4.627   7.074  1.4158 -1.9346  0.1777
 4250SOL    HW215289   1.507   4.538   7.144 -0.7956  1.2921  1.1840
 4251SOL     OW15290   8.422   4.809   5.892  0.0268 -0.4590  0.3528
 4251SOL    HW115291   8.483   4.781   5.960 -0.1319 -0.8436  0.3369
 4251SOL    HW215292   8.342   4.831   5.939  0.5841  1.3131  0.5267
 4252SOL     OW15293   5.841   8.256   9.241 -0.2540 -0.3618  0.1660
 4252SOL    HW115294   5.805   8.196   9.305  2.3764 -0.2103  1.8857
 4252SOL    HW215295   5.885   8.200   9.177 -1.8040 -0.4501 -0.8529
 4253SOL     OW15296   1.183   6.347   7.746  0.5994  0.7183 -0.4721
 4253SOL    HW115297   1.106   6.317   7.795  0.0899 -0.3031 -1.8741
 4253SOL    HW215298   1.157   6.430   7.707 -0.6580 -0.7941 -2.9488
 4254SOL     OW15299   0.206   9.781   0.308 -0.3279  0.4425  0.6664
 4254SOL    HW115300   0.271   9.789   0.238 -0.7272 -0.2294  0.2168
 4254SOL    HW215301   0.144   9.851   0.292  0.6377  1.5023  1.4799
 4255SOL     OW15302   5.426   7.661   7.790  0.0130 -0.1009 -0.1398
 4255SOL    HW115303   5.410   7.568   7.777 -1.1508 -0.0376  0.8198
 4255SOL    HW215304   5.471   7.667   7.874 -0.1918  0.2282 -0.0509
 4256SOL     OW15305   0.775   9.821   3.430  0.2445 -0.4858  0.4693
 4256SOL    HW115306   0.804   9.731   3.417 -1.7019 -1.0159 -0.2681
 4256SOL    HW215307   0.693   9.814   3.477 -0.2041  0.8931 -0.0619
 4257SOL     OW15308   3.729   4.454   1.543 -0.2554  0.2463 -0.0027
 4257SOL    HW115309   3.758   4.430   1.631 -1.2023 -0.1217  0.2066
 4257SOL    HW215310   3.696   4.544   1.552 -1.2059 -0.1270  0.2016
 4258SOL     OW15311   5.440   6.174   0.209 -0.2321 -0.1940 -0.2161
 4258SOL    HW115312   5.425   6.268   0.197  1.4422  0.4472  2.2080
 4258SOL    HW215313   5.531   6.162   0.182  0.2307 -0.6828  1.5038
 4259SOL     OW15314  10.154   6.410   3.585  0.0841 -0.6748 -0.4005
 4259SOL    HW115315  10.113   6.325   3.573  0.6509 -1.0654  0.3953
 4259SOL    HW215316  10.093   6.459   3.640 -0.5212 -0.3513 -1.3438
 4260SOL     OW15317   7.206   1.055   1.515 -0.0119 -0.0201  0.0642
 4260SOL    HW115318   7.242   1.123   1.457  1.6840  0.7466  1.9315
 4260SOL    HW215319   7.212   0.974   1.463  1.2802  0.6688 -0.9094
 4261SOL     OW15320   3.338   9.102   7.914  0.1036  0.7200 -0.0453
 4261SOL    HW115321   3.417   9.145   7.884  0.2562  1.2136  1.0303
 4261SOL    HW215322   3.267   9.157   7.882  0.1514 -0.1600 -1.7049
 4262SOL     OW15323   9.148   2.321   6.341 -0.5336  0.1979 -0.0445
 4262SOL    HW115324   9.070   2.315   6.396 -0.1885  1.5974  0.6304
 4262SOL    HW215325   9.160   2.233   6.306 -2.2638 -0.0867  0.0466
 4263SOL     OW15326   6.478   1.093   2.923  0.1496  0.0727  1.2548
 4263SOL    HW115327   6.464   1.013   2.975  3.0136 -1.6547 -0.5052
 4263SOL    HW215328   6.444   1.071   2.836  0.3474  1.0322  0.9332
 4264SOL     OW15329   7.067   3.166   4.237 -0.1681  0.0854  0.3128
 4264SOL    HW115330   7.127   3.209   4.298  1.3246  0.0633 -1.1202
 4264SOL    HW215331   7.013   3.238   4.203 -0.2854  0.2564  0.8591
 4265SOL     OW15332   8.145   5.744   3.849  0.6775  0.2558  0.0822
 4265SOL    HW115333   8.197   5.671   3.884 -1.2351 -1.3299 -0.3422
 4265SOL    HW215334   8.144   5.808   3.920  1.8770 -0.3800  0.6923
 4266SOL     OW15335   7.292   2.066   8.488 -0.3389  0.0651  0.1786
 4266SOL    HW115336   7.202   2.096   8.504 -0.3564  0.0229  0.1561
 4266SOL    HW215337   7.283   1.974   8.464 -0.2112 -0.2281  1.1976
 4267SOL     OW15338   9.306   1.303   1.332  0.1519 -0.0759  0.4198
 4267SOL    HW115339   9.375   1.363   1.303 -0.3036  0.6981  0.9134
 4267SOL    HW215340   9.354   1.228   1.368  0.7431  0.3479  0.5417
 4268SOL     OW15341   2.009   4.236   2.898  0.4548 -0.1105 -0.8979
 4268SOL    HW115342   2.088   4.209   2.851  0.1899 -2.3681 -0.1165
 4268SOL    HW215343   2.029   4.218   2.990 -0.5685  0.3411 -0.5806
 4269SOL     OW15344   7.873   9.428   2.687  0.2747 -0.7508  0.1733
 4269SOL    HW115345   7.885   9.396   2.598  0.2840  0.9819 -0.4748
 4269SOL    HW215346   7.799   9.489   2.680 -0.0025 -0.9417  1.4281
 4270SOL     OW15347   8.545   5.037   1.188 -0.3932  0.3764  0.0078
 4270SOL    HW115348   8.458   5.003   1.209 -0.7243  1.4460  0.4079
 4270SOL    HW215349   8.537   5.073   1.100  0.2409 -1.5214 -0.8444
 4271SOL     OW15350   1.902  10.096   1.771  0.6047  0.3423 -0.2821
 4271SOL    HW115351   1.949  10.130   1.847  0.0267 -1.7702  1.0744
 4271SOL    HW215352   1.810  10.095   1.797  0.2892  0.4223 -1.3445
 4272SOL     OW15353   7.552   5.912   0.436 -0.4203 -0.5644  0.0424
 4272SOL    HW115354   7.530   5.824   0.467 -0.6891 -0.3322  0.5070
 4272SOL    HW215355   7.493   5.926   0.362  0.9096 -1.5193 -1.2372
 4273SOL     OW15356   2.307   5.941   6.078 -0.0101 -0.1020 -0.2175
 4273SOL    HW115357   2.268   5.971   6.160  0.3790  0.6278 -0.2906
 4273SOL    HW215358   2.369   6.010   6.055 -0.2101 -0.2431 -1.1967
 4274SOL     OW15359   8.054   9.153   0.219 -0.1621 -0.1640  0.3590
 4274SOL    HW115360   8.031   9.077   0.273  1.5132 -1.8114 -1.1614
 4274SOL    HW215361   7.973   9.176   0.174 -0.5264 -1.5505  0.2758
 4275SOL     OW15362   4.106   4.031   3.266 -0.5169  0.1775  0.7038
 4275SOL    HW115363   4.115   3.955   3.323  1.5631 -1.2271 -1.4261
 4275SOL    HW215364   4.086   4.103   3.326  0.9504 -1.3695  3.1621
 4276SOL     OW15365   9.483   8.423   0.159 -0.4058  0.0235  0.1101
 4276SOL    HW115366   9.516   8.365   0.090 -0.1397  1.5091 -1.0297
 4276SOL    HW215367   9.420   8.480   0.115  1.6069  2.6734  0.5029
 4277SOL     OW15368   0.471   0.441   9.810 -0.1175  0.1062 -0.1002
 4277SOL    HW115369   0.541   0.498   9.776 -0.2767 -0.1314 -0.8456
 4277SOL    HW215370   0.405   0.502   9.844 -0.1304  0.3675 -0.5787
 4278SOL     OW15371   5.003   0.516   7.108  0.0688 -0.5608 -0.3832
 4278SOL    HW115372   5.034   0.435   7.069 -1.4980 -1.6576  0.5968
 4278SOL    HW215373   5.005   0.579   7.036  6.0833 -0.0597  0.0057
 4279SOL     OW15374   5.116   2.999   5.461  0.5270 -0.2566 -0.4335
 4279SOL    HW115375   5.112   2.908   5.491 -2.4428 -0.0299  0.0566
 4279SOL    HW215376   5.105   3.051   5.541  0.6809  0.4858 -0.8920
 4280SOL     OW15377   4.714   5.388   1.250 -0.5311 -0.0438 -0.5137
 4280SOL    HW115378   4.725   5.297   1.220 -0.3510 -0.1074 -0.2617
 4280SOL    HW215379   4.623   5.393   1.278 -0.4187 -0.2742 -0.1064
 4281SOL     OW15380   1.609   4.182   4.975  0.4610  0.0070  0.5023
 4281SOL    HW115381   1.542   4.243   4.945  2.3744  1.6072 -0.6605
 4281SOL    HW215382   1.627   4.126   4.899  1.6617  0.7119  0.2572
 4282SOL     OW15383   1.645   5.893   8.289 -0.1130 -0.0811 -0.3985
 4282SOL    HW115384   1.574   5.908   8.352 -0.9603 -2.3198 -0.8107
 4282SOL    HW215385   1.722   5.877   8.344 -0.5184 -0.4786  0.0581
 4283SOL     OW15386   9.972   2.394   8.600  0.1677  0.2248 -0.2311
 4283SOL    HW115387   9.983   2.383   8.694  0.8669  0.3585 -0.2930
 4283SOL    HW215388  10.042   2.340   8.561 -0.4550 -0.2624 -0.6829
 4284SOL     OW15389   0.313   1.235   7.381  0.0314 -0.0230  0.1030
 4284SOL    HW115390   0.348   1.149   7.358  0.3166 -0.4373  2.0029
 4284SOL    HW215391   0.219   1.229   7.360 -0.0548 -0.9853  0.7713
 4285SOL     OW15392   3.444   1.517   8.339  0.1139  0.3220  0.1627
 4285SOL    HW115393   3.448   1.428   8.304  0.8873  0.1463  0.6889
 4285SOL    HW215394   3.506   1.566   8.285  0.8964  0.1744  0.9202
 4286SOL     OW15395   0.897   2.352   7.562 -0.0863  0.1799 -0.3188
 4286SOL    HW115396   0.859   2.424   7.511 -0.3155 -0.1630 -0.6392
 4286SOL    HW215397   0.909   2.388   7.650  2.5759  1.5318 -1.1966
 4287SOL     OW15398   3.947   8.436   7.379  0.8467 -0.0251  0.6634
 4287SOL    HW115399   3.969   8.387   7.299  1.0204 -1.3118  1.4829
 4287SOL    HW215400   4.030   8.477   7.405  0.4415  1.7119 -0.6775
 4288SOL     OW15401   9.399   3.920   8.121  0.1194 -0.4918  0.1072
 4288SOL    HW115402   9.334   3.965   8.175  1.7241  1.2083  0.6669
 4288SOL    HW215403   9.352   3.898   8.040 -1.0051  1.2381  0.2703
 4289SOL     OW15404   5.170   4.661   5.696  0.0019 -0.3165 -0.6206
 4289SOL    HW115405   5.164   4.568   5.717 -1.5279 -0.0256  0.2713
 4289SOL    HW215406   5.169   4.664   5.600 -1.3233 -1.1390 -0.6382
 4290SOL     OW15407   4.639   5.038   2.456 -0.1475  0.5849 -0.6684
 4290SOL    HW115408   4.682   5.089   2.525 -1.7179 -0.1605  0.9158
 4290SOL    HW215409   4.547   5.063   2.462 -0.2776  0.6763 -2.6790
 4291SOL     OW15410   6.695   7.773   8.305 -0.0811 -0.5727 -0.2886
 4291SOL    HW115411   6.660   7.770   8.394 -0.8838  0.7771 -0.5357
 4291SOL    HW215412   6.628   7.730   8.252 -0.7498  0.8131 -0.5761
 4292SOL     OW15413   3.993   6.504   7.640 -0.1059 -0.4212  0.2433
 4292SOL    HW115414   4.042   6.450   7.702 -0.6535 -1.7034 -0.4412
 4292SOL    HW215415   3.902   6.495   7.667 -0.3298 -0.8493 -0.6399
 4293SOL     OW15416   6.889   9.005   3.678 -0.3191  0.3967  0.3064
 4293SOL    HW115417   6.958   8.970   3.621  0.7874 -0.1734  1.9384
 4293SOL    HW215418   6.837   8.928   3.702 -0.6544  0.6025  0.2376
 4294SOL     OW15419   3.465   8.626   5.724  0.1860  0.9559  0.6143
 4294SOL    HW115420   3.428   8.567   5.659 -0.2696 -0.3040  1.9819
 4294SOL    HW215421   3.401   8.697   5.732 -0.9749 -0.1670  1.4957
 4295SOL     OW15422   1.656   0.209   6.367 -0.0038 -0.0731 -0.1700
 4295SOL    HW115423   1.581   0.169   6.323 -0.2343  0.3676 -0.1834
 4295SOL    HW215424   1.683   0.280   6.308  1.1323 -0.9269 -0.7195
 4296SOL     OW15425  10.154   3.380   6.584 -0.1119 -0.7570 -0.2907
 4296SOL    HW115426  10.091   3.368   6.512 -1.5176 -0.6024  0.8851
 4296SOL    HW215427  10.185   3.470   6.573 -0.3507 -0.7184 -0.6834
 4297SOL     OW15428   4.425   0.568   1.217 -0.5787 -0.4681  0.1708
 4297SOL    HW115429   4.444   0.477   1.239 -0.7329  0.2366  3.4228
 4297SOL    HW215430   4.511   0.605   1.197 -0.1859 -0.7055  1.3663
 4298SOL     OW15431   2.154   2.491   3.889 -0.8487 -0.3577 -0.3578
 4298SOL    HW115432   2.169   2.467   3.980 -3.3600 -0.7620 -0.0266
 4298SOL    HW215433   2.064   2.524   3.887  0.4106  3.2514 -1.9561
 4299SOL     OW15434   2.054   8.428   4.192  0.1932  0.0259  0.1280
 4299SOL    HW115435   2.113   8.502   4.178 -1.2730  1.1212 -0.4355
 4299SOL    HW215436   1.996   8.457   4.262 -0.2189 -0.6919  0.0804
 4300SOL     OW15437   7.078   5.564   7.131  0.1234 -0.0354 -0.0806
 4300SOL    HW115438   7.131   5.636   7.166 -0.9496  1.2176 -1.0006
 4300SOL    HW215439   7.126   5.485   7.156  1.6910  1.0197  0.3162
 4301SOL     OW15440   3.791  10.170   1.558  0.2567 -0.0905  0.0540
 4301SOL    HW115441   3.842  10.160   1.638  0.0260 -0.5531  0.1477
 4301SOL    HW215442   3.715  10.222   1.584 -0.4097 -1.2163  0.4066
 4302SOL     OW15443   1.873   0.194   7.909 -0.0782 -0.3137 -0.1874
 4302SOL    HW115444   1.806   0.186   7.842 -1.5111  1.6643  0.9515
 4302SOL    HW215445   1.928   0.267   7.879 -0.0014 -0.2180  0.1875
 4303SOL     OW15446   0.602   5.622   7.419  0.2137  0.2344 -0.1776
 4303SOL    HW115447   0.588   5.717   7.424  1.2308  0.3734 -0.0260
 4303SOL    HW215448   0.611   5.595   7.510 -0.9890 -0.1508 -0.1644
 4304SOL     OW15449   8.299   0.315   3.910  0.5287  0.2752 -0.1683
 4304SOL    HW115450   8.286   0.389   3.970  0.9217 -0.4848  0.8818
 4304SOL    HW215451   8.393   0.298   3.914  0.4501 -0.2329 -0.4572
 4305SOL     OW15452   9.705   6.837   1.068 -0.1204 -0.3571 -0.7276
 4305SOL    HW115453   9.711   6.930   1.045  0.0611 -0.3103 -0.4983
 4305SOL    HW215454   9.652   6.798   0.999 -1.4139  0.1910 -0.0665
 4306SOL     OW15455   3.330   9.641   7.170  0.0311 -0.5307 -0.4793
 4306SOL    HW115456   3.426   9.643   7.163  0.0527 -1.5562 -0.5785
 4306SOL    HW215457   3.306   9.553   7.140 -1.0179  0.0466 -1.3541
 4307SOL     OW15458   2.505  10.128   1.211  0.2177 -0.3073 -0.3958
 4307SOL    HW115459   2.447  10.053   1.224 -0.3406  0.2212  0.1827
 4307SOL    HW215460   2.460  10.183   1.147 -1.0395  1.2361  1.7475
 4308SOL     OW15461   0.396   3.466   2.543 -0.2107 -0.0410 -0.0925
 4308SOL    HW115462   0.384   3.550   2.499  1.1511  0.0396 -0.3323
 4308SOL    HW215463   0.361   3.402   2.482  0.0699  0.2246 -0.5378
 4309SOL     OW15464   4.908   2.295   1.545 -0.1759  0.0798 -0.0103
 4309SOL    HW115465   4.877   2.238   1.474  1.4105  0.1129 -0.7436
 4309SOL    HW215466   4.886   2.248   1.625 -1.2610 -0.3316 -0.5366
 4310SOL     OW15467   6.699   9.516   1.008 -0.5539  0.3430 -0.4459
 4310SOL    HW115468   6.782   9.521   0.961 -0.5077  0.6187 -0.3361
 4310SOL    HW215469   6.676   9.423   1.007 -0.3071  0.2831 -0.5871
 4311SOL     OW15470   1.166   8.993   2.723 -0.1139  0.0480  0.9378
 4311SOL    HW115471   1.119   8.975   2.804 -3.4410  0.4801 -0.8256
 4311SOL    HW215472   1.258   8.974   2.744 -1.1971 -2.0923  4.1020
 4312SOL     OW15473   4.828   8.729   7.297  0.1951 -0.0003 -0.5021
 4312SOL    HW115474   4.758   8.789   7.321  0.3317 -0.3008  0.6775
 4312SOL    HW215475   4.909   8.779   7.308  0.2423 -0.0524 -0.6031
 4313SOL     OW15476  10.120   6.952   6.009 -0.0828 -0.3312 -0.1041
 4313SOL    HW115477  10.132   6.896   5.933  2.7485  1.1716 -0.8137
 4313SOL    HW215478  10.102   7.039   5.973  0.3068  0.1910  0.9374
 4314SOL     OW15479   3.774   3.363   5.337  0.4258 -0.1043  0.3235
 4314SOL    HW115480   3.855   3.322   5.368 -0.7374 -2.5998  0.2257
 4314SOL    HW215481   3.706   3.332   5.397 -0.5441  1.5779  0.1294
 4315SOL     OW15482   0.097   3.677   2.446 -0.5581  0.2470 -0.1661
 4315SOL    HW115483   0.160   3.637   2.387  0.7220  1.2577  0.4913
 4315SOL    HW215484   0.038   3.726   2.387  0.9699  1.6132 -0.6202
 4316SOL     OW15485   9.853   5.357   0.801 -0.1104  0.2526 -0.1131
 4316SOL    HW115486   9.797   5.408   0.859 -1.3617 -0.7834 -0.3866
 4316SOL    HW215487   9.888   5.421   0.739 -1.0336  0.9013  0.0201
 4317SOL     OW15488   5.461   5.303   4.571  0.3992  0.2174 -0.2151
 4317SOL    HW115489   5.465   5.322   4.477 -1.2302 -0.9357 -0.5360
 4317SOL    HW215490   5.430   5.213   4.576  2.1929 -0.3447  1.4155
 4318SOL     OW15491   9.317   1.951   3.650 -0.1599 -0.7206 -0.3029
 4318SOL    HW115492   9.243   1.891   3.647 -1.6618  1.1068 -0.5573
 4318SOL    HW215493   9.307   1.997   3.734  0.7568 -0.5617 -0.2756
 4319SOL     OW15494   6.658   8.214   6.129 -0.0373 -0.0878 -0.6709
 4319SOL    HW115495   6.701   8.162   6.197 -0.1146  1.3633  0.5016
 4319SOL    HW215496   6.714   8.290   6.116 -3.1510  2.9057  2.3773
 4320SOL     OW15497   4.750   5.887   0.686 -0.8843 -0.2515  0.1455
 4320SOL    HW115498   4.722   5.965   0.734 -1.7815  0.2265 -1.1280
 4320SOL    HW215499   4.809   5.921   0.619 -0.0842 -0.8550  0.5362
 4321SOL     OW15500   9.187   9.350   5.992 -0.1507  0.0995  0.1451
 4321SOL    HW115501   9.165   9.404   5.916  0.3054 -1.1880 -0.9099
 4321SOL    HW215502   9.109   9.354   6.048 -0.9395  0.0860 -0.9409
 4322SOL     OW15503   4.562   6.375   3.579  0.0577 -0.1333 -0.2037
 4322SOL    HW115504   4.518   6.395   3.497 -0.7606 -1.4225 -0.0799
 4322SOL    HW215505   4.617   6.452   3.596  0.1709  0.1658 -1.9012
 4323SOL     OW15506   0.749   9.611   7.971  0.3956 -0.1577  0.5965
 4323SOL    HW115507   0.836   9.638   8.000  1.4455  0.7715 -3.1757
 4323SOL    HW215508   0.755   9.516   7.964  1.7500  0.0426 -1.4118
 4324SOL     OW15509   6.110  10.174   8.319 -0.3626 -0.0520  0.2021
 4324SOL    HW115510   6.124  10.125   8.238  0.3449 -0.9103  0.8312
 4324SOL    HW215511   6.163  10.128   8.384  0.0291  1.3349  0.8888
 4325SOL     OW15512   4.266   2.413   8.023  0.2548 -0.4688  0.3419
 4325SOL    HW115513   4.278   2.396   8.117  1.3631  2.4771  0.7762
 4325SOL    HW215514   4.352   2.441   7.992 -0.2434 -0.8475 -1.4549
 4326SOL     OW15515   4.949   9.053   1.578  0.0290  0.1678 -0.5243
 4326SOL    HW115516   4.998   9.063   1.497  0.0814 -0.0503 -0.5189
 4326SOL    HW215517   5.013   9.021   1.641  0.0359  0.5396 -0.3420
 4327SOL     OW15518   9.511   9.281   9.614 -0.4080 -0.4558  0.3779
 4327SOL    HW115519   9.600   9.311   9.632 -1.2960  2.6925 -0.1885
 4327SOL    HW215520   9.523   9.211   9.549  1.5713  0.8315 -0.6965
 4328SOL     OW15521   5.275   7.202   6.799  0.2666 -0.2779  0.3373
 4328SOL    HW115522   5.210   7.161   6.743  2.2773 -2.0253 -0.7595
 4328SOL    HW215523   5.232   7.209   6.885 -1.4803 -1.0234 -0.4648
 4329SOL     OW15524   4.097   8.492   9.536  0.3149  0.7132  0.1329
 4329SOL    HW115525   4.150   8.527   9.465 -0.0388  1.9018  0.4476
 4329SOL    HW215526   4.109   8.554   9.608  0.7276 -0.5177  1.1463
 4330SOL     OW15527   6.906   5.878   2.402  0.8390  0.1085 -0.4173
 4330SOL    HW115528   6.936   5.793   2.370  0.9674 -0.0333  0.0773
 4330SOL    HW215529   6.867   5.859   2.487 -0.2493  0.3532 -0.8397
 4331SOL     OW15530   5.867   8.143   5.021  0.2863  0.5799  0.0513
 4331SOL    HW115531   5.792   8.203   5.016 -0.4422 -0.3972 -0.7514
 4331SOL    HW215532   5.942   8.201   5.036 -0.1636  1.8623 -2.4117
 4332SOL     OW15533   6.672   2.692   0.679  0.2521 -0.2987  0.1301
 4332SOL    HW115534   6.711   2.605   0.673  0.0345 -0.4479  0.7883
 4332SOL    HW215535   6.589   2.678   0.724  0.9896  0.4857  1.7852
 4333SOL     OW15536   7.767   9.472   9.403  0.1452 -0.9382 -0.1869
 4333SOL    HW115537   7.803   9.501   9.319  0.4440  0.4223  0.3918
 4333SOL    HW215538   7.693   9.532   9.418  1.4014  0.2207  1.5276
 4334SOL     OW15539   5.716   6.408   6.091  0.0643  0.2819  0.6739
 4334SOL    HW115540   5.738   6.443   6.177  2.8520  0.2024  0.0344
 4334SOL    HW215541   5.687   6.318   6.109  1.0949  0.1010  1.4784
 4335SOL     OW15542   7.570   7.987   1.421 -0.1146  0.0339 -0.2969
 4335SOL    HW115543   7.664   7.981   1.436 -0.2007 -0.2294  0.1726
 4335SOL    HW215544   7.533   8.009   1.507 -0.6451 -1.7961 -0.0107
 4336SOL     OW15545   2.955   7.957   8.446 -0.5516  0.2686 -0.5937
 4336SOL    HW115546   2.934   7.968   8.353 -1.5841 -1.0900 -0.5403
 4336SOL    HW215547   2.886   8.006   8.492  0.3944  1.5746 -0.5507
 4337SOL     OW15548   0.286   3.867   0.570 -0.2322 -0.1135  0.2454
 4337SOL    HW115549   0.315   3.900   0.486 -1.7443 -2.0085 -1.0628
 4337SOL    HW215550   0.288   3.943   0.628 -1.3634  1.7289 -2.0648
 4338SOL     OW15551   2.778   8.742   8.990  0.3001  0.4060 -0.3263
 4338SOL    HW115552   2.858   8.789   9.014  0.4570 -0.7468  1.5061
 4338SOL    HW215553   2.783   8.733   8.895  1.1139  2.5518 -0.5188
 4339SOL     OW15554   4.475   7.833   3.092 -0.3822  1.0562  0.0611
 4339SOL    HW115555   4.485   7.738   3.082  0.3244  1.1890 -0.5455
 4339SOL    HW215556   4.380   7.846   3.102 -0.3856  0.1853  1.3542
 4340SOL     OW15557   1.473   5.237   5.317 -0.1709  0.6575 -0.1174
 4340SOL    HW115558   1.422   5.190   5.383 -0.9754 -0.3416 -1.4389
 4340SOL    HW215559   1.514   5.309   5.366 -1.5913  0.5588  1.2623
 4341SOL     OW15560   3.662   0.382   4.568 -0.9456 -0.4984  0.0618
 4341SOL    HW115561   3.754   0.399   4.590 -1.5092  2.7593  0.1125
 4341SOL    HW215562   3.666   0.314   4.500  1.4173 -1.2014  0.8498
 4342SOL     OW15563  10.114   1.985   4.967 -0.0032  0.0441 -0.2524
 4342SOL    HW115564  10.037   1.977   4.911 -0.2468  0.4932  0.0080
 4342SOL    HW215565  10.144   1.895   4.980 -0.2061 -0.0977 -0.7382
 4343SOL     OW15566   9.872   1.657   2.756  0.8603 -0.0510 -0.0459
 4343SOL    HW115567   9.864   1.671   2.850 -0.7633 -2.0780  0.1611
 4343SOL    HW215568   9.880   1.744   2.718 -0.0767  0.8595  1.8407
 4344SOL     OW15569  10.079   7.001   3.493  0.3263  0.2909 -0.0576
 4344SOL    HW115570  10.008   6.963   3.441  0.9046 -0.7043 -0.1236
 4344SOL    HW215571  10.088   7.090   3.459 -1.0648  0.5147  0.1274
 4345SOL     OW15572   1.634   8.548   2.069 -0.2570  0.2865  0.1940
 4345SOL    HW115573   1.588   8.632   2.079 -1.5163 -0.1042 -1.9611
 4345SOL    HW215574   1.717   8.571   2.028 -0.2549  0.5584  0.3434
 4346SOL     OW15575   9.444   5.420   2.027 -0.1319  0.1270  0.1270
 4346SOL    HW115576   9.399   5.497   1.992  0.3263 -0.7381 -2.4591
 4346SOL    HW215577   9.528   5.418   1.982 -1.0565 -3.1653 -1.6239
 4347SOL     OW15578   1.099   7.575   9.116  0.0021 -0.2901 -0.0214
 4347SOL    HW115579   1.113   7.484   9.091  0.3388 -0.3687  0.4689
 4347SOL    HW215580   1.031   7.606   9.055  0.2863 -0.7019 -0.5559
 4348SOL     OW15581   9.010   7.127   9.427  0.0711 -0.0916 -0.0871
 4348SOL    HW115582   9.081   7.107   9.366  0.6837  0.9480  0.2724
 4348SOL    HW215583   8.993   7.044   9.472  2.0052 -0.0322  0.7973
 4349SOL     OW15584   0.207   5.911   6.804  0.2371  0.7523  0.4739
 4349SOL    HW115585   0.226   5.820   6.783  0.4991  0.8725  0.1999
 4349SOL    HW215586   0.270   5.962   6.753  0.2034  1.0809  0.7554
 4350SOL     OW15587   2.717   0.371   9.893 -0.4515  0.3417  0.4596
 4350SOL    HW115588   2.712   0.442   9.830  2.0185 -0.2425 -0.4860
 4350SOL    HW215589   2.743   0.413   9.975  1.0243  0.5583 -0.1021
 4351SOL     OW15590   3.040  10.056   3.800  0.0026 -0.3238 -0.1637
 4351SOL    HW115591   3.118  10.063   3.744  1.2236 -1.3487  1.3675
 4351SOL    HW215592   2.967  10.073   3.741  1.3608  0.2382 -1.7264
 4352SOL     OW15593   4.970   6.881   4.921 -0.5492  0.0107 -0.4915
 4352SOL    HW115594   5.063   6.876   4.943 -0.4454  1.9243 -0.3879
 4352SOL    HW215595   4.960   6.824   4.844  0.1540 -2.3580  1.1325
 4353SOL     OW15596   1.700   8.813   1.552 -0.3130  0.2580  0.1525
 4353SOL    HW115597   1.750   8.732   1.555 -1.6999 -0.5735  2.5642
 4353SOL    HW215598   1.759   8.879   1.590  0.4817  0.2088 -0.9710
 4354SOL     OW15599   7.239   9.234   3.770 -0.1429  0.1998 -0.5400
 4354SOL    HW115600   7.230   9.249   3.676  0.1113  0.3717 -0.5373
 4354SOL    HW215601   7.243   9.139   3.780  0.1957  0.1951 -0.7337
 4355SOL     OW15602   5.716   0.892   2.381  0.5674 -0.0553 -0.0147
 4355SOL    HW115603   5.768   0.882   2.301  1.1130 -0.0955  0.3412
 4355SOL    HW215604   5.742   0.818   2.436  0.7028  0.3496  0.4725
 4356SOL     OW15605   4.109   1.055   1.787  0.6541 -0.4892  0.0569
 4356SOL    HW115606   4.133   1.099   1.705 -1.5685  2.3404  0.8436
 4356SOL    HW215607   4.121   0.962   1.768  0.4059  0.0886 -3.4236
 4357SOL     OW15608   0.093   8.701   4.236 -0.2211 -0.5587  0.1927
 4357SOL    HW115609   0.183   8.679   4.258  0.2315  1.1934  0.1488
 4357SOL    HW215610   0.063   8.627   4.182  1.2401 -1.0590  0.0347
 4358SOL     OW15611   9.844   7.863   6.041 -0.4246 -0.7502 -0.2844
 4358SOL    HW115612   9.911   7.832   5.979 -0.3680 -2.0975  0.4349
 4358SOL    HW215613   9.893   7.913   6.106 -0.2172 -1.0716 -0.1908
 4359SOL     OW15614   7.698   6.319   3.601 -0.4321 -0.1782  0.0051
 4359SOL    HW115615   7.661   6.407   3.603 -0.7649 -0.3429  1.7126
 4359SOL    HW215616   7.788   6.330   3.632 -0.3618 -0.3882 -0.1244
 4360SOL     OW15617   1.116   8.825   8.040 -0.9574  0.0208 -0.4776
 4360SOL    HW115618   1.209   8.848   8.036 -1.0156  0.1898 -0.9873
 4360SOL    HW215619   1.104   8.787   8.126 -0.4828  0.3117 -0.2809
 4361SOL     OW15620   8.384   8.923   1.555  0.3115  0.3592 -0.0280
 4361SOL    HW115621   8.390   8.839   1.600 -0.6075 -0.0068 -0.5605
 4361SOL    HW215622   8.330   8.977   1.612 -0.7439 -0.0623 -0.6046
 4362SOL     OW15623   5.434   1.654   1.012  0.5739 -0.0812  0.0809
 4362SOL    HW115624   5.376   1.618   0.944  0.5281 -0.6537  0.4177
 4362SOL    HW215625   5.374   1.679   1.082  0.5300  1.4018 -0.4721
 4363SOL     OW15626   9.441   7.148   9.048 -0.0637 -0.6439 -0.3655
 4363SOL    HW115627   9.454   7.110   8.961 -0.4854 -0.6849 -0.4144
 4363SOL    HW215628   9.527   7.145   9.089 -0.0523 -1.4647 -0.4475
 4364SOL     OW15629   1.619   7.592   1.437  0.4933 -0.2851  0.4660
 4364SOL    HW115630   1.606   7.655   1.508 -1.0607  0.6047 -0.5710
 4364SOL    HW215631   1.532   7.553   1.423  0.8199 -0.6028 -0.7810
 4365SOL     OW15632   6.605   5.655   5.650 -0.4665  0.5833 -0.2416
 4365SOL    HW115633   6.652   5.678   5.569  0.4874  1.9989  0.6872
 4365SOL    HW215634   6.643   5.570   5.676 -1.0964 -0.0961 -1.5052
 4366SOL     OW15635   1.400   5.548   7.719 -0.0715  0.2608 -0.1323
 4366SOL    HW115636   1.420   5.592   7.801  0.2076  1.8659 -1.0317
 4366SOL    HW215637   1.326   5.597   7.683 -0.3888 -0.6136 -0.6992
 4367SOL     OW15638   3.161   6.674   5.406  0.5192  0.0110 -0.1274
 4367SOL    HW115639   3.186   6.765   5.387  0.1884  0.3723  1.0989
 4367SOL    HW215640   3.088   6.657   5.347  0.5587  0.5621 -0.3411
 4368SOL     OW15641   6.607   2.109   0.663 -0.0486  0.0684 -0.7380
 4368SOL    HW115642   6.669   2.059   0.611  1.0133  2.0104 -1.3809
 4368SOL    HW215643   6.526   2.058   0.659  0.8393 -1.2921 -1.8456
 4369SOL     OW15644   4.349   5.113   0.598 -0.6269 -0.5557  0.1413
 4369SOL    HW115645   4.288   5.179   0.563  3.3592  3.0886 -0.2906
 4369SOL    HW215646   4.402   5.087   0.523  3.1899  1.9308  1.8242
 4370SOL     OW15647   4.363   8.149   2.954  0.1899  0.4708 -0.0210
 4370SOL    HW115648   4.354   8.062   2.914 -0.9161 -0.7943  2.8127
 4370SOL    HW215649   4.284   8.196   2.926 -0.0762 -0.0507 -0.1582
 4371SOL     OW15650   8.863   0.300   4.368  0.2209  0.5526  0.0252
 4371SOL    HW115651   8.924   0.319   4.439  1.2570 -1.1133 -0.3938
 4371SOL    HW215652   8.812   0.225   4.401 -0.3407  0.7670 -0.3625
 4372SOL     OW15653   9.980   1.255   2.897  0.2361  0.3388  0.1035
 4372SOL    HW115654  10.049   1.300   2.946  0.3914 -1.9874  2.1531
 4372SOL    HW215655   9.917   1.227   2.963 -1.0264 -0.3982 -1.3661
 4373SOL     OW15656   8.597   7.424   0.658  0.4219 -0.0579 -0.5638
 4373SOL    HW115657   8.588   7.467   0.744  1.2495 -1.1559  0.0876
 4373SOL    HW215658   8.508   7.406   0.630  0.1854 -1.0577  0.7828
 4374SOL     OW15659   3.407   7.808   3.318  0.0867  0.0560 -0.1629
 4374SOL    HW115660   3.497   7.800   3.285 -0.1126 -0.3814 -0.5911
 4374SOL    HW215661   3.394   7.730   3.372 -0.1743 -0.0892 -0.4310
 4375SOL     OW15662   3.879  10.001   3.277  0.5173  0.1261  0.1355
 4375SOL    HW115663   3.947  10.053   3.321  0.5898  1.1892 -1.1905
 4375SOL    HW215664   3.927   9.941   3.221  0.3957  2.1026 -2.1859
 4376SOL     OW15665   8.659   0.768   3.442 -0.4229 -0.6031  0.0276
 4376SOL    HW115666   8.716   0.844   3.446 -0.6936 -0.4759  2.3697
 4376SOL    HW215667   8.626   0.767   3.352 -1.9788  3.2230  0.4571
 4377SOL     OW15668   7.114   9.644   3.974 -0.3614  0.1457 -0.2307
 4377SOL    HW115669   7.110   9.693   4.056 -0.1330 -0.9940  0.4824
 4377SOL    HW215670   7.188   9.584   3.986 -2.9995 -3.1157  0.5419
 4378SOL     OW15671   0.451   0.334   4.784 -0.0280 -0.1088 -0.0590
 4378SOL    HW115672   0.402   0.255   4.762  0.1527 -0.4926  0.9264
 4378SOL    HW215673   0.405   0.404   4.738 -1.0063 -0.5891  0.1796
 4379SOL     OW15674   9.979   9.166   7.536  0.3482 -0.6038 -0.0761
 4379SOL    HW115675   9.888   9.147   7.556 -0.2312  0.2560 -1.8229
 4379SOL    HW215676   9.979   9.256   7.503  1.3822 -1.4979 -2.6842
 4380SOL     OW15677   0.293   3.129   4.723  0.6088  0.4459 -0.0939
 4380SOL    HW115678   0.309   3.217   4.759  3.2692 -0.0015 -0.1096
 4380SOL    HW215679   0.322   3.134   4.632 -0.9199  0.0294 -0.6157
 4381SOL     OW15680   8.196   0.491   3.036  0.1843 -0.3830 -0.1248
 4381SOL    HW115681   8.121   0.443   3.000  0.7528 -0.8690 -0.6817
 4381SOL    HW215682   8.253   0.423   3.072  0.6233 -0.0640 -0.2142
 4382SOL     OW15683   2.341   7.241   3.517 -0.1717 -0.5394 -0.4711
 4382SOL    HW115684   2.403   7.223   3.446  1.4996 -0.6331  0.9599
 4382SOL    HW215685   2.299   7.157   3.534  1.0808 -1.0678  0.1429
 4383SOL     OW15686   5.065   1.695   9.865  0.3071 -0.1537 -0.2330
 4383SOL    HW115687   4.986   1.642   9.860  0.1896 -0.1472  1.1710
 4383SOL    HW215688   5.055   1.760   9.796 -0.9420 -0.1223 -0.0349
 4384SOL     OW15689   6.799   2.653   1.849 -0.0492 -0.3363  0.0019
 4384SOL    HW115690   6.883   2.678   1.812 -0.5045  0.0784 -0.7778
 4384SOL    HW215691   6.742   2.641   1.772 -0.9815  0.4621  0.5618
 4385SOL     OW15692   9.732   0.774   3.941 -0.4578 -0.2575  0.5187
 4385SOL    HW115693   9.799   0.720   3.983 -0.1191 -0.4273 -0.2318
 4385SOL    HW215694   9.721   0.736   3.855 -0.8392  0.3512  0.2953
 4386SOL     OW15695   0.439   1.943   6.544  0.1897  0.6316  0.2441
 4386SOL    HW115696   0.348   1.916   6.552  0.3538 -0.4248 -1.1763
 4386SOL    HW215697   0.488   1.861   6.535  1.1057  1.2384 -0.4721
 4387SOL     OW15698   1.140   6.459   3.041 -0.6296  0.3253 -0.1089
 4387SOL    HW115699   1.065   6.408   3.074  0.0251 -0.8950 -0.4858
 4387SOL    HW215700   1.178   6.498   3.120 -1.8195  1.1831  0.0578
 4388SOL     OW15701   7.013   9.008   2.406 -0.9337  0.0067  0.8217
 4388SOL    HW115702   6.942   9.020   2.342 -2.0656  0.2011  2.0865
 4388SOL    HW215703   6.969   8.974   2.484  0.3825  0.1079  1.6251
 4389SOL     OW15704   0.909   0.250   1.231  0.3305 -0.2161  0.0545
 4389SOL    HW115705   0.834   0.300   1.197  0.2020 -0.5319 -0.1349
 4389SOL    HW215706   0.944   0.205   1.154  0.9918  0.2785  0.0600
 4390SOL     OW15707   7.806   3.001   7.866 -0.3127 -0.3505  0.4329
 4390SOL    HW115708   7.728   3.027   7.915 -0.1599  1.0731 -0.0579
 4390SOL    HW215709   7.872   2.985   7.934 -0.0406  1.8015  0.7144
 4391SOL     OW15710   9.027   6.012   7.487  0.4706 -0.3630 -0.9925
 4391SOL    HW115711   9.060   6.081   7.544  2.0802 -0.7010 -1.4864
 4391SOL    HW215712   8.931   6.020   7.492  0.5510 -0.7623  2.2016
 4392SOL     OW15713   6.690   1.339   9.351  0.0407  0.4757  0.4020
 4392SOL    HW115714   6.634   1.363   9.277  1.1183 -2.0842 -1.3147
 4392SOL    HW215715   6.779   1.359   9.321  0.3794  0.6318  1.4975
 4393SOL     OW15716   6.677   4.502   3.258 -0.0299 -0.5718  0.4591
 4393SOL    HW115717   6.588   4.510   3.293  0.1736 -1.4179  1.1932
 4393SOL    HW215718   6.729   4.473   3.333  0.6023 -1.4515 -0.3184
 4394SOL     OW15719  10.005   6.518   2.502 -0.5565  0.3580 -0.1445
 4394SOL    HW115720   9.944   6.495   2.432 -0.4266  1.0746 -0.5031
 4394SOL    HW215721  10.092   6.508   2.462 -0.4731  0.4304  0.0217
 4395SOL     OW15722   1.623   7.768   5.295 -0.5069  0.0883 -0.1644
 4395SOL    HW115723   1.575   7.686   5.309  0.7725 -0.6929 -0.2946
 4395SOL    HW215724   1.679   7.777   5.372 -0.0346  0.4099 -0.5445
 4396SOL     OW15725   1.788   3.427   9.718  0.8582 -1.1382 -0.0655
 4396SOL    HW115726   1.856   3.431   9.650  0.7311 -2.2779 -0.2650
 4396SOL    HW215727   1.706   3.425   9.670  0.7228 -0.8345  0.1523
 4397SOL     OW15728   2.113   6.338   9.664 -0.2367 -0.1642  0.3332
 4397SOL    HW115729   2.200   6.300   9.655 -0.2470 -0.2432  0.5623
 4397SOL    HW215730   2.128   6.432   9.675 -0.1695 -0.2020  0.5742
 4398SOL     OW15731   1.814   6.742   0.861 -0.3207  0.3045  0.7469
 4398SOL    HW115732   1.794   6.733   0.954  1.0311  1.2381  1.1516
 4398SOL    HW215733   1.869   6.666   0.841 -0.8692 -0.0645  0.6277
 4399SOL     OW15734   8.997   1.760   8.211 -0.2655  0.1809 -0.5446
 4399SOL    HW115735   9.083   1.744   8.172  1.4066  1.4395  2.4197
 4399SOL    HW215736   8.996   1.855   8.228 -1.9956  0.0873 -0.0090
 4400SOL     OW15737   2.717   2.738   5.514 -0.7796 -0.2191 -0.3016
 4400SOL    HW115738   2.809   2.759   5.502 -0.7877 -0.4819 -0.8131
 4400SOL    HW215739   2.695   2.776   5.599 -0.2542  0.0191 -0.2710
 4401SOL     OW15740   6.468   7.298   2.303  0.0653  0.2094  0.0155
 4401SOL    HW115741   6.560   7.294   2.277 -0.8260  1.7289 -3.5029
 4401SOL    HW215742   6.461   7.379   2.354  0.8251 -0.4174  1.1649
 4402SOL     OW15743   8.207   4.634   5.211 -0.1998  0.1949 -0.3655
 4402SOL    HW115744   8.278   4.698   5.221 -0.3735  0.2525  0.4836
 4402SOL    HW215745   8.168   4.627   5.298 -1.0379 -0.0791 -0.7610
 4403SOL     OW15746   6.098   1.680   3.269  0.6538  0.2647  0.4075
 4403SOL    HW115747   6.193   1.683   3.261  0.5746  2.0002 -0.1592
 4403SOL    HW215748   6.076   1.589   3.252  2.3640 -0.5831  2.5800
 4404SOL     OW15749   3.709   1.263   6.894 -0.1270 -0.3492  0.0342
 4404SOL    HW115750   3.781   1.321   6.871  1.1411 -2.2121 -0.8053
 4404SOL    HW215751   3.692   1.282   6.987 -0.4882  2.0883 -0.4781
 4405SOL     OW15752   0.324   8.462   8.807 -0.1229 -0.1223 -0.5451
 4405SOL    HW115753   0.333   8.524   8.735 -1.2538  1.4660  0.6417
 4405SOL    HW215754   0.231   8.442   8.810 -0.0289 -0.4784  0.2199
 4406SOL     OW15755   7.990   3.930   2.066  0.3889 -0.4296  0.1326
 4406SOL    HW115756   7.908   3.951   2.022  0.5983 -0.1170 -0.1114
 4406SOL    HW215757   8.014   4.011   2.113  0.2089 -0.7328  0.7566
 4407SOL     OW15758   7.220   5.450   9.369  0.1717  0.1108 -0.3438
 4407SOL    HW115759   7.157   5.451   9.296 -0.3076  0.6622  0.0704
 4407SOL    HW215760   7.294   5.501   9.337 -0.4276  1.1382 -0.1118
 4408SOL     OW15761   7.197   1.351   5.221 -0.4270  0.6115  0.0490
 4408SOL    HW115762   7.184   1.261   5.193 -2.4875  0.3192  1.8041
 4408SOL    HW215763   7.284   1.352   5.261 -0.1707 -0.4474 -0.4633
 4409SOL     OW15764   4.351   8.463   6.865 -1.1309  0.1024 -0.4709
 4409SOL    HW115765   4.283   8.410   6.824 -0.4133 -1.1243 -0.0925
 4409SOL    HW215766   4.433   8.428   6.831 -0.6039  0.2735  0.5991
 4410SOL     OW15767   5.358   7.638   0.308 -0.0490  0.5613 -0.6696
 4410SOL    HW115768   5.369   7.703   0.377  0.1270 -1.3460  1.1606
 4410SOL    HW215769   5.264   7.637   0.290 -0.4808 -0.6834  1.3840
 4411SOL     OW15770   8.782   8.485   8.248 -0.5981 -0.0501 -0.3765
 4411SOL    HW115771   8.693   8.459   8.227 -0.8111 -0.6962  1.2311
 4411SOL    HW215772   8.774   8.575   8.281 -0.5521  0.1629 -0.9456
 4412SOL     OW15773   9.429   5.564   5.260 -0.2808 -0.0697  0.3933
 4412SOL    HW115774   9.502   5.527   5.210  0.1494 -0.9160  1.6191
 4412SOL    HW215775   9.460   5.650   5.288  0.2569 -0.4365  0.9295
 4413SOL     OW15776   7.445   6.127   1.593 -0.2141  0.1826 -0.1836
 4413SOL    HW115777   7.437   6.050   1.650  0.0442 -0.1999 -0.6655
 4413SOL    HW215778   7.489   6.192   1.648 -1.4956  0.4016  0.6238
 4414SOL     OW15779  10.125   4.969   7.442 -0.2388  0.1020 -0.6906
 4414SOL    HW115780  10.217   4.960   7.416 -0.0521  0.3688 -0.1179
 4414SOL    HW215781  10.120   5.054   7.484 -0.8292  0.2479 -1.0374
 4415SOL     OW15782   4.096   0.227   5.781  0.0324  0.2055  0.0219
 4415SOL    HW115783   4.137   0.312   5.796 -1.3202  0.8189  0.3185
 4415SOL    HW215784   4.021   0.246   5.724  1.0545 -1.1175 -1.8135
 4416SOL     OW15785   6.340   4.486   0.362  0.0277  0.6703 -0.1216
 4416SOL    HW115786   6.420   4.444   0.392  0.4562  3.0018  2.1381
 4416SOL    HW215787   6.370   4.561   0.310 -0.6578  1.8030  1.0858
 4417SOL     OW15788   0.319   7.600   5.791  0.2715 -0.1944  0.3723
 4417SOL    HW115789   0.329   7.647   5.874 -2.6488 -0.5320  0.9776
 4417SOL    HW215790   0.282   7.666   5.732  0.0348 -0.6081  0.0599
 4418SOL     OW15791   3.021   1.256   7.002  0.4785  0.2015  0.1856
 4418SOL    HW115792   2.964   1.332   7.007 -0.7634 -0.6600 -0.5893
 4418SOL    HW215793   3.036   1.243   6.908 -1.0764 -1.7708  0.1760
 4419SOL     OW15794   1.164   8.667   6.350 -0.1843 -0.0207  0.1306
 4419SOL    HW115795   1.241   8.610   6.363  0.5279  1.0298  0.5839
 4419SOL    HW215796   1.099   8.633   6.412 -0.2748 -1.2180 -0.5930
 4420SOL     OW15797   7.892   4.198   3.773  0.1335  0.2541 -0.5512
 4420SOL    HW115798   7.906   4.104   3.768 -0.5395  0.0657  0.8935
 4420SOL    HW215799   7.938   4.233   3.696 -0.1009 -1.2913 -1.4105
 4421SOL     OW15800   2.494   6.659   4.392  0.9013  0.4181  0.1898
 4421SOL    HW115801   2.479   6.571   4.356  0.0057  0.2936  0.8649
 4421SOL    HW215802   2.510   6.714   4.315 -0.5734  0.0634 -0.3745
 4422SOL     OW15803   8.163   3.204   4.066 -0.3674 -0.4008  0.2970
 4422SOL    HW115804   8.200   3.216   4.153  1.0113 -1.9268 -0.0453
 4422SOL    HW215805   8.071   3.183   4.082 -0.5135  0.9607  1.2918
 4423SOL     OW15806   8.458  10.092   5.930 -0.2412  0.4340  0.2982
 4423SOL    HW115807   8.512  10.168   5.913 -0.4123  0.1564 -1.5112
 4423SOL    HW215808   8.387  10.097   5.866 -0.8967 -0.6190  0.9188
 4424SOL     OW15809   2.073   3.778   9.943  0.3587  0.4930  0.2818
 4424SOL    HW115810   2.075   3.820  10.029  0.1609 -0.1777  0.6184
 4424SOL    HW215811   2.013   3.831   9.891 -0.1631  0.4160  0.8106
 4425SOL     OW15812   8.206   8.755   5.581 -0.3541  0.4314 -0.2001
 4425SOL    HW115813   8.224   8.846   5.606  0.0351  0.4279 -0.4733
 4425SOL    HW215814   8.165   8.761   5.495 -0.0614  0.3292 -0.3461
 4426SOL     OW15815   4.450   8.597   4.564 -0.1622 -0.0885 -0.1404
 4426SOL    HW115816   4.496   8.526   4.609 -1.2443 -1.2018 -0.7581
 4426SOL    HW215817   4.436   8.663   4.632 -0.3877 -1.0758  0.7914
 4427SOL     OW15818   0.098   3.304   0.143  0.1307  0.4199 -0.1783
 4427SOL    HW115819   0.176   3.285   0.197 -0.0174 -1.6372 -0.6601
 4427SOL    HW215820   0.053   3.220   0.136  0.1381  0.6507 -3.5254
 4428SOL     OW15821   1.653   3.669   4.056 -0.1465  0.2911 -0.2558
 4428SOL    HW115822   1.598   3.683   4.134  1.0027 -0.2677  0.6827
 4428SOL    HW215823   1.622   3.586   4.020  1.2208 -0.9504  1.3060
 4429SOL     OW15824   3.010   3.616   1.992  0.2120  0.1648  0.1232
 4429SOL    HW115825   2.946   3.548   1.969  2.0170 -1.1784 -1.0182
 4429SOL    HW215826   3.022   3.666   1.912  0.4587  0.5200  0.3818
 4430SOL     OW15827   0.619   1.213   3.291  0.0704  0.4375  0.3113
 4430SOL    HW115828   0.679   1.157   3.242 -1.5471 -1.0141 -0.0216
 4430SOL    HW215829   0.596   1.161   3.368 -3.5449 -0.4850 -1.3260
 4431SOL     OW15830   7.228   6.674   1.421 -0.4954 -0.3350  0.2954
 4431SOL    HW115831   7.153   6.616   1.407 -1.1480  0.3534  0.9949
 4431SOL    HW215832   7.250   6.664   1.513 -0.1621  0.0085  0.2566
 4432SOL     OW15833   1.426   4.100   9.905  0.1293 -0.6559  0.4046
 4432SOL    HW115834   1.371   4.123   9.830 -0.1582  2.4867  1.5064
 4432SOL    HW215835   1.486   4.173   9.915  1.4448 -1.9102  2.0933
 4433SOL     OW15836   8.981   4.243   2.977  0.0611  0.1395  0.2274
 4433SOL    HW115837   9.011   4.296   2.903  2.9457 -0.7944  0.6665
 4433SOL    HW215838   8.951   4.162   2.937  0.5000  0.1002 -0.0271
 4434SOL     OW15839   9.035   9.727   8.596 -0.3552  0.3558  0.5322
 4434SOL    HW115840   9.085   9.722   8.514  0.4945  2.0876  0.9289
 4434SOL    HW215841   9.049   9.816   8.627 -2.1982  0.2839  1.6184
 4435SOL     OW15842   4.576   8.516   3.463  0.5649  0.1539 -0.1636
 4435SOL    HW115843   4.614   8.446   3.411  2.4284 -0.1594  1.5405
 4435SOL    HW215844   4.651   8.558   3.505 -0.5906  2.6369 -0.4985
 4436SOL     OW15845   6.153   0.647   0.169  0.7917 -0.9499  0.1717
 4436SOL    HW115846   6.206   0.596   0.230  1.0414 -1.2404 -0.2931
 4436SOL    HW215847   6.114   0.715   0.224  0.4088 -1.6693  0.8061
 4437SOL     OW15848   7.369   9.941   9.954  0.0228 -0.1670  0.4788
 4437SOL    HW115849   7.422  10.001   9.901  0.8254 -0.2089  1.2070
 4437SOL    HW215850   7.342   9.993  10.029  3.7016 -1.5987  2.9558
 4438SOL     OW15851   5.155   4.593   3.358 -0.4068  0.1047  0.0610
 4438SOL    HW115852   5.059   4.586   3.356 -0.4915 -0.1082  2.5784
 4438SOL    HW215853   5.180   4.547   3.438  1.8258  0.0558 -0.6380
 4439SOL     OW15854   1.561   8.037   7.875 -0.4993 -0.0157 -0.3894
 4439SOL    HW115855   1.621   7.996   7.938 -0.1328 -0.1247 -0.8011
 4439SOL    HW215856   1.481   8.055   7.924 -1.0052 -2.0781 -0.4172
 4440SOL     OW15857   7.866   9.109   8.111  0.2425  0.0910  0.0860
 4440SOL    HW115858   7.779   9.078   8.088  0.1491  0.1202  0.3940
 4440SOL    HW215859   7.895   9.051   8.181  0.3340  0.2842  0.2112
 4441SOL     OW15860   9.796   5.121   8.178  0.3493 -0.1188  0.6418
 4441SOL    HW115861   9.832   5.062   8.244 -0.3384 -1.2084  0.0435
 4441SOL    HW215862   9.834   5.207   8.200  1.1558 -0.7228  1.6498
 4442SOL     OW15863   5.896   6.351   1.212  0.0359 -0.0115  0.4320
 4442SOL    HW115864   5.950   6.350   1.291 -0.0286  2.5374  0.5667
 4442SOL    HW215865   5.818   6.400   1.238 -0.4479 -0.0524 -0.9116
 4443SOL     OW15866   8.129   1.259   0.153  0.0322 -0.3900 -0.1739
 4443SOL    HW115867   8.218   1.289   0.170 -0.0869 -0.4212  0.5223
 4443SOL    HW215868   8.077   1.340   0.146  0.0389 -0.3818 -0.1308
 4444SOL     OW15869   8.351   9.128   9.355 -0.3085 -0.0344  0.1639
 4444SOL    HW115870   8.278   9.190   9.356 -0.7795 -0.5768 -0.3591
 4444SOL    HW215871   8.315   9.048   9.393  0.5901  0.3251  1.8388
 4445SOL     OW15872   8.819   5.945   8.268 -0.0970 -0.7996 -0.4065
 4445SOL    HW115873   8.843   6.037   8.278  1.5354 -1.2131 -0.3460
 4445SOL    HW215874   8.883   5.897   8.322 -2.3663 -1.8241  1.4896
 4446SOL     OW15875   0.727   0.161   1.667 -0.1526 -0.0648 -0.2652
 4446SOL    HW115876   0.785   0.142   1.593  0.1443 -2.8901  0.6189
 4446SOL    HW215877   0.648   0.110   1.649  0.2232 -1.4144  1.6983
 4447SOL     OW15878   9.810   5.230   4.318  0.4055  0.1038  0.5488
 4447SOL    HW115879   9.813   5.146   4.363  1.6273 -0.0722  0.1607
 4447SOL    HW215880   9.858   5.215   4.237  1.8822  1.5408  1.1228
 4448SOL     OW15881   2.816   7.572   1.378 -0.4709  0.1985 -0.2709
 4448SOL    HW115882   2.763   7.603   1.305 -2.9311  0.1382  1.4134
 4448SOL    HW215883   2.800   7.477   1.381  2.6102 -0.4408 -1.9437
 4449SOL     OW15884   0.680   5.171   9.854 -0.3555  0.8686 -0.0459
 4449SOL    HW115885   0.686   5.076   9.847 -2.0556  0.8930 -2.7676
 4449SOL    HW215886   0.747   5.204   9.794  0.6969  1.4064  1.4087
 4450SOL     OW15887   7.153  10.095   2.937  0.3418  0.5177  0.1544
 4450SOL    HW115888   7.114  10.068   2.854  0.8856 -0.5103  0.2190
 4450SOL    HW215889   7.150  10.191   2.936 -1.3879  0.4675 -0.2019
 4451SOL     OW15890   8.885   0.444   0.285 -0.0589  0.5121 -0.1115
 4451SOL    HW115891   8.846   0.393   0.357 -0.2580  3.6566  2.0938
 4451SOL    HW215892   8.813   0.497   0.251  1.0459  2.3481  0.3712
 4452SOL     OW15893   1.016   7.206   1.057 -0.1551 -0.4270 -0.5864
 4452SOL    HW115894   0.932   7.162   1.043 -0.4716 -0.2053  0.5797
 4452SOL    HW215895   0.994   7.299   1.062  0.3173 -0.2575 -1.4609
 4453SOL     OW15896   2.811   7.350   2.209  0.0615 -0.5979  0.1544
 4453SOL    HW115897   2.723   7.331   2.242 -0.3094  0.0617 -0.4257
 4453SOL    HW215898   2.833   7.275   2.153  0.6274 -1.6362  1.7525
 4454SOL     OW15899   8.645   0.089   6.333 -0.5172 -0.0911  0.1367
 4454SOL    HW115900   8.575   0.154   6.323  1.5622  2.3264  0.6767
 4454SOL    HW215901   8.699   0.100   6.255 -0.1391 -1.1553  0.2451
 4455SOL     OW15902   7.562   9.824   5.497  0.3321 -0.1355 -0.2722
 4455SOL    HW115903   7.597   9.798   5.582  0.2030  0.4761 -0.0247
 4455SOL    HW215904   7.549   9.919   5.505 -2.2769 -0.4883 -0.0246
 4456SOL     OW15905   6.506   9.205   5.993  0.4518 -0.2003  0.0585
 4456SOL    HW115906   6.460   9.131   6.033  1.1656 -0.2158  0.8832
 4456SOL    HW215907   6.594   9.202   6.032  0.3038  1.4242  0.5540
 4457SOL     OW15908   1.177   9.330   8.784  0.0600 -0.6641  0.3111
 4457SOL    HW115909   1.136   9.388   8.848  1.1068  0.9173 -0.4349
 4457SOL    HW215910   1.271   9.341   8.798  0.2845 -0.8643 -1.0109
 4458SOL     OW15911   1.322   9.170   8.131  0.1130  0.4404  0.6277
 4458SOL    HW115912   1.263   9.236   8.168 -0.0204  0.0141  1.1857
 4458SOL    HW215913   1.303   9.172   8.037  0.4492  1.5251  0.5774
 4459SOL     OW15914   3.300   3.559   7.072 -0.0677 -0.2483 -0.2841
 4459SOL    HW115915   3.386   3.529   7.102 -0.6963 -0.0437  1.7941
 4459SOL    HW215916   3.299   3.652   7.091  0.1718  0.2493 -2.6026
 4460SOL     OW15917   0.287   4.945   1.331  0.6698  0.4149 -0.3169
 4460SOL    HW115918   0.254   5.012   1.271 -1.4007 -0.6050 -0.3662
 4460SOL    HW215919   0.245   4.965   1.415  2.5720  1.0819  0.5100
 4461SOL     OW15920   9.148   7.445   2.684 -0.5288 -1.0153  0.0035
 4461SOL    HW115921   9.206   7.485   2.619 -0.2484 -1.2998  0.0758
 4461SOL    HW215922   9.090   7.388   2.633 -1.3630 -0.0145 -0.1728
 4462SOL     OW15923   8.676   2.145   1.946 -0.2534  0.1357 -0.4083
 4462SOL    HW115924   8.669   2.058   1.984 -0.3698  0.8403  1.2342
 4462SOL    HW215925   8.769   2.156   1.927 -0.1532 -0.1405 -0.0866
 4463SOL     OW15926   9.579   2.177   1.063 -0.0345 -0.1964 -0.0558
 4463SOL    HW115927   9.587   2.223   1.146  0.9342  1.4681 -1.0515
 4463SOL    HW215928   9.628   2.095   1.076  0.3959  0.2055  0.8916
 4464SOL     OW15929   6.672   0.536   2.372  0.4637  0.1192  0.6344
 4464SOL    HW115930   6.756   0.490   2.383  0.6883  0.8434  2.0685
 4464SOL    HW215931   6.681   0.615   2.426 -0.7050  0.7960 -0.1523
 4465SOL     OW15932   4.964   0.353   3.195 -0.1481  0.3333 -0.0060
 4465SOL    HW115933   5.030   0.348   3.264 -0.9413 -0.6268  0.6968
 4465SOL    HW215934   5.009   0.323   3.116  0.5571  0.7534  0.2283
 4466SOL     OW15935   2.918   3.148   7.443  0.3531  0.3627 -0.4540
 4466SOL    HW115936   2.865   3.226   7.460  1.9770  1.6382 -1.1968
 4466SOL    HW215937   2.888   3.117   7.358 -0.6848 -0.1797  0.0906
 4467SOL     OW15938   5.511   1.193   1.732 -0.2443 -0.2349  0.0110
 4467SOL    HW115939   5.593   1.213   1.687  0.7093 -0.2382  1.7115
 4467SOL    HW215940   5.447   1.253   1.692  0.8409  0.6031 -0.4942
 4468SOL     OW15941   7.097   3.053   8.368 -0.3043 -0.3722 -0.0645
 4468SOL    HW115942   7.117   3.145   8.388  0.8665 -1.1539  2.5978
 4468SOL    HW215943   7.019   3.034   8.420 -0.0049 -1.1393  0.1069
 4469SOL     OW15944   7.456   8.269   7.038  0.2229  0.1540  0.3567
 4469SOL    HW115945   7.517   8.215   7.088 -1.0131 -1.0999  0.5295
 4469SOL    HW215946   7.433   8.216   6.962  0.5210  1.2378 -0.5174
 4470SOL     OW15947   5.556   6.959   9.144 -0.7168 -0.3143  0.3120
 4470SOL    HW115948   5.508   7.031   9.103 -0.2115  0.2901  0.7780
 4470SOL    HW215949   5.489   6.894   9.163 -1.1274 -0.1104 -0.4126
 4471SOL     OW15950   2.715   6.585   2.266  0.1199 -0.0999  0.0875
 4471SOL    HW115951   2.641   6.585   2.205  1.0664 -0.3125 -1.0797
 4471SOL    HW215952   2.775   6.519   2.230  1.9313  1.7143 -0.2819
 4472SOL     OW15953   4.706   2.495   0.910 -0.5073  1.1836  0.7525
 4472SOL    HW115954   4.775   2.507   0.845  1.1709 -0.1697  2.2546
 4472SOL    HW215955   4.745   2.524   0.992 -1.0052 -1.4698  1.9832
 4473SOL     OW15956   6.766   9.453   3.046  0.0094 -0.2015  0.1216
 4473SOL    HW115957   6.812   9.537   3.049  0.6145 -0.4283 -1.7931
 4473SOL    HW215958   6.681   9.473   3.007  0.0238 -0.4149 -0.0219
 4474SOL     OW15959   3.090   7.649   5.499 -0.2435 -0.3743 -0.4821
 4474SOL    HW115960   3.177   7.616   5.475  1.1128  1.9979  0.9476
 4474SOL    HW215961   3.059   7.587   5.565  1.1098 -0.3505  0.2100
 4475SOL     OW15962   4.831   3.671   5.040  0.1976 -0.2615 -0.1401
 4475SOL    HW115963   4.824   3.580   5.067 -1.1899  0.3702  1.7602
 4475SOL    HW215964   4.749   3.711   5.070  0.7304  1.5740 -1.0629
 4476SOL     OW15965   9.732   1.202   8.912  0.1386  0.5102  0.1533
 4476SOL    HW115966   9.649   1.220   8.955  1.1365  0.9813  1.9369
 4476SOL    HW215967   9.798   1.217   8.980  1.6511 -0.2767 -1.1038
 4477SOL     OW15968   5.053   5.686   0.577 -0.0155 -0.1090  0.0738
 4477SOL    HW115969   5.137   5.641   0.569 -0.9533 -2.4236  2.6238
 4477SOL    HW215970   4.992   5.632   0.527 -0.3511  0.5800 -0.2722
 4478SOL     OW15971   6.106   9.536   4.950  0.2051  0.3324 -0.1224
 4478SOL    HW115972   6.154   9.482   4.887 -0.8097 -0.8567  0.0887
 4478SOL    HW215973   6.014   9.515   4.932 -0.0768 -0.3782  2.0509
 4479SOL     OW15974   0.411   9.606   1.620  0.5971 -0.4672  0.4829
 4479SOL    HW115975   0.370   9.523   1.643 -1.3983 -0.5232 -2.8609
 4479SOL    HW215976   0.384   9.667   1.689 -0.6719 -1.8364  1.2176
 4480SOL     OW15977   4.470   2.704   8.218  0.0027 -0.1166  0.0038
 4480SOL    HW115978   4.470   2.640   8.289  1.6332 -0.3879 -0.2062
 4480SOL    HW215979   4.494   2.787   8.260 -2.3191  0.4365  0.3104
 4481SOL     OW15980   2.722   4.559   6.307  0.4606  0.1518  0.2770
 4481SOL    HW115981   2.781   4.483   6.310 -1.2364 -1.3396 -2.1562
 4481SOL    HW215982   2.640   4.524   6.272 -0.6525  2.9545 -0.0482
 4482SOL     OW15983   4.857   7.278   8.161 -0.2901  0.4836 -0.2404
 4482SOL    HW115984   4.915   7.259   8.235  2.0723 -0.8320 -2.3459
 4482SOL    HW215985   4.805   7.199   8.151  2.0537 -0.8804 -2.2871
 4483SOL     OW15986   8.824   9.267   5.549  0.2482 -0.0271 -0.0288
 4483SOL    HW115987   8.824   9.172   5.554  0.3937 -0.0510 -0.4326
 4483SOL    HW215988   8.850   9.296   5.636  1.0570 -0.3701 -0.1552
 4484SOL     OW15989   9.549   2.011   0.834  0.1047 -0.2719 -0.7490
 4484SOL    HW115990   9.497   1.941   0.872  1.8081 -1.5589 -0.7317
 4484SOL    HW215991   9.554   2.077   0.904 -0.2517 -0.7893 -0.2334
 4485SOL     OW15992   5.304   7.222   1.498 -0.7253 -0.1620 -0.0982
 4485SOL    HW115993   5.372   7.271   1.544 -0.0858 -0.8214 -0.3306
 4485SOL    HW215994   5.321   7.238   1.405 -1.8742  0.9779 -0.1160
 4486SOL     OW15995   2.796   3.942   4.702 -0.1429 -0.5564  0.2951
 4486SOL    HW115996   2.780   3.957   4.609  1.5519  1.1896  0.2694
 4486SOL    HW215997   2.821   4.027   4.737  1.2831 -1.5979  1.9127
 4487SOL     OW15998   9.420   9.115   2.295 -0.0582 -0.1737 -0.0512
 4487SOL    HW115999   9.461   9.157   2.370 -0.6932  0.1074  0.1437
 4487SOL    HW216000   9.412   9.023   2.320  0.5544 -0.2519 -0.1380
 4488SOL     OW16001   3.205   0.476   9.111  0.0840 -0.0954 -0.2295
 4488SOL    HW116002   3.289   0.446   9.075  0.6549 -0.3532  1.2740
 4488SOL    HW216003   3.153   0.499   9.034  1.8122  0.8142 -1.1625
 4489SOL     OW16004   4.385   0.217   4.543  0.2306 -0.3622 -0.0828
 4489SOL    HW116005   4.370   0.130   4.505  1.9445 -1.1054  0.9001
 4489SOL    HW216006   4.413   0.270   4.468 -0.0701 -0.8444 -0.5459
 4490SOL     OW16007   7.273   1.406   8.067  0.4437  0.1193  0.4899
 4490SOL    HW116008   7.248   1.373   7.981  0.3183  1.3239  0.0595
 4490SOL    HW216009   7.353   1.358   8.089 -0.5646 -1.5825  0.5632
 4491SOL     OW16010   6.364   2.554   9.256 -0.5547  0.0415  0.3589
 4491SOL    HW116011   6.435   2.567   9.194  0.1854 -2.4985  0.5992
 4491SOL    HW216012   6.327   2.641   9.270 -0.4564  0.7370 -3.2755
 4492SOL     OW16013   6.941   9.210   8.606  0.2427  0.2309  0.3886
 4492SOL    HW116014   7.031   9.196   8.635  0.7259  1.0901 -0.6681
 4492SOL    HW216015   6.935   9.305   8.590 -0.8842  0.2001  0.5398
 4493SOL     OW16016   7.425   4.859   8.483  0.6583  0.1253  0.1273
 4493SOL    HW116017   7.457   4.931   8.428 -0.0718 -0.0951 -0.5937
 4493SOL    HW216018   7.441   4.889   8.572  0.3663  1.2004 -0.1623
 4494SOL     OW16019   2.795   7.006   5.534  0.0824 -0.1762 -0.2928
 4494SOL    HW116020   2.883   6.994   5.571  0.0797 -0.1817 -0.2879
 4494SOL    HW216021   2.769   6.919   5.505  0.5987  0.0387 -1.4445
 4495SOL     OW16022   1.354   6.250   3.004  0.2002 -0.0006  0.6290
 4495SOL    HW116023   1.322   6.170   2.963  0.7873 -0.0361  0.2308
 4495SOL    HW216024   1.277   6.307   3.010  0.8252  1.5523 -4.1234
 4496SOL     OW16025   0.818   1.703   3.199  0.2071  0.4807  0.4381
 4496SOL    HW116026   0.811   1.726   3.291 -2.0738  0.5531  0.2792
 4496SOL    HW216027   0.744   1.645   3.183  0.1044  1.1083 -1.5103
 4497SOL     OW16028   2.179   6.365   3.275  0.4143  0.4706 -0.0090
 4497SOL    HW116029   2.091   6.368   3.313  0.2151  1.1543 -0.5145
 4497SOL    HW216030   2.234   6.407   3.341  0.2278  0.7779 -0.0452
 4498SOL     OW16031   5.371   7.640   4.981  0.1859 -0.1652  0.1110
 4498SOL    HW116032   5.462   7.626   5.007  0.5209 -3.3825 -2.5342
 4498SOL    HW216033   5.336   7.552   4.964 -2.2859  1.2290 -2.5426
 4499SOL     OW16034   0.799   7.367   3.704 -0.6874  0.1776  0.0563
 4499SOL    HW116035   0.746   7.323   3.638 -0.4441 -0.4074  0.2449
 4499SOL    HW216036   0.883   7.322   3.701 -0.1161  1.2680 -0.4163
 4500SOL     OW16037   0.467   8.655   3.265  0.7912 -0.1378  0.1716
 4500SOL    HW116038   0.534   8.719   3.288 -0.0615  1.0539 -0.6329
 4500SOL    HW216039   0.512   8.593   3.207  1.0242  1.0016 -0.8613
 4501SOL     OW16040   1.876   5.724   1.726  0.2709 -0.0929  0.1913
 4501SOL    HW116041   1.808   5.790   1.738  0.9696  0.7535 -0.4342
 4501SOL    HW216042   1.840   5.665   1.659  0.6660  1.0597 -1.0391
 4502SOL     OW16043   2.418   2.256   2.490  0.1854  0.4549  0.1305
 4502SOL    HW116044   2.456   2.238   2.577 -0.7107 -2.4300 -0.0008
 4502SOL    HW216045   2.364   2.334   2.503  0.5422  0.4184  2.0382
 4503SOL     OW16046   8.084   9.406   2.889 -0.0887  0.2502 -0.4433
 4503SOL    HW116047   8.004   9.431   2.842 -0.5887 -1.6861 -0.6679
 4503SOL    HW216048   8.154   9.420   2.826 -0.7419 -2.2192 -1.7680
 4504SOL     OW16049   9.342   4.823   1.706  0.4404  0.5960  0.5796
 4504SOL    HW116050   9.431   4.854   1.723  1.2098 -0.6521 -1.1147
 4504SOL    HW216051   9.310   4.880   1.636 -0.2413  1.2770  1.4330
 4505SOL     OW16052   9.627   7.132   1.929 -0.0648 -0.4901 -0.0910
 4505SOL    HW116053   9.600   7.217   1.964 -0.9165 -0.9223  0.3107
 4505SOL    HW216054   9.692   7.100   1.991  0.9113  0.2500 -0.7052
 4506SOL     OW16055   2.338   6.781   2.613 -0.2316  0.7565  0.1953
 4506SOL    HW116056   2.392   6.726   2.558 -1.1290  1.7252 -1.6918
 4506SOL    HW216057   2.248   6.763   2.585 -0.8535  0.0928  2.4350
 4507SOL     OW16058   2.393   9.510   9.128  0.3066 -0.7587 -0.0474
 4507SOL    HW116059   2.457   9.478   9.065 -0.4727 -0.6701 -0.8868
 4507SOL    HW216060   2.321   9.447   9.123  0.2373 -0.7461  0.7397
 4508SOL     OW16061   7.570   5.679   1.464 -0.4583  0.0533 -0.2080
 4508SOL    HW116062   7.663   5.664   1.478 -0.2373  2.0480  0.8003
 4508SOL    HW216063   7.532   5.675   1.552 -0.9953  1.1930 -0.3750
 4509SOL     OW16064   1.924   4.633   5.995  0.3769  0.0443 -0.1216
 4509SOL    HW116065   1.937   4.700   6.062 -2.7001 -1.6425  2.2915
 4509SOL    HW216066   1.987   4.655   5.926  2.4517  2.8208  2.5419
 4510SOL     OW16067   1.095   1.520   8.923  0.0575 -0.2342 -0.6126
 4510SOL    HW116068   1.148   1.508   8.845 -0.4667  0.5170 -1.0848
 4510SOL    HW216069   1.154   1.563   8.985  0.3362 -0.4268 -0.7412
 4511SOL     OW16070   5.447   4.724   6.841 -0.6864 -0.5837  0.1198
 4511SOL    HW116071   5.378   4.681   6.790 -0.9006 -0.4045  0.2635
 4511SOL    HW216072   5.467   4.804   6.792 -0.0638 -1.0016 -0.3221
 4512SOL     OW16073   2.077   9.709   4.090 -0.4454  0.1312 -0.6183
 4512SOL    HW116074   2.051   9.622   4.059  1.1525 -1.0981  1.4038
 4512SOL    HW216075   2.153   9.732   4.036  0.0216 -0.3611 -0.1698
 4513SOL     OW16076   9.313   9.597   5.098  0.1644  0.8096  0.0895
 4513SOL    HW116077   9.397   9.573   5.138 -0.2154 -0.7276 -0.0160
 4513SOL    HW216078   9.251   9.532   5.132 -0.7283  1.1957 -0.7908
 4514SOL     OW16079   1.576   3.787   5.553 -0.0742  0.2143  0.4949
 4514SOL    HW116080   1.503   3.806   5.611  0.9400  0.8589  1.6003
 4514SOL    HW216081   1.604   3.872   5.520  0.1528 -0.0236  0.0645
 4515SOL     OW16082   8.506   9.257   5.699  0.0971 -0.2278  0.4012
 4515SOL    HW116083   8.487   9.225   5.787  0.6719 -2.7042 -0.3351
 4515SOL    HW216084   8.592   9.299   5.706  0.4340 -0.9982  0.8833
 4516SOL     OW16085   4.178   7.131   8.636  0.2484 -0.6167 -0.4844
 4516SOL    HW116086   4.200   7.168   8.722  0.0283 -1.4109 -0.0795
 4516SOL    HW216087   4.233   7.053   8.628  0.9504 -0.0210 -1.4765
 4517SOL     OW16088   2.096   6.254   0.316  0.5933  0.1014  0.2565
 4517SOL    HW116089   2.059   6.166   0.322  1.4678 -0.4702 -2.1549
 4517SOL    HW216090   2.100   6.272   0.222  2.5777  1.7702  0.6216
 4518SOL     OW16091   1.113   5.481   9.273  0.0035 -0.3942  0.3480
 4518SOL    HW116092   1.038   5.478   9.213  0.9912 -1.6258 -0.8477
 4518SOL    HW216093   1.151   5.393   9.269  2.2640  0.5614 -0.0275
 4519SOL     OW16094   3.210   5.760   3.076  0.6214 -0.1870 -0.3819
 4519SOL    HW116095   3.175   5.834   3.125  0.7906  1.3531 -2.5115
 4519SOL    HW216096   3.133   5.715   3.042  0.4894 -1.5005  1.5932
 4520SOL     OW16097   9.475   7.811   7.158 -0.3421 -0.1598 -0.3647
 4520SOL    HW116098   9.551   7.755   7.175 -0.9341 -1.3485 -1.5278
 4520SOL    HW216099   9.499   7.859   7.079 -0.4068  0.1997 -0.1665
 4521SOL     OW16100   3.048   7.982   5.215  0.0604 -0.0708  0.0317
 4521SOL    HW116101   2.995   7.950   5.288 -2.0186 -0.2419 -1.5019
 4521SOL    HW216102   3.109   8.044   5.255 -0.5181 -0.7409  2.0164
 4522SOL     OW16103   0.581   2.926   4.555 -0.0661  0.2567 -0.4908
 4522SOL    HW116104   0.670   2.959   4.557  1.0315 -2.4127 -2.4275
 4522SOL    HW216105   0.570   2.881   4.639  0.9462 -0.7126 -0.8697
 4523SOL     OW16106   1.453   6.781   1.632 -0.2996  0.3994  0.3898
 4523SOL    HW116107   1.448   6.824   1.547 -0.1507  0.1684  0.2636
 4523SOL    HW216108   1.424   6.848   1.695  0.6398  0.9159  0.2768
 4524SOL     OW16109   7.057  10.118   0.503 -0.2375  0.0438 -0.1526
 4524SOL    HW116110   7.147  10.146   0.489  0.0713 -0.1355  1.3681
 4524SOL    HW216111   7.004  10.181   0.454  0.7372 -0.2507 -1.6141
 4525SOL     OW16112   2.156   9.369   9.706 -0.2225 -0.1722  0.6965
 4525SOL    HW116113   2.091   9.299   9.701 -1.1709  0.7558 -0.0368
 4525SOL    HW216114   2.115   9.436   9.761  0.1085  0.4282  0.2090
 4526SOL     OW16115   7.769   6.746   3.737  0.0753 -0.5543  0.0037
 4526SOL    HW116116   7.801   6.674   3.683  0.7426  0.1178 -0.4936
 4526SOL    HW216117   7.829   6.818   3.720 -2.3078  1.0873 -1.7977
 4527SOL     OW16118   8.383   2.156   0.516  0.0913  0.3124 -0.0984
 4527SOL    HW116119   8.473   2.184   0.535 -0.5557  2.9774 -0.8006
 4527SOL    HW216120   8.332   2.188   0.591 -0.6533  0.8922 -0.8516
 4528SOL     OW16121   4.478   3.389   5.129 -0.9168 -0.8216  0.0847
 4528SOL    HW116122   4.511   3.461   5.074  1.2177 -1.0703  0.9709
 4528SOL    HW216123   4.415   3.430   5.187 -0.5105  0.1350 -0.1376
 4529SOL     OW16124   3.126   7.030   7.353  0.3447  0.1966  0.3456
 4529SOL    HW116125   3.145   7.013   7.260  1.1247 -1.0099  0.7184
 4529SOL    HW216126   3.103   6.944   7.389 -0.4766  0.7459  1.1650
 4530SOL     OW16127   1.318   6.911   6.177 -0.4372 -0.1025  0.2554
 4530SOL    HW116128   1.319   6.952   6.090  0.8149 -0.1845  0.2156
 4530SOL    HW216129   1.303   6.984   6.237 -0.5280  0.0770  0.0162
 4531SOL     OW16130   9.326   5.967   9.558 -0.2868  0.0277  0.3449
 4531SOL    HW116131   9.358   5.962   9.648 -1.2755 -1.6616  0.6129
 4531SOL    HW216132   9.356   5.885   9.517  0.7864  1.1007 -1.0825
 4532SOL     OW16133   7.028   3.094   3.960  0.6739 -0.2033  0.1425
 4532SOL    HW116134   6.997   3.080   4.049 -1.0414 -0.4712 -0.4831
 4532SOL    HW216135   6.993   3.020   3.910  0.6304  0.5555 -0.9863
 4533SOL     OW16136   7.870   8.537   2.146  0.1661  0.3407 -0.2898
 4533SOL    HW116137   7.878   8.611   2.206 -0.4781  2.3273 -2.5655
 4533SOL    HW216138   7.959   8.507   2.132  0.7582  2.5942 -1.6100
 4534SOL     OW16139   3.821   7.216   5.416 -0.4094 -0.0780  0.4892
 4534SOL    HW116140   3.883   7.173   5.474  0.0730  0.8821  0.7014
 4534SOL    HW216141   3.874   7.278   5.366 -0.6670 -1.4846 -1.5939
 4535SOL     OW16142   6.893   3.439   0.556  0.0156  0.0334 -0.2775
 4535SOL    HW116143   6.806   3.400   0.542 -0.3653  1.7078 -3.0116
 4535SOL    HW216144   6.881   3.497   0.631 -0.9977 -0.3834 -0.1048
 4536SOL     OW16145   1.615   6.843   9.700  0.5354  0.0038  0.4073
 4536SOL    HW116146   1.658   6.860   9.617  0.1941  0.0698  0.2408
 4536SOL    HW216147   1.603   6.930   9.739  0.2317  0.0158  0.2891
 4537SOL     OW16148   1.870   5.114   9.886  0.5066 -0.1576 -0.1660
 4537SOL    HW116149   1.943   5.079   9.835  0.7875  1.4504 -0.9040
 4537SOL    HW216150   1.910   5.180   9.943 -0.4263  1.2290 -1.0672
 4538SOL     OW16151   3.573   8.195   1.869 -1.0470  0.1548  0.0193
 4538SOL    HW116152   3.640   8.259   1.892 -0.6425 -0.3936  0.3801
 4538SOL    HW216153   3.494   8.246   1.855 -0.7164  0.7330  0.2808
 4539SOL     OW16154   2.401   6.288   9.614  0.2540  0.5846 -0.3947
 4539SOL    HW116155   2.383   6.205   9.569 -0.7471  0.3054  0.4924
 4539SOL    HW216156   2.430   6.347   9.545 -0.3723 -0.1098 -1.2688
 4540SOL     OW16157   8.113   0.853   9.688  0.6941 -0.4944  0.6845
 4540SOL    HW116158   8.093   0.765   9.654  3.1450 -0.6007 -0.6416
 4540SOL    HW216159   8.125   0.840   9.782  1.3158 -1.6674  0.4658
 4541SOL     OW16160   4.540   8.825   2.848  0.6638  0.0087  0.0784
 4541SOL    HW116161   4.530   8.754   2.785 -0.1701  1.4599 -1.4611
 4541SOL    HW216162   4.477   8.804   2.917  1.2391 -1.3343  0.2179
 4542SOL     OW16163   8.676   2.293   1.617 -0.1720 -0.1215  0.2304
 4542SOL    HW116164   8.651   2.344   1.540 -0.0773  0.5363  0.6293
 4542SOL    HW216165   8.771   2.307   1.624  0.0887 -1.4966 -0.4820
 4543SOL     OW16166   9.711   4.913   6.608  0.0722  0.1796 -0.0122
 4543SOL    HW116167   9.746   4.878   6.690  1.3475  1.4732  0.0236
 4543SOL    HW216168   9.715   4.839   6.547  2.6145  0.1862  0.0864
 4544SOL     OW16169   4.351   2.062   7.270  0.5972 -0.1319 -0.0469
 4544SOL    HW116170   4.424   2.096   7.218  0.7746 -0.0546  0.2468
 4544SOL    HW216171   4.385   2.063   7.360 -0.0394  0.6457  0.1918
 4545SOL     OW16172   8.705   0.145   9.360 -0.6165 -0.2124 -0.0946
 4545SOL    HW116173   8.621   0.191   9.363 -2.1697 -2.8902 -0.1765
 4545SOL    HW216174   8.737   0.161   9.271 -1.6191 -0.1140 -0.4512
 4546SOL     OW16175   9.664   0.573   0.454  0.2703 -0.0082 -0.0049
 4546SOL    HW116176   9.731   0.627   0.496  0.7475 -1.3506  0.9646
 4546SOL    HW216177   9.649   0.500   0.514 -1.2078 -0.3610 -0.7644
 4547SOL     OW16178   6.587   7.080   7.549  0.1394  0.2461 -0.5118
 4547SOL    HW116179   6.663   7.133   7.524 -0.8875  1.6469 -0.6869
 4547SOL    HW216180   6.614   7.036   7.629  1.3602  0.2681 -0.9011
 4548SOL     OW16181   5.898   1.830   5.711 -0.1363 -0.0347  0.0562
 4548SOL    HW116182   5.869   1.825   5.802  1.0984  0.0167  0.4622
 4548SOL    HW216183   5.904   1.923   5.692 -1.1443 -0.0403 -0.3344
 4549SOL     OW16184   0.846   0.469   6.250 -0.2423  0.1731  0.5673
 4549SOL    HW116185   0.771   0.413   6.269 -1.5365  1.3106 -0.9586
 4549SOL    HW216186   0.807   0.547   6.210  1.7733  0.7406 -0.3427
 4550SOL     OW16187   8.186   3.488   5.754 -0.0595 -0.5155 -0.4226
 4550SOL    HW116188   8.205   3.491   5.660  1.1622 -0.0702 -0.1608
 4550SOL    HW216189   8.269   3.468   5.795 -0.2504  0.8596  0.6815
 4551SOL     OW16190   1.848   6.494   6.730  0.0928 -0.0526 -0.3127
 4551SOL    HW116191   1.775   6.494   6.668 -0.7691  0.2044  0.6860
 4551SOL    HW216192   1.876   6.585   6.733 -0.7169  0.1724  0.6493
 4552SOL     OW16193   9.729   2.647   4.646 -0.3913  0.3557  0.4854
 4552SOL    HW116194   9.695   2.697   4.571  1.8057 -1.8901 -2.1377
 4552SOL    HW216195   9.822   2.669   4.649  0.0458 -1.4919  0.9887
 4553SOL     OW16196   6.725   3.295   0.795 -0.5875 -0.2393 -0.1307
 4553SOL    HW116197   6.689   3.221   0.844 -0.5226 -1.0263 -1.2489
 4553SOL    HW216198   6.716   3.269   0.703 -1.4339  1.5416 -0.5722
 4554SOL     OW16199   5.104   2.341   7.018  0.5211 -0.0081  0.4515
 4554SOL    HW116200   5.118   2.250   7.046  2.7534 -0.5605 -2.2667
 4554SOL    HW216201   5.185   2.386   7.041  0.6213  0.5795 -1.0307
 4555SOL     OW16202   3.173   6.527   9.963 -0.6781  0.1325 -0.2132
 4555SOL    HW116203   3.218   6.450   9.997 -1.0110  0.3821  0.7976
 4555SOL    HW216204   3.231   6.560   9.894  0.8993  0.6747  1.3326
 4556SOL     OW16205   4.526   1.023   1.945  0.1615 -0.7624  0.4037
 4556SOL    HW116206   4.608   1.048   1.901 -0.2487  0.6281  0.4203
 4556SOL    HW216207   4.540   0.932   1.970  1.2767 -0.8895 -0.6043
 4557SOL     OW16208   0.512   9.050   1.990 -0.3250 -0.3159  0.3359
 4557SOL    HW116209   0.592   9.051   1.937 -0.9894 -3.3423 -0.7946
 4557SOL    HW216210   0.453   9.111   1.945  0.9268  1.1306  0.5885
 4558SOL     OW16211   5.729   9.955   2.294 -0.1543 -0.1363  0.1792
 4558SOL    HW116212   5.743  10.042   2.257 -0.2313 -0.2654 -0.1570
 4558SOL    HW216213   5.639   9.957   2.327 -0.2411 -0.1684 -0.0523
 4559SOL     OW16214   1.484   0.508   1.633 -0.6614 -0.0544 -0.0836
 4559SOL    HW116215   1.475   0.487   1.540 -0.4924  0.9807 -0.3379
 4559SOL    HW216216   1.460   0.600   1.640 -0.8207 -0.1632  0.9253
 4560SOL     OW16217   0.755   6.233   6.963  0.1977  0.0771 -0.3273
 4560SOL    HW116218   0.810   6.155   6.959  1.5873  1.0975 -2.3021
 4560SOL    HW216219   0.810   6.298   7.008 -1.1691 -0.1944  1.8485
 4561SOL     OW16220   9.505   2.362   9.164 -0.9911 -0.0116 -0.5158
 4561SOL    HW116221   9.496   2.267   9.153 -0.6506 -0.1963  0.7020
 4561SOL    HW216222   9.599   2.376   9.176 -1.2914  0.2055  1.6735
 4562SOL     OW16223   0.159   2.013   6.743 -0.0824 -0.1873 -0.5320
 4562SOL    HW116224   0.096   2.077   6.709 -1.8167 -1.3646  0.3419
 4562SOL    HW216225   0.152   1.939   6.683 -0.3813 -0.7662  0.2033
 4563SOL     OW16226   6.805   3.718   1.345  0.0166  0.4713 -0.0602
 4563SOL    HW116227   6.762   3.723   1.259  0.5470 -0.1506 -0.3692
 4563SOL    HW216228   6.869   3.788   1.344 -1.7087  2.1039  0.8185
 4564SOL     OW16229   0.350   3.815   7.195  0.5389 -0.0013  0.0953
 4564SOL    HW116230   0.408   3.739   7.205 -0.3765 -0.8734 -1.0390
 4564SOL    HW216231   0.398   3.887   7.234  2.1996 -0.7959 -0.4440
 4565SOL     OW16232   9.324   2.111   9.148 -0.1713  0.2183  0.4948
 4565SOL    HW116233   9.239   2.134   9.112 -2.1258 -2.0720  3.3701
 4565SOL    HW216234   9.366   2.060   9.080 -1.7983 -0.0504 -0.3289
 4566SOL     OW16235   9.767   5.237   1.167  0.5438 -0.5727  0.0472
 4566SOL    HW116236   9.815   5.265   1.089  0.6109  0.0262  0.3042
 4566SOL    HW216237   9.717   5.315   1.193  0.1700 -0.9082  0.3364
 4567SOL     OW16238   8.782   7.583   5.329  0.1004  0.4904  0.1536
 4567SOL    HW116239   8.762   7.596   5.236 -0.4223  0.6404  0.2848
 4567SOL    HW216240   8.778   7.488   5.341 -1.5130  0.5652  0.3833
 4568SOL     OW16241   0.674   6.576   0.791 -0.5944 -0.3677  0.2833
 4568SOL    HW116242   0.738   6.510   0.819  1.1200  0.8517 -0.6822
 4568SOL    HW216243   0.616   6.586   0.867  2.0018  0.4719  2.1992
 4569SOL     OW16244   9.040   3.050   7.993  0.0871  0.2045 -0.6925
 4569SOL    HW116245   9.032   3.145   7.998 -2.1692  0.1235 -1.9646
 4569SOL    HW216246   8.981   3.018   8.062  1.5159 -0.2679  0.3258
 4570SOL     OW16247   5.092   0.870   8.448  0.4317 -0.4071 -1.3528
 4570SOL    HW116248   5.068   0.878   8.541  1.4907 -0.7518 -1.0435
 4570SOL    HW216249   5.127   0.957   8.425 -2.4015  0.5556 -2.1979
 4571SOL     OW16250   9.335   2.228   7.428  0.0654  0.2571  0.0460
 4571SOL    HW116251   9.264   2.197   7.484  0.8379  0.7132  1.3187
 4571SOL    HW216252   9.361   2.151   7.377 -1.5794  0.1897 -0.6981
 4572SOL     OW16253   0.287   1.075   5.741  0.9970  0.1440 -0.4106
 4572SOL    HW116254   0.287   0.985   5.708  0.4003  0.0318 -0.1035
 4572SOL    HW216255   0.249   1.127   5.669  0.4531  0.0144 -0.2182
 4573SOL     OW16256   6.129   3.059   2.438 -0.1842 -0.2784  0.5395
 4573SOL    HW116257   6.114   3.086   2.347  1.6752 -0.5205  0.1398
 4573SOL    HW216258   6.042   3.033   2.469 -0.9852  0.5307 -0.9172
 4574SOL     OW16259   1.348   9.557   1.991  0.0131 -0.6907 -0.2847
 4574SOL    HW116260   1.265   9.594   2.023  0.2450 -0.1707 -0.2775
 4574SOL    HW216261   1.345   9.570   1.896 -0.5418 -1.9633 -0.4397
 4575SOL     OW16262   2.888   4.139   9.266 -0.0380 -0.8171  0.2836
 4575SOL    HW116263   2.972   4.165   9.228  0.5253 -0.2954  1.8454
 4575SOL    HW216264   2.837   4.220   9.269  0.0648 -0.7677  0.9558
 4576SOL     OW16265   1.758   8.052   3.377 -0.5420  0.1489  0.5011
 4576SOL    HW116266   1.670   8.052   3.415 -0.6114  0.0216  0.3401
 4576SOL    HW216267   1.757   7.980   3.314 -1.0804  1.6357 -1.2409
 4577SOL     OW16268   0.939   6.345   5.634 -0.0897  0.1797  0.1562
 4577SOL    HW116269   0.884   6.268   5.646  0.2359  0.0351  0.7623
 4577SOL    HW216270   0.920   6.401   5.709  2.5431 -1.0861  1.8729
 4578SOL     OW16271   4.403   5.302   5.917 -0.7916 -0.4939 -0.1134
 4578SOL    HW116272   4.423   5.209   5.928  0.1436 -0.0880  1.8442
 4578SOL    HW216273   4.420   5.320   5.825 -0.1100 -2.0520 -0.3040
 4579SOL     OW16274   8.441   8.393   6.307 -0.5225  0.1207 -0.0705
 4579SOL    HW116275   8.438   8.335   6.384  0.4991  0.2787  0.1028
 4579SOL    HW216276   8.439   8.481   6.344  0.9827  0.2094 -0.1436
 4580SOL     OW16277   4.684   0.305   0.600 -0.3307  0.3322 -0.2791
 4580SOL    HW116278   4.662   0.353   0.680  0.0307 -0.4228  0.2795
 4580SOL    HW216279   4.629   0.227   0.603  1.4365 -0.9239  0.4738
 4581SOL     OW16280   6.651   6.511   9.129 -0.4300 -0.4707  0.6879
 4581SOL    HW116281   6.722   6.526   9.067 -0.7996 -0.7158  0.2039
 4581SOL    HW216282   6.624   6.420   9.113 -1.7891  0.0716 -0.0979
 4582SOL     OW16283   1.062   7.138   2.031  0.2037 -0.3090  0.0347
 4582SOL    HW116284   1.052   7.051   2.069 -1.0688  0.2774  1.0694
 4582SOL    HW216285   1.052   7.198   2.105 -0.6559  0.7816 -0.9511
 4583SOL     OW16286   4.926   9.393   6.695 -0.0184 -0.2925 -0.0736
 4583SOL    HW116287   5.008   9.343   6.695  0.1235 -0.0630  0.5042
 4583SOL    HW216288   4.954   9.483   6.712 -0.4218 -0.2690  0.4827
 4584SOL     OW16289   7.496   3.713   3.093  0.0999  0.1978  0.1256
 4584SOL    HW116290   7.563   3.777   3.072 -0.9011  0.4690 -2.3530
 4584SOL    HW216291   7.440   3.710   3.016 -2.4469 -0.3992  1.9256
 4585SOL     OW16292   6.616   4.049   6.178 -0.0969  0.3452  0.1298
 4585SOL    HW116293   6.676   3.975   6.187 -3.3562 -2.3136  0.8004
 4585SOL    HW216294   6.640   4.107   6.251  2.3336 -0.0919 -0.2573
 4586SOL     OW16295   5.701   6.074   6.913  0.2209 -0.0447  0.6912
 4586SOL    HW116296   5.741   6.160   6.900 -2.9724  1.2759 -1.2714
 4586SOL    HW216297   5.670   6.049   6.826 -0.9722 -2.0754  1.6640
 4587SOL     OW16298   1.006   6.655   5.387 -0.1718  0.1412 -0.1989
 4587SOL    HW116299   1.094   6.651   5.349  0.6926  1.6439  1.5515
 4587SOL    HW216300   0.985   6.749   5.388 -1.4629 -0.1448  0.1276
 4588SOL     OW16301   8.012   6.295   1.471 -0.2998 -0.3939 -0.9897
 4588SOL    HW116302   7.921   6.302   1.443 -0.3327  3.7603 -0.2110
 4588SOL    HW216303   8.054   6.374   1.437  2.2996 -0.7953  1.0955
 4589SOL     OW16304   7.731   9.007   8.773  0.3114  0.1645 -1.1090
 4589SOL    HW116305   7.790   9.082   8.765  0.6208 -0.3336 -3.9753
 4589SOL    HW216306   7.742   8.959   8.691 -1.0097 -2.2073  0.0523
 4590SOL     OW16307   5.407   2.689   9.953 -0.2851 -0.4178 -0.2762
 4590SOL    HW116308   5.495   2.670   9.920  0.2230  0.2000  0.6993
 4590SOL    HW216309   5.384   2.773   9.914 -0.2237 -0.3157 -0.0897
 4591SOL     OW16310   1.197   5.403   4.798  0.6351 -0.0071 -0.3301
 4591SOL    HW116311   1.288   5.409   4.826  1.0539  0.0151 -1.6740
 4591SOL    HW216312   1.190   5.464   4.724 -0.5367  0.2012 -0.0666
 4592SOL     OW16313   3.443   5.405   8.575 -0.3081 -0.2625  0.0979
 4592SOL    HW116314   3.473   5.436   8.660 -0.5393 -0.0118  0.0884
 4592SOL    HW216315   3.348   5.394   8.586 -1.0217  3.5956 -1.2782
 4593SOL     OW16316   8.021   1.502  10.061  0.1049 -0.1982  0.7431
 4593SOL    HW116317   8.067   1.571  10.109 -0.7685 -0.4047  1.8926
 4593SOL    HW216318   7.983   1.446  10.129  2.9816 -3.3496 -0.0730
 4594SOL     OW16319   5.558   4.168   0.691  0.3508 -0.2538 -0.2730
 4594SOL    HW116320   5.494   4.096   0.685 -0.0017  0.1667 -1.7811
 4594SOL    HW216321   5.507   4.242   0.723  0.1061  0.0180 -1.2524
 4595SOL     OW16322   0.259   0.651   2.388  0.3104 -0.4474  0.1213
 4595SOL    HW116323   0.286   0.742   2.401  2.5483 -0.9566 -0.6951
 4595SOL    HW216324   0.165   0.656   2.367  0.2422  1.5878  0.8559
 4596SOL     OW16325   8.364   5.508   4.180  0.4524 -0.1109 -0.1442
 4596SOL    HW116326   8.368   5.433   4.240 -0.9263 -1.6270 -1.9054
 4596SOL    HW216327   8.413   5.577   4.225  0.6008 -1.6383  2.1137
 4597SOL     OW16328   5.310   7.703   2.252 -0.3733  0.5472 -0.1067
 4597SOL    HW116329   5.298   7.677   2.160 -2.2185  0.1768  0.2224
 4597SOL    HW216330   5.375   7.642   2.286  1.0038  1.2563 -1.3964
 4598SOL     OW16331   0.707   0.364   0.006  0.2635 -0.2355 -0.0282
 4598SOL    HW116332   0.694   0.446  -0.042  0.7022 -0.9095 -1.3198
 4598SOL    HW216333   0.640   0.366   0.075 -1.1269  0.2201 -1.3710
 4599SOL     OW16334   8.621   3.816   5.488  0.2991 -0.2014 -0.3841
 4599SOL    HW116335   8.703   3.859   5.466  0.5074 -0.4536 -0.1065
 4599SOL    HW216336   8.617   3.740   5.429  0.2137 -0.1286 -0.4717
 4600SOL     OW16337   9.809   5.743   6.280  0.1493 -0.0708 -0.2583
 4600SOL    HW116338   9.900   5.766   6.263  0.3729 -2.1042 -1.9886
 4600SOL    HW216339   9.812   5.653   6.312 -1.2587 -0.3191 -0.7650
 4601SOL     OW16340   0.453   7.033   2.358 -0.2237  0.2125 -0.3709
 4601SOL    HW116341   0.505   6.977   2.416 -1.4834 -0.2118  0.3597
 4601SOL    HW216342   0.440   6.981   2.279  0.9465  0.5443 -0.7907
 4602SOL     OW16343   6.762   5.855   0.583 -0.1653  0.0929 -0.0053
 4602SOL    HW116344   6.681   5.845   0.533 -0.9884 -0.9338  1.4884
 4602SOL    HW216345   6.757   5.944   0.620 -1.1058 -0.3446  0.9298
 4603SOL     OW16346   2.812   8.924   2.065  0.1828 -0.9022  0.0970
 4603SOL    HW116347   2.800   9.015   2.040  1.7069 -0.9895 -0.9820
 4603SOL    HW216348   2.765   8.915   2.148 -1.2602  0.4710 -0.5622
 4604SOL     OW16349   9.630  10.007   2.355  0.2184 -0.0753 -0.2267
 4604SOL    HW116350   9.673  10.079   2.402 -1.3198 -0.0129  1.1029
 4604SOL    HW216351   9.637  10.031   2.263  1.3355  0.8734  0.0937
 4605SOL     OW16352   1.155   8.717   1.620 -0.4222 -0.0543  0.3159
 4605SOL    HW116353   1.218   8.789   1.621 -1.1681  0.6014  1.7538
 4605SOL    HW216354   1.208   8.638   1.606  0.4105  0.7561 -1.1761
 4606SOL     OW16355   3.362   7.256   7.194 -0.4123  0.1862  0.4610
 4606SOL    HW116356   3.273   7.220   7.188 -0.7380  1.2346 -1.1552
 4606SOL    HW216357   3.399   7.245   7.107  0.9263  0.1095  1.0245
 4607SOL     OW16358   9.987   7.491   6.745 -0.8227 -0.2754 -0.3633
 4607SOL    HW116359  10.015   7.498   6.654  2.5975  0.6154  0.6790
 4607SOL    HW216360   9.956   7.579   6.768 -1.1862 -0.3648 -0.5097
 4608SOL     OW16361   1.550   8.758   0.626  0.4120  0.4792 -0.1214
 4608SOL    HW116362   1.468   8.718   0.657 -0.7265  0.9543 -2.4404
 4608SOL    HW216363   1.524   8.844   0.594  2.3762  1.9011  2.0260
 4609SOL     OW16364   5.042   0.166   2.015  0.1975  0.2760 -0.5226
 4609SOL    HW116365   4.963   0.126   2.052  0.9789  0.6007  1.5558
 4609SOL    HW216366   5.034   0.152   1.920 -0.8391 -2.3968 -0.0756
 4610SOL     OW16367   2.915   3.646   8.405 -0.7230 -0.4456 -0.7472
 4610SOL    HW116368   2.879   3.583   8.343  0.4419 -1.1697 -0.6830
 4610SOL    HW216369   2.968   3.705   8.351 -0.6165 -0.4004 -0.5922
 4611SOL     OW16370   9.111   8.492   6.417 -0.1618  0.0581 -0.3812
 4611SOL    HW116371   9.100   8.474   6.510 -1.0578  1.6410 -0.1636
 4611SOL    HW216372   9.064   8.422   6.373  1.4905 -1.5300  0.3190
 4612SOL     OW16373   2.653   8.367   5.636  0.1021 -0.1486  0.3434
 4612SOL    HW116374   2.558   8.362   5.628  0.1547  0.5511 -0.8895
 4612SOL    HW216375   2.668   8.393   5.727 -0.7573 -3.1517  1.4088
 4613SOL     OW16376   6.695   2.846   4.992  0.3299  0.2566  0.0896
 4613SOL    HW116377   6.768   2.792   5.023 -0.1492 -0.0886  0.6362
 4613SOL    HW216378   6.636   2.852   5.068 -1.1139 -1.0415 -0.8888
 4614SOL     OW16379   2.949   9.680   6.275 -0.0771 -0.1264 -0.5564
 4614SOL    HW116380   2.951   9.760   6.223 -2.8227 -0.4043 -1.1652
 4614SOL    HW216381   2.991   9.614   6.220  0.9079  0.5540 -0.6307
 4615SOL     OW16382   6.273   2.583   8.061 -0.8276  0.2535 -0.5336
 4615SOL    HW116383   6.345   2.613   8.116 -0.8912 -0.6620  0.0514
 4615SOL    HW216384   6.230   2.664   8.031 -1.6805  0.7404  1.9106
 4616SOL     OW16385   6.554   6.196   6.736 -0.4208 -0.3547 -0.0769
 4616SOL    HW116386   6.581   6.238   6.654  0.6738 -0.6046  0.1472
 4616SOL    HW216387   6.467   6.231   6.753 -0.7920 -0.5593 -1.5214
 4617SOL     OW16388   7.860   5.612   1.459  0.0863 -0.0935 -0.1797
 4617SOL    HW116389   7.879   5.587   1.549  0.9011  1.1423  0.0039
 4617SOL    HW216390   7.936   5.662   1.431  0.3180 -1.3534 -1.9141
 4618SOL     OW16391   5.395   8.106   7.537 -0.8311 -0.1405 -0.0526
 4618SOL    HW116392   5.483   8.134   7.513 -1.5787  1.0715 -1.5138
 4618SOL    HW216393   5.392   8.013   7.515  0.3245 -0.3798  0.7797
 4619SOL     OW16394   5.263   0.725   6.166 -0.4417 -0.2100 -0.0638
 4619SOL    HW116395   5.254   0.741   6.260 -2.0691  0.3507 -0.2903
 4619SOL    HW216396   5.208   0.648   6.150  1.0959 -1.2880 -0.3081
 4620SOL     OW16397   3.136   5.929   6.767 -0.5626 -0.1154  0.0664
 4620SOL    HW116398   3.223   5.891   6.780  0.2955  1.8684  0.3610
 4620SOL    HW216399   3.128   5.995   6.836 -2.6161 -0.7784  0.5029
 4621SOL     OW16400   1.258   7.481   1.967 -0.7078 -0.2505 -0.2127
 4621SOL    HW116401   1.203   7.479   1.889  0.0253 -0.4419 -0.7250
 4621SOL    HW216402   1.334   7.534   1.942  0.0002 -1.1193  0.0470
 4622SOL     OW16403   7.266   1.771   5.126  0.2966 -0.3052  0.7060
 4622SOL    HW116404   7.177   1.740   5.142  0.3550 -0.4298  0.7839
 4622SOL    HW216405   7.314   1.694   5.097  0.6459 -0.4612  1.6854
 4623SOL     OW16406   0.149   3.139   1.434 -0.4700  0.3336  0.4929
 4623SOL    HW116407   0.101   3.214   1.470 -1.9829  0.3990 -1.5902
 4623SOL    HW216408   0.226   3.178   1.393  0.5433  0.3877  2.3976
 4624SOL     OW16409   1.002   5.731   0.631 -0.5023 -0.0059 -0.4779
 4624SOL    HW116410   0.984   5.648   0.675 -0.8289  0.5649  0.4704
 4624SOL    HW216411   1.088   5.719   0.591 -0.4937 -0.7529 -0.2370
 4625SOL     OW16412   3.660   7.459   4.818 -0.4286 -0.3396 -0.1388
 4625SOL    HW116413   3.720   7.385   4.833  1.1408  0.8108 -0.5274
 4625SOL    HW216414   3.584   7.439   4.873  0.7181 -1.3759  1.1425
 4626SOL     OW16415   7.829   7.192   5.252  0.9061  0.1649  0.4653
 4626SOL    HW116416   7.838   7.277   5.209 -0.0321  1.0921  2.0504
 4626SOL    HW216417   7.890   7.135   5.206  1.2775  1.6051 -0.8601
 4627SOL     OW16418   5.548   3.971   4.058 -0.3531 -0.4361 -0.5746
 4627SOL    HW116419   5.495   3.911   4.006 -0.9576 -0.9404  0.6137
 4627SOL    HW216420   5.539   3.940   4.148 -0.1476  1.0287 -0.0304
 4628SOL     OW16421   3.711   8.132   4.414 -0.0883  0.0114 -0.2983
 4628SOL    HW116422   3.806   8.146   4.404 -0.4933  2.1854 -1.4049
 4628SOL    HW216423   3.694   8.154   4.506  0.3549  0.4293 -0.3100
 4629SOL     OW16424   0.011   5.403   1.961  0.2317  0.3719  1.1521
 4629SOL    HW116425   0.011   5.466   2.033  2.0787  0.6980  0.8897
 4629SOL    HW216426   0.028   5.318   2.003 -0.9681  0.2311  1.3575
 4630SOL     OW16427   9.206   1.388   2.083 -0.6631 -0.3722 -0.3023
 4630SOL    HW116428   9.257   1.373   2.004  1.0922 -1.2327  0.9551
 4630SOL    HW216429   9.126   1.337   2.070  0.2683 -1.7111 -0.9037
 4631SOL     OW16430   0.331   2.344   0.171  0.4564  0.1575 -0.1459
 4631SOL    HW116431   0.244   2.304   0.167  1.5979 -2.6072  0.9406
 4631SOL    HW216432   0.334   2.403   0.097 -0.9225 -2.7707 -2.6463
 4632SOL     OW16433   9.800   2.472   9.457 -0.4224 -0.1817 -0.1099
 4632SOL    HW116434   9.850   2.538   9.410 -0.9080  0.2831  0.0142
 4632SOL    HW216435   9.814   2.492   9.550 -0.6290 -0.2008 -0.0724
 4633SOL     OW16436   1.183   0.815   2.672  0.4919 -0.7588  0.5436
 4633SOL    HW116437   1.112   0.878   2.659  0.0042 -1.2970  0.6308
 4633SOL    HW216438   1.161   0.741   2.616  2.1834  0.0393 -1.2585
 4634SOL     OW16439   7.536   3.721   7.301 -0.0088 -0.7998 -0.2139
 4634SOL    HW116440   7.548   3.706   7.394 -0.4782 -1.0158 -0.1876
 4634SOL    HW216441   7.610   3.678   7.259  1.6765  1.5480  0.2299
 4635SOL     OW16442   1.227   9.054   1.703 -0.2870  0.6473  0.8625
 4635SOL    HW116443   1.292   8.987   1.682 -0.8878  0.3693 -0.1197
 4635SOL    HW216444   1.271   9.111   1.766  1.6495  1.6714 -1.3320
 4636SOL     OW16445   3.344   8.088   5.935 -0.3140  0.4466  0.3243
 4636SOL    HW116446   3.300   8.010   5.903  0.7812  0.2249 -0.6864
 4636SOL    HW216447   3.323   8.091   6.028 -1.3404 -0.3887  0.1289
 4637SOL     OW16448   1.889   5.885   5.848 -0.0820  0.6613 -0.7121
 4637SOL    HW116449   1.808   5.922   5.883  0.0537  2.8752 -2.6445
 4637SOL    HW216450   1.958   5.944   5.876  0.6645 -0.3099 -0.4678
 4638SOL     OW16451   0.753   1.154   4.067  0.0456  0.3123  0.6609
 4638SOL    HW116452   0.698   1.232   4.076 -0.6205  0.0011 -0.6151
 4638SOL    HW216453   0.799   1.166   3.984  2.3227  0.8050  1.9405
 4639SOL     OW16454   8.907   4.474   3.622 -0.2748 -0.1958 -0.1469
 4639SOL    HW116455   8.919   4.379   3.621  0.7124 -0.0620 -0.8765
 4639SOL    HW216456   8.992   4.510   3.598 -1.1093  0.8302 -1.6640
 4640SOL     OW16457   2.251   5.213   8.009 -0.5030  0.5069  0.6170
 4640SOL    HW116458   2.247   5.305   7.983  2.2714  0.0903 -1.5128
 4640SOL    HW216459   2.332   5.207   8.060 -1.1208 -0.6152  1.4887
 4641SOL     OW16460   6.855   7.864   7.964  0.5911  0.3820 -0.3198
 4641SOL    HW116461   6.864   7.937   8.026  1.3502 -0.7141  0.8747
 4641SOL    HW216462   6.772   7.823   7.988  1.2040 -0.4411  0.4066
 4642SOL     OW16463   4.663   9.328   8.182  0.4442  0.0035 -0.5787
 4642SOL    HW116464   4.628   9.316   8.270 -0.0824 -2.2485 -1.0703
 4642SOL    HW216465   4.758   9.324   8.194  0.3508 -1.2147 -0.2433
 4643SOL     OW16466   9.125   1.767   0.092  0.1455  0.3412 -0.3847
 4643SOL    HW116467   9.162   1.785   0.006  2.0326 -0.2138  0.2894
 4643SOL    HW216468   9.178   1.819   0.152  0.9835 -1.8215  0.8019
 4644SOL     OW16469   4.790   2.722   0.234 -0.5956 -0.2084 -0.1239
 4644SOL    HW116470   4.813   2.793   0.174  1.5270 -0.1279  0.7668
 4644SOL    HW216471   4.751   2.766   0.310 -0.6937 -0.1073 -0.2340
 4645SOL     OW16472   0.903   4.115   1.675  0.4094  0.0604  0.1633
 4645SOL    HW116473   0.946   4.047   1.622 -0.6364  1.1697 -2.2001
 4645SOL    HW216474   0.956   4.193   1.661  1.9483 -0.3648  3.3570
 4646SOL     OW16475   4.610   1.879   8.575 -0.2638  0.1595 -0.4017
 4646SOL    HW116476   4.606   1.816   8.648 -0.1935  0.3578 -0.2255
 4646SOL    HW216477   4.640   1.960   8.616 -1.3020  0.5740 -0.4565
 4647SOL     OW16478   2.124   2.099   5.982  0.6702 -0.3288  0.0939
 4647SOL    HW116479   2.087   2.062   5.902  0.1100 -0.7473  0.5479
 4647SOL    HW216480   2.212   2.128   5.956  0.4842 -0.4492 -0.6757
 4648SOL     OW16481   1.997   1.561   8.283  0.2645  0.6555 -0.2614
 4648SOL    HW116482   2.054   1.639   8.289 -0.0005  0.8543 -0.3307
 4648SOL    HW216483   1.925   1.580   8.343  0.7217  0.0205  0.4972
 4649SOL     OW16484   1.029   1.049   8.103  0.5872  0.2775 -0.7661
 4649SOL    HW116485   1.059   0.961   8.125  0.5993  0.1601 -1.2427
 4649SOL    HW216486   1.057   1.062   8.013  0.2182  0.6101 -0.8340
 4650SOL     OW16487   3.039   1.300   9.086  0.2061 -0.5205  0.0862
 4650SOL    HW116488   3.073   1.341   9.166  0.6565  0.1680 -0.4585
 4650SOL    HW216489   2.966   1.356   9.059  2.0028  1.0403 -1.7061
 4651SOL     OW16490   1.768   3.022   4.990 -0.1083  0.3198  0.2900
 4651SOL    HW116491   1.768   3.042   4.896 -0.6898 -1.1909 -0.0485
 4651SOL    HW216492   1.852   3.056   5.022  1.6803 -2.2051 -1.4917
 4652SOL     OW16493   6.843   0.234   5.908  0.1508  0.3284  0.1634
 4652SOL    HW116494   6.805   0.286   5.837 -0.3187  0.3908  0.4639
 4652SOL    HW216495   6.867   0.298   5.974  0.7501  0.2875 -0.0069
 4653SOL     OW16496   9.112   1.456   6.165 -0.0424 -0.0748 -0.1125
 4653SOL    HW116497   9.167   1.530   6.189 -0.6738  0.5174 -0.4720
 4653SOL    HW216498   9.172   1.392   6.127  0.7523 -0.4282  1.6832
 4654SOL     OW16499   5.497   1.740   4.446  0.1839 -0.5066  0.4437
 4654SOL    HW116500   5.557   1.683   4.493  3.5563 -0.5966 -3.7628
 4654SOL    HW216501   5.530   1.829   4.462 -1.2546 -0.1415  1.6469
 4655SOL     OW16502   4.098   0.471   1.353 -0.0492  0.2541 -0.1727
 4655SOL    HW116503   4.016   0.444   1.310  0.1141 -0.3421 -0.1074
 4655SOL    HW216504   4.142   0.525   1.288  0.6577 -1.4542 -1.1320
 4656SOL     OW16505   5.120   5.333   4.610  0.4402 -0.2378  0.4017
 4656SOL    HW116506   5.048   5.285   4.568  1.6081 -1.0516 -0.6879
 4656SOL    HW216507   5.104   5.425   4.586 -0.2727 -0.4077  0.2055
 4657SOL     OW16508   8.996   2.463   6.030 -0.1907  0.8061  0.2363
 4657SOL    HW116509   8.932   2.401   6.065 -0.0541  0.3731 -0.2661
 4657SOL    HW216510   9.039   2.415   5.960  1.1184  0.8915  0.9752
 4658SOL     OW16511   7.976   5.843   9.507  0.1011 -0.1283  0.3364
 4658SOL    HW116512   7.993   5.750   9.492  0.7104  0.0237  0.0934
 4658SOL    HW216513   7.916   5.867   9.436  2.3507  0.3925 -1.4369
 4659SOL     OW16514   6.745   8.251  10.059  0.6588 -0.7353  0.1518
 4659SOL    HW116515   6.745   8.189   9.987  0.9152 -0.0656 -0.4383
 4659SOL    HW216516   6.653   8.262  10.082  0.2270  1.6454 -2.3825
 4660SOL     OW16517   0.262   1.190   0.248  0.2391 -0.6209 -0.2400
 4660SOL    HW116518   0.315   1.204   0.327 -0.7768  1.0656  0.1535
 4660SOL    HW216519   0.217   1.107   0.265  1.0722 -0.9670  0.3549
 4661SOL     OW16520   6.401   6.396   2.680  0.2725  0.1567  0.2607
 4661SOL    HW116521   6.416   6.472   2.735 -0.5453 -0.8485  1.9183
 4661SOL    HW216522   6.311   6.407   2.649  0.3943  0.2213 -0.0689
 4662SOL     OW16523  10.130   9.821   1.484 -0.2083  0.2578 -0.2217
 4662SOL    HW116524  10.224   9.800   1.486  0.2903  2.0945 -2.7937
 4662SOL    HW216525  10.089   9.743   1.447  0.3609 -0.2660  0.2362
 4663SOL     OW16526   4.752   9.014   8.262 -0.0311 -0.4574  0.8333
 4663SOL    HW116527   4.808   8.942   8.294  1.2427 -0.1437 -0.6010
 4663SOL    HW216528   4.799   9.093   8.287 -0.5711 -0.1644  0.9022
 4664SOL     OW16529   1.857   5.679   9.850  0.2893 -0.0901  0.5153
 4664SOL    HW116530   1.766   5.708   9.838  0.6735  0.3918 -1.3259
 4664SOL    HW216531   1.869   5.678   9.945 -1.7153 -0.3920  0.7957
 4665SOL     OW16532   1.768   9.176   9.111  0.2242 -0.2325 -0.3406
 4665SOL    HW116533   1.721   9.194   9.193  0.5090 -0.0966 -0.2082
 4665SOL    HW216534   1.859   9.167   9.137  0.5166  1.2631 -0.8479
 4666SOL     OW16535   4.631   7.779   1.738  0.2359 -0.2981 -0.7655
 4666SOL    HW116536   4.602   7.777   1.647  0.6914  1.4856 -0.9713
 4666SOL    HW216537   4.550   7.771   1.789 -0.0208 -1.3043 -1.3139
 4667SOL     OW16538   9.560   5.993   3.669 -0.0860 -0.5025  0.5946
 4667SOL    HW116539   9.652   6.005   3.693  0.1942 -1.2162 -0.1079
 4667SOL    HW216540   9.512   6.040   3.737  0.7395 -1.7017  2.0502
 4668SOL     OW16541   3.017   2.067   2.801 -0.3641  0.6599  0.1182
 4668SOL    HW116542   2.951   1.997   2.807 -0.8197  0.8827 -1.8910
 4668SOL    HW216543   3.040   2.085   2.892 -0.4248 -1.9234  0.7022
 4669SOL     OW16544   7.718   6.812   6.493 -0.0490 -0.1781 -0.0784
 4669SOL    HW116545   7.696   6.783   6.405 -0.8313 -1.5483  0.5348
 4669SOL    HW216546   7.668   6.892   6.506  0.6563  0.4511 -1.1318
 4670SOL     OW16547   6.857   2.526   6.592 -0.5161 -0.3404 -0.4830
 4670SOL    HW116548   6.851   2.606   6.540 -0.1410  0.2804  0.4050
 4670SOL    HW216549   6.939   2.534   6.640 -0.4155 -1.3212 -0.4828
 4671SOL     OW16550   0.013   2.261   8.720 -0.3325  0.4047 -0.6499
 4671SOL    HW116551   0.078   2.331   8.727  1.8098 -1.6153  0.3736
 4671SOL    HW216552  -0.053   2.282   8.785 -0.2865  2.0503 -1.1182
 4672SOL     OW16553   5.823   4.300   3.143 -0.9698 -0.3204 -0.1906
 4672SOL    HW116554   5.828   4.236   3.072 -1.9500  0.0674 -0.6144
 4672SOL    HW216555   5.853   4.382   3.103 -0.1131 -0.4189  0.2406
 4673SOL     OW16556   7.523   1.430   3.619  0.2483 -0.4637 -0.1114
 4673SOL    HW116557   7.617   1.434   3.637  0.3234 -1.7933 -0.1164
 4673SOL    HW216558   7.515   1.364   3.549 -0.5421  0.7936 -1.2211
 4674SOL     OW16559   9.942   0.059   3.912 -0.0826 -0.0001 -0.1787
 4674SOL    HW116560   9.961   0.045   3.820 -2.5277 -0.4344 -0.6375
 4674SOL    HW216561   9.853   0.028   3.924  0.4855 -0.7582  2.5318
 4675SOL     OW16562   0.458   4.881   6.678  0.0045  0.6188  0.4622
 4675SOL    HW116563   0.476   4.790   6.657 -1.9067  0.6489 -1.4649
 4675SOL    HW216564   0.363   4.885   6.688 -0.2100  2.7929 -1.7892
 4676SOL     OW16565   0.124   3.776   9.892  0.1767  0.7375  0.0667
 4676SOL    HW116566   0.121   3.711   9.962 -1.1313  1.5717  0.8062
 4676SOL    HW216567   0.183   3.738   9.827  1.4630 -0.0283  1.6343
 4677SOL     OW16568   8.057   3.109   4.790  0.2320  0.4450  0.5796
 4677SOL    HW116569   8.039   3.047   4.861  0.6001 -0.7216 -0.3221
 4677SOL    HW216570   8.034   3.061   4.710 -1.7347  2.2922 -0.0283
 4678SOL     OW16571   9.683   8.064   5.890 -0.2501 -0.2844 -0.0272
 4678SOL    HW116572   9.610   8.024   5.842 -0.7649  0.8503 -0.2101
 4678SOL    HW216573   9.729   7.990   5.929  0.0497 -1.2301 -2.0930
 4679SOL     OW16574   1.539  10.078   1.620  0.6022  0.0491 -0.2426
 4679SOL    HW116575   1.552  10.123   1.703 -0.2355  0.8329 -0.5370
 4679SOL    HW216576   1.560  10.143   1.553 -2.6928  0.7382 -0.7138
 4680SOL     OW16577   9.749   3.783   9.309  0.7692 -0.4151  0.0145
 4680SOL    HW116578   9.670   3.729   9.302  1.0992 -0.8206 -0.6300
 4680SOL    HW216579   9.740   3.828   9.393 -0.6248  0.3140 -0.5159
 4681SOL     OW16580   3.369   6.337   4.939  0.0285  0.7337  0.2647
 4681SOL    HW116581   3.342   6.366   4.851  0.0390 -0.8539 -0.2867
 4681SOL    HW216582   3.341   6.246   4.943  0.8838  0.5210  1.5715
 4682SOL     OW16583   2.363   3.402   3.821 -0.1146 -0.1364 -0.0169
 4682SOL    HW116584   2.395   3.491   3.808  0.8505 -0.3884  0.5898
 4682SOL    HW216585   2.273   3.404   3.788 -0.9910  1.7217  2.3324
 4683SOL     OW16586   0.950   9.302   0.414  0.1624 -0.3746 -0.4714
 4683SOL    HW116587   1.027   9.289   0.357  0.4765  0.0352 -0.1392
 4683SOL    HW216588   0.975   9.373   0.472 -0.6971  0.1608 -0.7469
 4684SOL     OW16589   8.981   0.454   8.815  0.2496 -0.5282 -0.1172
 4684SOL    HW116590   8.888   0.433   8.826  0.4246 -0.9602  0.6168
 4684SOL    HW216591   9.022   0.417   8.893  0.5981  2.4606  1.1877
 4685SOL     OW16592   9.510   5.872   6.714 -0.3209  0.6480 -0.3263
 4685SOL    HW116593   9.585   5.853   6.657 -2.1541 -0.4166 -2.5116
 4685SOL    HW216594   9.507   5.968   6.719  0.2196  0.7410 -1.5773
 4686SOL     OW16595   9.916   0.412   1.263  0.0157 -0.6390 -0.0933
 4686SOL    HW116596   9.820   0.418   1.262  0.1005  2.0156  2.2391
 4686SOL    HW216597   9.935   0.343   1.326 -0.3514 -0.9430 -0.3149
 4687SOL     OW16598   8.292   2.167   8.037  0.1444  0.2396  0.2404
 4687SOL    HW116599   8.380   2.196   8.063 -0.2062  1.4353  0.1114
 4687SOL    HW216600   8.236   2.189   8.111 -0.3506  1.0793 -0.3664
 4688SOL     OW16601   0.911   3.696   2.264 -0.1120 -0.8720 -0.4303
 4688SOL    HW116602   0.877   3.785   2.258  1.0740 -0.4464 -1.1308
 4688SOL    HW216603   0.841   3.646   2.306 -0.3772  0.6115  0.9335
 4689SOL     OW16604   9.051   4.909   7.518  0.1842 -0.3298 -0.3723
 4689SOL    HW116605   9.011   4.981   7.567 -0.3237 -0.6497 -0.3127
 4689SOL    HW216606   9.051   4.938   7.427  0.2169 -0.1469 -0.3132
 4690SOL     OW16607   6.454   4.199   3.919 -0.6721 -0.0618 -0.2966
 4690SOL    HW116608   6.478   4.109   3.937 -1.3487 -0.3360 -0.7626
 4690SOL    HW216609   6.395   4.223   3.991  0.4371  0.3913  0.4704
 4691SOL     OW16610   4.661   1.620   5.367  0.0485 -0.0648 -0.3574
 4691SOL    HW116611   4.590   1.683   5.374  0.0106  0.0300 -1.4333
 4691SOL    HW216612   4.652   1.563   5.443 -0.4396  0.6975  0.1506
 4692SOL     OW16613   2.348   7.424   4.399 -0.2067 -0.5103  0.4597
 4692SOL    HW116614   2.296   7.503   4.408 -0.9186 -0.3914 -3.5691
 4692SOL    HW216615   2.432   7.446   4.439 -0.4939  2.1908 -0.2946
 4693SOL     OW16616   9.870   4.526   9.848  0.4863  0.1030  0.1719
 4693SOL    HW116617   9.937   4.577   9.895  1.8668  0.0166 -1.6478
 4693SOL    HW216618   9.788   4.551   9.890  1.4557  1.6487  1.2275
 4694SOL     OW16619   2.766   3.334   1.336  0.2063 -0.6525  0.2840
 4694SOL    HW116620   2.747   3.242   1.349  1.8565 -0.8728  1.3162
 4694SOL    HW216621   2.850   3.336   1.289  0.7282  0.3089  1.2139
 4695SOL     OW16622   2.355   6.411   6.846 -0.4050 -0.2563 -0.8182
 4695SOL    HW116623   2.429   6.400   6.905 -1.6350 -0.3406  0.7262
 4695SOL    HW216624   2.368   6.343   6.779  0.0589 -1.3167  0.3284
 4696SOL     OW16625   4.115   8.362   3.500 -0.1216 -0.2800  0.0368
 4696SOL    HW116626   4.192   8.329   3.547  0.5089  0.7816 -0.2324
 4696SOL    HW216627   4.100   8.448   3.538  0.4192  0.6052 -1.7384
 4697SOL     OW16628   9.234   3.519  10.061 -0.1185  0.4400  0.2782
 4697SOL    HW116629   9.275   3.449  10.010 -1.1632  0.7048 -0.9517
 4697SOL    HW216630   9.302   3.586  10.070 -0.1457  0.7143 -1.4248
 4698SOL     OW16631   3.520   8.191   0.449 -0.1806 -0.0760 -0.0280
 4698SOL    HW116632   3.545   8.102   0.424  0.4381  0.5256 -1.5926
 4698SOL    HW216633   3.592   8.222   0.505  1.4171  0.7520 -2.4895
 4699SOL     OW16634   3.219   1.408   7.563  0.6678  0.1923 -0.0402
 4699SOL    HW116635   3.144   1.455   7.600  0.9038 -0.0140  0.7229
 4699SOL    HW216636   3.253   1.466   7.494 -1.0073 -0.3150 -1.3127
 4700SOL     OW16637   4.561   2.784   7.174  0.4486  0.3329 -0.0448
 4700SOL    HW116638   4.498   2.711   7.172  0.1832  0.5694 -0.4823
 4700SOL    HW216639   4.623   2.760   7.243 -0.2697  0.2174  0.5680
 4701SOL     OW16640   2.909   9.783   3.706 -0.4647  0.1735 -0.4755
 4701SOL    HW116641   2.990   9.834   3.702  0.3861 -1.1503 -0.5708
 4701SOL    HW216642   2.881   9.775   3.614 -0.4159  0.1824 -0.4909
 4702SOL     OW16643   7.418   9.125   2.114 -0.4941  0.6734 -0.0276
 4702SOL    HW116644   7.463   9.098   2.193 -0.6597 -0.2042 -0.2331
 4702SOL    HW216645   7.336   9.075   2.114 -0.6179  0.8715 -0.6104
 4703SOL     OW16646   5.927   6.818   8.001  0.2240  0.1701 -0.9507
 4703SOL    HW116647   5.894   6.876   8.069  0.4087 -1.5371  0.6249
 4703SOL    HW216648   5.899   6.858   7.919 -1.4466  1.3591  0.1842
 4704SOL     OW16649   3.963   7.028   6.258  0.5135  0.1268  0.8818
 4704SOL    HW116650   3.938   6.935   6.256  1.2394 -0.0552  0.0069
 4704SOL    HW216651   4.025   7.037   6.185 -0.6069  1.5927  0.0910
 4705SOL     OW16652   2.119   3.303   5.955 -0.4180 -0.0089  0.2021
 4705SOL    HW116653   2.213   3.315   5.941 -0.1477 -1.8052  0.2562
 4705SOL    HW216654   2.083   3.294   5.866 -0.4578  0.1895  0.1987
 4706SOL     OW16655   2.064   3.958   6.911 -0.1496  0.6399  0.1056
 4706SOL    HW116656   2.066   3.990   7.001 -0.1198  1.2810 -0.1223
 4706SOL    HW216657   2.071   4.037   6.857  1.2723  0.1519 -0.4562
 4707SOL     OW16658   4.567   8.567   8.760  0.3579  0.1397 -0.4424
 4707SOL    HW116659   4.659   8.583   8.738  0.6712  1.7822  1.9591
 4707SOL    HW216660   4.547   8.631   8.828 -2.3787 -0.6746 -0.4482
 4708SOL     OW16661   0.009   7.917   4.760 -0.4562 -0.2458 -0.0027
 4708SOL    HW116662   0.009   7.884   4.850  0.1489  0.0504  0.1135
 4708SOL    HW216663   0.095   7.893   4.726 -0.5098  0.0513 -0.3507
 4709SOL     OW16664   8.304   8.271   0.178 -0.1325  0.2943 -0.0848
 4709SOL    HW116665   8.308   8.228   0.264  1.0648  0.4485 -0.0618
 4709SOL    HW216666   8.277   8.201   0.118 -3.6921  0.7810  0.8009
 4710SOL     OW16667   3.849   9.657   9.620 -0.1723  0.3018 -0.1656
 4710SOL    HW116668   3.846   9.703   9.705 -1.4892 -0.1966  0.0573
 4710SOL    HW216669   3.890   9.721   9.561 -1.7648  1.6913  0.1985
 4711SOL     OW16670   1.677   1.053   6.096  0.2516  0.0073  0.5289
 4711SOL    HW116671   1.593   1.087   6.068 -0.1368  1.0757  2.8910
 4711SOL    HW216672   1.733   1.130   6.105  1.4817 -0.6800 -0.9279
 4712SOL     OW16673   1.292   4.083   0.120 -0.1615 -0.5463  0.2997
 4712SOL    HW116674   1.251   4.128   0.046  1.2981  0.5938  0.1716
 4712SOL    HW216675   1.326   4.001   0.083  1.5702  0.5361 -0.5686
 4713SOL     OW16676   6.649   8.832   0.694  0.1806  0.0517 -0.3299
 4713SOL    HW116677   6.696   8.763   0.740  1.8968 -0.8455 -3.2959
 4713SOL    HW216678   6.580   8.786   0.646  1.0985  0.4201 -2.0245
 4714SOL     OW16679   0.273   4.122   8.364  0.3767  0.2007  0.0114
 4714SOL    HW116680   0.337   4.074   8.416  2.1052  1.3194 -1.0372
 4714SOL    HW216681   0.318   4.143   8.283 -1.7161  0.0078 -1.2497
 4715SOL     OW16682   4.116   4.141   2.239 -0.3660  0.4635  0.0770
 4715SOL    HW116683   4.201   4.178   2.215 -0.0658 -0.5925 -0.5222
 4715SOL    HW216684   4.081   4.202   2.304  0.7256  1.0501  0.1298
 4716SOL     OW16685   7.532   5.011   3.720 -0.4329  0.1225 -0.1060
 4716SOL    HW116686   7.453   5.064   3.708  0.2216  1.5326  1.4552
 4716SOL    HW216687   7.547   4.970   3.635 -2.5170  0.2733 -0.5801
 4717SOL     OW16688   0.274   4.551   0.448 -0.0154  0.2060  0.3225
 4717SOL    HW116689   0.361   4.540   0.410  0.1119  0.4141  0.5474
 4717SOL    HW216690   0.288   4.543   0.543 -0.5113 -1.4815  0.2708
 4718SOL     OW16691   6.563   2.949   6.678 -0.1859 -0.2489 -0.1440
 4718SOL    HW116692   6.518   2.941   6.593  0.2895  0.7630 -0.4909
 4718SOL    HW216693   6.620   2.872   6.681 -0.4985 -0.5037 -0.5692
 4719SOL     OW16694   0.493   8.032   3.879  0.5330 -0.1674 -0.1411
 4719SOL    HW116695   0.461   8.115   3.844  1.0139  0.7846  1.6202
 4719SOL    HW216696   0.504   7.976   3.802  0.4685  1.4761 -1.3721
 4720SOL     OW16697   9.006   6.695   4.052  0.2695 -0.0974  0.3419
 4720SOL    HW116698   9.011   6.749   3.974  0.0908  0.3537  0.6414
 4720SOL    HW216699   8.925   6.723   4.096  0.2176 -0.5445  0.5403
 4721SOL     OW16700   3.690   5.402   0.343 -0.0401 -0.2797  0.0171
 4721SOL    HW116701   3.717   5.316   0.313  0.2822 -0.8718  1.9494
 4721SOL    HW216702   3.604   5.416   0.302  0.3882 -1.0514 -1.1502
 4722SOL     OW16703  10.187   0.891   0.994 -0.8119  0.5048 -0.2154
 4722SOL    HW116704  10.275   0.874   0.958 -0.2101  0.0372  1.4495
 4722SOL    HW216705  10.193   0.980   1.029 -0.8372  0.2529  0.4212
 4723SOL     OW16706   9.685   2.982   4.231 -0.3475 -0.4003 -0.6821
 4723SOL    HW116707   9.750   2.915   4.211  0.5569 -0.1889  1.5091
 4723SOL    HW216708   9.730   3.065   4.214 -0.0887 -0.2603  0.6359
 4724SOL     OW16709   1.341   7.712   7.502  0.4893 -0.3059 -0.0524
 4724SOL    HW116710   1.367   7.733   7.591  2.2902 -1.4232 -0.3047
 4724SOL    HW216711   1.273   7.646   7.512 -1.2659  1.5353  0.5545
 4725SOL     OW16712   1.196  10.050   6.393 -0.1862  0.2422 -0.5742
 4725SOL    HW116713   1.232  10.130   6.430 -1.5408  0.2550  0.7600
 4725SOL    HW216714   1.202  10.062   6.298  0.9873  1.2852 -0.3733
 4726SOL     OW16715   3.528   3.846   0.193  0.4292  0.4701 -0.8033
 4726SOL    HW116716   3.471   3.913   0.154  1.7234  0.4445 -2.7874
 4726SOL    HW216717   3.587   3.896   0.250  0.8715  0.9384 -1.6638
 4727SOL     OW16718   0.428   7.348   8.458  0.9118  0.2088 -0.5060
 4727SOL    HW116719   0.419   7.329   8.552  1.0665 -2.3177 -0.9556
 4727SOL    HW216720   0.358   7.297   8.417  0.1469  2.1772 -1.6867
 4728SOL     OW16721   6.115   8.434   1.597  0.5241  0.4618 -0.1619
 4728SOL    HW116722   6.082   8.350   1.564 -1.2977  0.9479  0.3891
 4728SOL    HW216723   6.113   8.492   1.520  0.8653  0.2765 -0.3141
 4729SOL     OW16724   2.434   1.780   7.887 -0.5352  0.0862 -0.3950
 4729SOL    HW116725   2.428   1.791   7.792  1.1969  0.3930 -0.4743
 4729SOL    HW216726   2.474   1.860   7.919 -1.0475 -0.0422  0.6019
 4730SOL     OW16727   4.902   1.437   2.506 -0.6057  0.2059 -0.2421
 4730SOL    HW116728   4.911   1.495   2.430 -1.9870 -0.0165 -0.5929
 4730SOL    HW216729   4.897   1.349   2.469  0.5402 -0.0646  0.2306
 4731SOL     OW16730   0.377   0.280   2.927  0.0747  0.2446  0.0245
 4731SOL    HW116731   0.444   0.315   2.869  0.3389  1.5972  1.1210
 4731SOL    HW216732   0.326   0.356   2.955 -1.7884 -0.7321 -0.6100
 4732SOL     OW16733   7.493   0.678   5.362 -0.1480  0.3500  0.0441
 4732SOL    HW116734   7.527   0.757   5.319 -0.2817 -0.7637 -2.1696
 4732SOL    HW216735   7.398   0.685   5.353 -0.2084  0.3926  0.6873
 4733SOL     OW16736   2.313   7.332   8.888  0.0679  0.0803 -0.4407
 4733SOL    HW116737   2.245   7.341   8.821 -1.6221  0.4182  1.2854
 4733SOL    HW216738   2.369   7.262   8.855 -2.0062 -1.2993 -1.1656
 4734SOL     OW16739   6.363   7.919   4.282 -0.3326 -0.4913  0.1385
 4734SOL    HW116740   6.296   7.853   4.270 -0.8959 -0.1642  1.3841
 4734SOL    HW216741   6.350   7.980   4.209 -1.5784 -0.2682  0.5457
 4735SOL     OW16742   5.240   6.801   5.676 -0.1810  0.1714 -0.1313
 4735SOL    HW116743   5.233   6.881   5.624  1.4724 -0.0227 -0.6864
 4735SOL    HW216744   5.242   6.730   5.612 -2.2937 -0.3798  0.3883
 4736SOL     OW16745   6.469   2.250   4.052  0.0162  0.1919 -0.1483
 4736SOL    HW116746   6.500   2.332   4.091 -1.0921  0.2406  0.6340
 4736SOL    HW216747   6.417   2.278   3.977  1.7349  0.1119 -1.4059
 4737SOL     OW16748   8.172   9.974   9.941 -0.4188  0.4139  0.5323
 4737SOL    HW116749   8.255   9.951   9.982  0.1734 -1.0065 -1.3699
 4737SOL    HW216750   8.120   9.893   9.944 -0.3331  0.2602 -1.5234
 4738SOL     OW16751   3.430   0.020   0.563  0.3198  0.3367 -0.1203
 4738SOL    HW116752   3.355   0.005   0.621  0.2094  0.6677 -0.1744
 4738SOL    HW216753   3.506  -0.011   0.613  0.6186  3.3559  1.4544
 4739SOL     OW16754   7.182   6.712   5.306  0.0753 -0.5084  0.2590
 4739SOL    HW116755   7.137   6.636   5.343  1.6508 -0.7098  1.8576
 4739SOL    HW216756   7.262   6.675   5.268 -0.0565  0.1215 -0.6519
 4740SOL     OW16757   7.850   3.836   4.918  0.1301  0.1202  0.1096
 4740SOL    HW116758   7.913   3.774   4.956 -0.7426 -0.4492  0.6397
 4740SOL    HW216759   7.780   3.781   4.883  0.2816  0.7080 -1.1705
 4741SOL     OW16760   4.390   5.806   3.115 -0.6897  0.0373  0.6490
 4741SOL    HW116761   4.382   5.753   3.036 -0.2052  1.0902 -0.1220
 4741SOL    HW216762   4.300   5.816   3.146 -0.8121 -0.9816  0.6429
 4742SOL     OW16763   6.544   8.030   6.598  0.1953 -0.1397  0.2970
 4742SOL    HW116764   6.458   8.011   6.635  0.7508 -0.1326  1.6536
 4742SOL    HW216765   6.550   8.125   6.601  1.0149 -0.2120  2.0990
 4743SOL     OW16766   4.371   9.267  10.186 -0.1094  0.1353 -0.0691
 4743SOL    HW116767   4.357   9.283  10.092 -0.9163 -2.1915 -0.3851
 4743SOL    HW216768   4.457   9.306  10.204  1.1230 -1.3640 -2.3247
 4744SOL     OW16769   6.983   3.309   4.896 -0.4008  0.6078 -0.1385
 4744SOL    HW116770   7.007   3.220   4.869 -1.8492  0.1076  0.1689
 4744SOL    HW216771   6.984   3.360   4.815 -2.8759 -0.4622 -0.9072
 4745SOL     OW16772   3.975   6.556   5.271 -0.1367  0.5624  0.3713
 4745SOL    HW116773   4.010   6.579   5.357  1.4391  1.5270 -0.5170
 4745SOL    HW216774   4.043   6.581   5.209 -2.1521  2.0296 -1.3649
 4746SOL     OW16775   3.573   9.761   7.805 -0.5987 -0.0696  0.1381
 4746SOL    HW116776   3.662   9.758   7.769 -1.3835  1.2027 -2.0445
 4746SOL    HW216777   3.557   9.673   7.837  1.0027 -0.6588 -0.6337
 4747SOL     OW16778   2.508   5.041   7.714  0.0362 -0.3817 -0.0441
 4747SOL    HW116779   2.489   5.134   7.729  1.2129 -0.2559  0.7433
 4747SOL    HW216780   2.501   5.030   7.619  0.9920  0.7660 -0.2626
 4748SOL     OW16781   1.221   2.941   1.031 -0.1982  0.0949  0.4146
 4748SOL    HW116782   1.271   2.986   0.964  0.5103  0.4477  1.1683
 4748SOL    HW216783   1.209   2.852   0.997 -1.9282  0.9357 -1.2511
 4749SOL     OW16784   3.017   6.391   9.684 -0.4457 -0.4507  0.1054
 4749SOL    HW116785   3.086   6.426   9.740  0.1352 -2.1577  0.4918
 4749SOL    HW216786   2.936   6.428   9.720  0.3217  2.4982 -1.0801
 4750SOL     OW16787   1.928   5.114   6.044 -0.6879 -0.1232 -0.2171
 4750SOL    HW116788   1.985   5.068   6.105 -0.6500 -0.1914 -0.3045
 4750SOL    HW216789   1.878   5.175   6.099  1.7292  2.2299 -0.5438
 4751SOL     OW16790  10.069   1.948   4.077  0.2683  0.1613  0.1495
 4751SOL    HW116791  10.141   1.943   4.014 -0.4222  1.0188 -0.7265
 4751SOL    HW216792  10.000   1.996   4.031 -0.4139  0.4153  1.4099
 4752SOL     OW16793   2.575   5.521   6.267 -0.2141  0.0722 -0.6283
 4752SOL    HW116794   2.623   5.562   6.338  2.8926  0.4882 -2.8399
 4752SOL    HW216795   2.543   5.595   6.214 -4.7542 -0.1226  1.5695
 4753SOL     OW16796   6.920   3.845  10.035  0.3114  0.3791  0.0076
 4753SOL    HW116797   6.959   3.904   9.971 -0.2299 -0.5451 -1.1840
 4753SOL    HW216798   6.917   3.896  10.116  2.5321  0.9944 -0.2703
 4754SOL     OW16799   7.241   6.347  10.181 -0.0965  0.2123  0.0582
 4754SOL    HW116800   7.290   6.269  10.155 -1.7741 -0.5935 -0.7549
 4754SOL    HW216801   7.204   6.325  10.266 -2.4926 -0.7939 -1.2085
 4755SOL     OW16802   3.899   7.294   4.893  0.4057 -0.4271  0.0255
 4755SOL    HW116803   3.926   7.248   4.973  1.2069 -0.4754 -0.2623
 4755SOL    HW216804   3.895   7.225   4.826  1.6579 -0.0830 -0.4197
 4756SOL     OW16805   2.586   9.626   3.933 -0.0449  0.0531  0.6476
 4756SOL    HW116806   2.517   9.574   3.974 -0.6779  1.2530  1.1403
 4756SOL    HW216807   2.654   9.563   3.910 -1.7248 -1.2990 -0.7536
 4757SOL     OW16808   2.582   7.144   2.021  0.6284 -0.2150 -0.3125
 4757SOL    HW116809   2.537   7.084   1.961  0.3259 -0.2709 -0.0322
 4757SOL    HW216810   2.530   7.225   2.017  0.3842 -0.3485  0.1692
 4758SOL     OW16811   6.789   2.371   3.387 -0.9817  0.3275  0.1258
 4758SOL    HW116812   6.810   2.454   3.344 -0.9925 -0.4750 -1.4756
 4758SOL    HW216813   6.703   2.385   3.426 -0.4853  1.4253  0.8497
 4759SOL     OW16814   1.359   7.494   1.438 -0.2747 -0.3251  0.1924
 4759SOL    HW116815   1.329   7.584   1.422  0.3860 -0.0377  0.5722
 4759SOL    HW216816   1.278   7.444   1.449 -0.6546  0.1475 -0.4206
 4760SOL     OW16817   0.917   0.507   1.338 -0.2396 -0.2169  0.2785
 4760SOL    HW116818   0.866   0.524   1.417 -1.2579 -2.1811  0.0911
 4760SOL    HW216819   0.917   0.412   1.330 -0.8283 -0.0361 -2.5067
 4761SOL     OW16820   7.109   1.041   5.948  0.5194  0.4707 -0.6338
 4761SOL    HW116821   7.137   0.955   5.918 -1.3982 -0.5463  0.4360
 4761SOL    HW216822   7.143   1.048   6.038  0.2647  0.6518 -0.5523
 4762SOL     OW16823   1.421   0.535   3.397  0.1491 -0.1934 -0.2392
 4762SOL    HW116824   1.384   0.620   3.421  1.1329 -0.1294  1.1037
 4762SOL    HW216825   1.440   0.493   3.481 -0.1404 -1.6656 -0.8979
 4763SOL     OW16826   1.137   3.991   6.591 -0.5583  0.3725  0.3133
 4763SOL    HW116827   1.214   3.973   6.645 -1.3930  0.0820  1.4382
 4763SOL    HW216828   1.160   3.957   6.504 -0.2566 -1.7856  1.1892
 4764SOL     OW16829   4.109   1.362   9.617  0.5509  0.0119 -0.2872
 4764SOL    HW116830   4.202   1.379   9.605  0.5356  1.4333  1.3745
 4764SOL    HW216831   4.102   1.329   9.707 -0.8424  2.4701  0.5372
 4765SOL     OW16832   5.571   7.333   9.168  0.1363  0.5021 -0.1046
 4765SOL    HW116833   5.494   7.357   9.218 -0.5144  0.3049 -0.9970
 4765SOL    HW216834   5.626   7.284   9.229  0.3571  2.1239  1.0280
 4766SOL     OW16835   5.531   9.120   0.969  0.2052 -0.2809  0.4142
 4766SOL    HW116836   5.468   9.141   0.900  0.2388  2.1855  1.0740
 4766SOL    HW216837   5.609   9.089   0.923 -1.1290 -2.4293 -0.4539
 4767SOL     OW16838   2.960  10.132   0.005  0.0879  0.1294 -0.0263
 4767SOL    HW116839   2.962  10.227  -0.006 -0.3878 -0.0136 -1.3093
 4767SOL    HW216840   3.047  10.103  -0.024 -0.3533  0.0002 -1.2401
 4768SOL     OW16841   3.779   4.037   8.032  0.1460 -0.0704  0.1363
 4768SOL    HW116842   3.735   4.083   7.960  1.5420 -0.2995 -0.9057
 4768SOL    HW216843   3.721   4.047   8.107 -0.8097  1.1461 -0.7479
 4769SOL     OW16844   3.240   3.644   7.943  0.3103  0.2996  0.1407
 4769SOL    HW116845   3.328   3.628   7.908 -0.3436 -1.5649 -0.7186
 4769SOL    HW216846   3.191   3.681   7.869 -0.2009 -0.6663 -0.0155
 4770SOL     OW16847   6.457   5.877   5.609 -0.3354 -1.1240  0.3410
 4770SOL    HW116848   6.495   5.794   5.640  2.1009 -0.4230 -0.6551
 4770SOL    HW216849   6.503   5.944   5.658  0.5978 -0.1951 -1.7582
 4771SOL     OW16850   6.825   2.762   0.897 -0.7855  0.1199  0.0231
 4771SOL    HW116851   6.744   2.750   0.946 -1.6437  3.0286 -0.5799
 4771SOL    HW216852   6.804   2.736   0.808 -1.3245  1.5983 -0.3015
 4772SOL     OW16853   8.486   5.852   1.354  0.0352  0.2413 -0.3476
 4772SOL    HW116854   8.394   5.877   1.365 -0.4236 -1.0234 -1.1762
 4772SOL    HW216855   8.523   5.859   1.442 -0.5701  1.8189 -0.1983
 4773SOL     OW16856   9.949   5.527   9.511  0.4395 -0.7430 -0.2411
 4773SOL    HW116857   9.912   5.595   9.568  1.5155  1.1260 -1.7395
 4773SOL    HW216858   9.879   5.462   9.504 -1.0980  0.8147  0.1801
 4774SOL     OW16859   8.123   0.039   2.906 -0.0936  0.1515 -0.1606
 4774SOL    HW116860   8.165   0.046   2.992  0.1565 -0.0712 -0.2643
 4774SOL    HW216861   8.051   0.103   2.909  0.6678  1.0138 -0.2299
 4775SOL     OW16862   0.936   8.497   0.822 -1.0273  0.0923 -0.2759
 4775SOL    HW116863   0.994   8.572   0.834 -0.5009 -0.1757 -1.0646
 4775SOL    HW216864   0.946   8.445   0.902 -0.7255  0.4162 -0.1049
 4776SOL     OW16865   1.878   0.587   0.375 -0.3684 -0.0306  0.2457
 4776SOL    HW116866   1.936   0.570   0.450 -1.1670 -0.2146  0.8295
 4776SOL    HW216867   1.817   0.654   0.406 -1.0997 -0.5607 -0.0236
 4777SOL     OW16868   7.674   0.726   7.111 -0.0427  0.2350 -0.5269
 4777SOL    HW116869   7.605   0.782   7.076 -1.0220 -0.4355  0.2902
 4777SOL    HW216870   7.700   0.670   7.038 -0.8206  0.0588 -0.6710
 4778SOL     OW16871   6.893   8.088   6.603  0.3467  0.3124  0.0950
 4778SOL    HW116872   6.962   8.148   6.572  0.1900  0.0646 -0.7377
 4778SOL    HW216873   6.843   8.067   6.524 -0.7205  0.5359  0.7148
 4779SOL     OW16874   4.172   9.874   2.663 -0.6098 -0.1518  0.1585
 4779SOL    HW116875   4.230   9.853   2.736 -1.3875  0.1665  0.8862
 4779SOL    HW216876   4.097   9.816   2.674 -1.9399  1.7003  1.1556
 4780SOL     OW16877   9.654   2.811   2.428  0.5697  0.1295 -0.1372
 4780SOL    HW116878   9.655   2.739   2.491  1.3765 -0.3810 -0.7244
 4780SOL    HW216879   9.737   2.856   2.441  0.9870 -0.3084 -1.2002
 4781SOL     OW16880   8.250   6.350   1.056  0.2366 -0.0521  0.0936
 4781SOL    HW116881   8.329   6.312   1.018  0.8876  0.3586  1.0032
 4781SOL    HW216882   8.178   6.303   1.016  0.9866 -1.1643  0.0461
 4782SOL     OW16883   8.057   4.834   7.740  0.0319  0.3957  0.4128
 4782SOL    HW116884   8.039   4.845   7.646 -0.4325 -0.1781  0.4284
 4782SOL    HW216885   8.117   4.760   7.744  1.0445  1.2143  0.4875
 4783SOL     OW16886   1.385   2.500   5.807 -0.0291 -0.3734  0.2099
 4783SOL    HW116887   1.466   2.506   5.857  0.3420 -2.4416 -0.1210
 4783SOL    HW216888   1.413   2.483   5.717 -0.7750  0.8713 -0.2714
 4784SOL     OW16889   8.109   7.447   7.981 -0.6329  0.5295  0.5072
 4784SOL    HW116890   8.071   7.369   7.940 -0.7811  1.0478 -0.3654
 4784SOL    HW216891   8.041   7.513   7.975  0.2818  1.3750 -0.7862
 4785SOL     OW16892   4.991   4.422   5.279  0.2304  0.2718 -0.2814
 4785SOL    HW116893   5.050   4.425   5.203  0.9150  0.1763  0.2458
 4785SOL    HW216894   4.982   4.513   5.305 -0.1702  0.3255 -0.6019
 4786SOL     OW16895   4.162   4.975   1.448 -0.2771  0.2768  0.5071
 4786SOL    HW116896   4.120   5.058   1.474  0.5164  1.2887 -1.3594
 4786SOL    HW216897   4.212   4.949   1.525  0.5353  2.2404  0.6832
 4787SOL     OW16898   2.110   5.530   4.444 -0.0616  0.1016  0.3046
 4787SOL    HW116899   2.080   5.595   4.508 -0.0103  0.0611  0.3692
 4787SOL    HW216900   2.201   5.512   4.469 -0.0148  0.1521  0.1661
 4788SOL     OW16901   9.438   4.064   3.272  0.8571  0.0652  0.1888
 4788SOL    HW116902   9.447   4.065   3.367 -1.1127 -2.3403  0.4500
 4788SOL    HW216903   9.352   4.025   3.257  0.4725  1.8909 -2.5467
 4789SOL     OW16904   0.225   8.799   9.044 -0.6372  0.1693  0.3592
 4789SOL    HW116905   0.277   8.828   9.119  0.1139  0.4120 -0.2496
 4789SOL    HW216906   0.134   8.808   9.073 -0.3437  0.0169  1.3254
 4790SOL     OW16907   7.862   2.587   1.489 -0.4148 -0.4758  0.3835
 4790SOL    HW116908   7.852   2.674   1.449 -0.4624 -0.2160  0.9515
 4790SOL    HW216909   7.955   2.582   1.512 -0.8103  0.2845  2.2698
 4791SOL     OW16910   3.675   3.919   6.778  0.7161 -0.4144 -0.6378
 4791SOL    HW116911   3.620   3.857   6.826 -1.5008  2.0065  0.0197
 4791SOL    HW216912   3.732   3.958   6.844 -0.2120  0.6844 -0.4829
 4792SOL     OW16913   2.303   4.636  10.168 -0.1327 -0.2875 -0.2347
 4792SOL    HW116914   2.272   4.546  10.160  0.3182 -0.4552 -0.0924
 4792SOL    HW216915   2.237   4.679  10.222  0.0914 -0.7438  0.4044
 4793SOL     OW16916   0.475   5.386   5.750 -0.6850 -0.3949  0.2071
 4793SOL    HW116917   0.412   5.425   5.689  0.1839  0.8380  0.0637
 4793SOL    HW216918   0.448   5.295   5.758 -3.1866  0.3553  1.0288
 4794SOL     OW16919   3.229   6.049   5.329 -0.4733 -0.6340 -0.3897
 4794SOL    HW116920   3.302   6.018   5.275  0.0603 -1.2384  0.6517
 4794SOL    HW216921   3.226   6.143   5.314 -0.1201 -0.7515 -1.2161
 4795SOL     OW16922   8.659   0.489   8.606 -0.0472  0.1533  0.1292
 4795SOL    HW116923   8.651   0.408   8.657 -1.1657  0.5938  0.6544
 4795SOL    HW216924   8.625   0.465   8.520 -3.7312  0.9883  1.2765
 4796SOL     OW16925   3.203   7.622   1.597 -0.1982 -0.2496  0.5637
 4796SOL    HW116926   3.258   7.691   1.634  2.6991 -1.5164 -1.1714
 4796SOL    HW216927   3.135   7.669   1.548  1.9288  1.4129 -0.8773
 4797SOL     OW16928   4.946   5.492   1.361 -0.5925  0.3224  0.1462
 4797SOL    HW116929   5.030   5.467   1.322  0.0691  2.8777 -0.1150
 4797SOL    HW216930   4.881   5.463   1.297 -0.0596 -2.8614  0.9358
 4798SOL     OW16931   3.734   4.520   6.056 -0.0020 -0.2116 -0.1171
 4798SOL    HW116932   3.671   4.499   6.125  0.2433 -0.2738  0.0866
 4798SOL    HW216933   3.810   4.554   6.102 -0.6312  1.7461 -0.4621
 4799SOL     OW16934   2.014   0.326   1.853 -0.5517 -0.4303  0.3534
 4799SOL    HW116935   2.094   0.378   1.856 -0.6703 -0.2842  0.8831
 4799SOL    HW216936   1.998   0.301   1.943 -1.8368  0.6576  0.4361
 4800SOL     OW16937   3.634   1.631   2.031  0.0837 -0.4186 -0.4356
 4800SOL    HW116938   3.544   1.605   2.047  0.2894 -0.0109  1.4727
 4800SOL    HW216939   3.677   1.627   2.117  1.7685 -0.1938 -1.2324
 4801SOL     OW16940   0.617   0.932   1.115 -0.3071 -0.4058  0.0944
 4801SOL    HW116941   0.570   0.990   1.174  0.9363  0.8542 -0.1190
 4801SOL    HW216942   0.624   0.849   1.163  1.8772  1.0095  2.3149
 4802SOL     OW16943   0.580   5.386   9.422  0.5701  0.5131  0.0224
 4802SOL    HW116944   0.518   5.331   9.468  0.3008  0.8934  0.1120
 4802SOL    HW216945   0.528   5.431   9.355  0.9844 -0.1631 -0.7639
 4803SOL     OW16946  10.137   9.969   9.489  0.2436 -0.3104 -0.2043
 4803SOL    HW116947  10.060  10.025   9.485  2.2871  2.8778  2.1642
 4803SOL    HW216948  10.109   9.891   9.537 -1.7579  0.2777 -0.3963
 4804SOL     OW16949  10.183   6.427   1.874 -0.8660 -0.1249 -0.0362
 4804SOL    HW116950  10.249   6.409   1.942 -1.5297 -0.2634  0.5733
 4804SOL    HW216951  10.196   6.519   1.851  0.6170 -0.5782 -1.0798
 4805SOL     OW16952  10.120   4.568   1.751  0.2801  0.3710 -0.0735
 4805SOL    HW116953  10.033   4.546   1.719  0.3797 -0.3378  0.1242
 4805SOL    HW216954  10.177   4.560   1.674  0.2313  0.4577 -0.1179
 4806SOL     OW16955   2.394   2.205   4.783  0.0440  0.0201  0.6801
 4806SOL    HW116956   2.457   2.163   4.841  0.4707  1.2902  1.1506
 4806SOL    HW216957   2.310   2.196   4.828  0.2869  0.5247  1.2317
 4807SOL     OW16958   7.608   4.498   7.881 -0.0631 -0.3793 -0.1995
 4807SOL    HW116959   7.531   4.506   7.824 -0.3742 -0.8128  0.1604
 4807SOL    HW216960   7.596   4.415   7.927 -0.2676  0.3755  1.1618
 4808SOL     OW16961   9.026   2.102   6.015  0.4772 -0.5022 -0.1850
 4808SOL    HW116962   9.088   2.109   6.088  0.3573 -0.6431 -0.0715
 4808SOL    HW216963   8.950   2.154   6.043  1.2178  1.0568 -1.0171
 4809SOL     OW16964  10.191   1.447   5.817 -0.0557 -0.0352 -0.3303
 4809SOL    HW116965  10.154   1.501   5.887 -0.7955 -0.7412 -0.1611
 4809SOL    HW216966  10.128   1.375   5.807 -0.5098  0.6457 -2.4877
 4810SOL     OW16967   3.911   4.611   0.664  0.3119  0.1200  0.0391
 4810SOL    HW116968   4.001   4.641   0.672  0.2928 -0.1789  1.4759
 4810SOL    HW216969   3.910   4.525   0.706 -0.7472  0.3316  0.4551
 4811SOL     OW16970   6.181   5.252   6.599 -0.3986  0.4506 -0.7359
 4811SOL    HW116971   6.190   5.342   6.630 -0.9731  0.5850 -0.9519
 4811SOL    HW216972   6.129   5.209   6.666  1.6516 -0.2765  0.4143
 4812SOL     OW16973   4.742   3.683   2.849 -0.4828  0.3920 -0.0243
 4812SOL    HW116974   4.832   3.705   2.824 -0.4545  0.1898 -0.1034
 4812SOL    HW216975   4.688   3.738   2.792 -0.4080  0.5809  0.0884
 4813SOL     OW16976   1.411   3.929   5.741  0.3255  0.1450 -0.0846
 4813SOL    HW116977   1.473   4.001   5.743  0.9468 -0.3707 -0.5223
 4813SOL    HW216978   1.350   3.951   5.671  0.1849  0.5081  0.1503
 4814SOL     OW16979   1.530   0.008   8.934 -0.0623 -0.3405  0.4031
 4814SOL    HW116980   1.600  -0.056   8.925  0.5709 -0.0382  2.8338
 4814SOL    HW216981   1.523   0.048   8.847  3.5893  0.4208  0.3599
 4815SOL     OW16982   6.713   8.099   8.427 -0.0893  0.1538  0.7203
 4815SOL    HW116983   6.755   8.139   8.351  1.4563  0.5628  1.7605
 4815SOL    HW216984   6.675   8.174   8.475  1.1263  0.1775  1.6586
 4816SOL     OW16985   1.745   8.963   2.418 -0.2671 -0.0282 -0.1547
 4816SOL    HW116986   1.727   9.048   2.457 -2.4675  0.5526 -2.3135
 4816SOL    HW216987   1.659   8.927   2.398  0.6312 -2.7269  0.6361
 4817SOL     OW16988   9.369   3.225   5.354 -0.0953 -0.6899  0.0269
 4817SOL    HW116989   9.303   3.160   5.332  2.2770 -3.3079  0.4484
 4817SOL    HW216990   9.414   3.243   5.271  1.2434 -1.8964  0.4737
 4818SOL     OW16991   2.477   7.062   9.026 -0.1933 -0.2208  0.2253
 4818SOL    HW116992   2.515   7.143   8.992  0.1843 -0.4792  0.0199
 4818SOL    HW216993   2.529   6.992   8.985 -0.0934 -0.5511  0.9027
 4819SOL     OW16994   3.315   4.077   6.886  0.0952  0.1772  1.0543
 4819SOL    HW116995   3.305   4.167   6.857 -0.2618 -0.1380  0.2076
 4819SOL    HW216996   3.405   4.073   6.918  0.0403  0.8922  1.3086
 4820SOL     OW16997   1.622   4.718   4.350  0.0875  0.0358  0.3003
 4820SOL    HW116998   1.637   4.813   4.346  0.3753 -0.0285 -0.3007
 4820SOL    HW216999   1.582   4.697   4.265  1.2402 -0.5839 -0.1030
 4821SOL     OW17000   8.957   5.569   8.269  0.5545  0.0961 -0.2807
 4821SOL    HW117001   8.862   5.576   8.284  0.3600 -0.6698 -1.1280
 4821SOL    HW217002   8.980   5.483   8.306  0.8801  0.1774 -0.2962
 4822SOL     OW17003   1.790   5.836   9.528 -0.0268 -0.0319 -0.4622
 4822SOL    HW117004   1.734   5.894   9.476  1.1068  0.7581 -0.8031
 4822SOL    HW217005   1.870   5.827   9.477  0.6883 -0.0865  0.6565
 4823SOL     OW17006   3.693   9.955   4.152  0.1617  0.2070 -0.7705
 4823SOL    HW117007   3.627  10.022   4.134 -0.3532 -0.4994 -1.5011
 4823SOL    HW217008   3.691   9.945   4.247  0.0633  1.0474 -0.6818
 4824SOL     OW17009   6.955   7.882   9.505 -0.3750  0.1175 -0.0113
 4824SOL    HW117010   6.923   7.946   9.441 -1.4838 -1.2374 -0.8374
 4824SOL    HW217011   6.928   7.797   9.470  1.9394 -0.9113  0.5432
 4825SOL     OW17012   6.204   7.289   5.514 -0.0762 -0.0618 -0.6346
 4825SOL    HW117013   6.201   7.383   5.532  1.7704 -0.2811  0.9809
 4825SOL    HW217014   6.235   7.284   5.423  0.4221  0.8794 -0.5292
 4826SOL     OW17015   4.738   1.461   6.524  0.0119 -0.1584 -0.6139
 4826SOL    HW117016   4.714   1.432   6.436 -0.6855 -0.2023 -0.4135
 4826SOL    HW217017   4.672   1.526   6.546  0.1280 -0.2182 -0.0842
 4827SOL     OW17018   0.775   0.148   0.262 -0.6519 -0.0598 -0.1558
 4827SOL    HW117019   0.842   0.095   0.218 -0.9884 -0.8504  0.2726
 4827SOL    HW217020   0.816   0.233   0.275  0.2368 -0.5115  0.0140
 4828SOL     OW17021   9.938  10.202   8.726 -0.0437 -0.1613  0.1304
 4828SOL    HW117022   9.908  10.124   8.773  1.2018 -0.5743  0.2620
 4828SOL    HW217023   9.948  10.269   8.794 -0.9037  0.0506  0.0487
 4829SOL     OW17024   9.540   8.701   3.133  0.2164 -0.4741  0.0379
 4829SOL    HW117025   9.631   8.687   3.161  0.2488  0.0919  0.2175
 4829SOL    HW217026   9.488   8.689   3.212  0.4153  2.4081  0.6543
 4830SOL     OW17027   9.125   5.730   8.595 -0.0213  0.5874 -0.3505
 4830SOL    HW117028   9.161   5.702   8.679  0.2748  0.1551 -0.6160
 4830SOL    HW217029   9.143   5.657   8.535 -0.2301  0.8874 -0.7865
 4831SOL     OW17030   2.539   4.692   5.887 -0.2502 -0.1692  0.3914
 4831SOL    HW117031   2.482   4.686   5.964 -1.0908 -1.8559 -0.3377
 4831SOL    HW217032   2.573   4.781   5.890 -1.6621  0.3572  1.7341
 4832SOL     OW17033   9.579   4.236   1.796 -0.2249 -0.1850  0.4442
 4832SOL    HW117034   9.565   4.159   1.852 -0.2816 -2.1096 -2.1395
 4832SOL    HW217035   9.651   4.210   1.738 -0.7330  1.4301 -0.9441
 4833SOL     OW17036   4.346   7.439   0.132  0.4906  0.3206 -0.3152
 4833SOL    HW117037   4.281   7.483   0.188  2.1250  0.5366  1.4627
 4833SOL    HW217038   4.308   7.353   0.115  0.0485  0.1717  1.3225
 4834SOL     OW17039   2.216   7.115   0.819  0.2486  0.1941  0.2374
 4834SOL    HW117040   2.232   7.209   0.816  1.1173  0.0911  1.2667
 4834SOL    HW217041   2.304   7.075   0.814 -0.1730 -0.5908 -1.2179
 4835SOL     OW17042   8.386  10.099   5.155  0.0590 -0.1656  0.3762
 4835SOL    HW117043   8.362  10.115   5.064  1.8523  5.0091  0.6390
 4835SOL    HW217044   8.308  10.123   5.204  0.3389  0.8034  0.3641
 4836SOL     OW17045   4.293   8.737   2.006  0.2915  0.7285  0.5549
 4836SOL    HW117046   4.325   8.649   2.026  0.7411  1.3958  2.9282
 4836SOL    HW217047   4.363   8.775   1.952 -0.7485 -0.9704 -2.0685
 4837SOL     OW17048   5.032   7.938   7.987  0.0063 -0.3340  0.6890
 4837SOL    HW117049   5.103   7.986   8.030  0.1139  0.2413 -0.1211
 4837SOL    HW217050   5.060   7.929   7.896 -1.0260  0.0494  0.3212
 4838SOL     OW17051   2.346   9.006   5.353 -0.0350  0.0168  0.3084
 4838SOL    HW117052   2.321   9.098   5.356 -0.5249 -0.1143  0.2927
 4838SOL    HW217053   2.436   9.006   5.321  0.0008  0.4967  0.4158
 4839SOL     OW17054   6.354   7.436   8.078  0.2046  0.4545 -0.1511
 4839SOL    HW117055   6.445   7.427   8.051  0.2753  0.7623 -0.0164
 4839SOL    HW217056   6.310   7.361   8.039  0.6861 -0.1639  0.4801
 4840SOL     OW17057   0.214   0.908   6.897  0.1865 -1.0524 -0.0150
 4840SOL    HW117058   0.249   0.921   6.808 -0.4681 -1.6506 -0.3645
 4840SOL    HW217059   0.156   0.833   6.889  1.2544 -2.0488  1.2466
 4841SOL     OW17060   7.882   5.641   3.561 -0.3929  0.0141 -0.1586
 4841SOL    HW117061   7.923   5.574   3.617 -1.0546  0.6994  1.1606
 4841SOL    HW217062   7.953   5.700   3.539 -0.1125 -0.2940 -0.0901
 4842SOL     OW17063   5.074   9.991   7.540  0.1723  0.0154  0.8065
 4842SOL    HW117064   5.114   9.910   7.571  2.4105  1.3510  1.4696
 4842SOL    HW217065   4.995   9.963   7.494  2.2701 -2.7599 -1.2737
 4843SOL     OW17066   2.541   6.267   9.309  0.4082 -0.9281  1.0367
 4843SOL    HW117067   2.478   6.338   9.305  1.1278 -0.2596  1.3352
 4843SOL    HW217068   2.527   6.217   9.229  0.8494  0.3819  0.1262
 4844SOL     OW17069   4.864   8.769   6.998  0.5537 -0.3957 -0.1860
 4844SOL    HW117070   4.951   8.749   7.032 -0.7499 -1.3037  2.8379
 4844SOL    HW217071   4.809   8.776   7.076 -2.2408 -0.6514 -2.0481
 4845SOL     OW17072   5.815   1.666   7.012 -0.0141 -0.1309 -0.3071
 4845SOL    HW117073   5.911   1.665   7.018  0.0613  1.6116 -0.7603
 4845SOL    HW217074   5.796   1.713   6.931 -1.2525  0.8982  0.5522
 4846SOL     OW17075   4.304   9.671   9.573 -0.4200  0.1654 -0.3341
 4846SOL    HW117076   4.270   9.722   9.646 -0.4974 -1.3061  0.6756
 4846SOL    HW217077   4.226   9.643   9.524 -0.4718 -0.4524  0.1061
 4847SOL     OW17078   4.425   2.657   5.870  0.3015 -0.0939  0.0996
 4847SOL    HW117079   4.335   2.678   5.897  0.3305  0.4973 -0.2511
 4847SOL    HW217080   4.418   2.632   5.778  0.4931 -0.0649  0.0763
 4848SOL     OW17081   4.643   6.335   0.504 -0.6372 -0.3493 -0.7111
 4848SOL    HW117082   4.566   6.332   0.447 -0.3981 -0.8468 -1.0071
 4848SOL    HW217083   4.709   6.379   0.451 -0.7258  0.1332 -0.4345
 4849SOL     OW17084   0.524  10.002   3.402  0.5242  0.0189  0.6222
 4849SOL    HW117085   0.607  10.041   3.376  0.0066 -0.1127 -1.2842
 4849SOL    HW217086   0.481  10.070   3.454  0.8976  0.8828 -0.1914
 4850SOL     OW17087   5.458   7.914   4.860 -0.8687  0.1136  0.4089
 4850SOL    HW117088   5.395   7.973   4.902 -0.0262  2.1372 -1.0905
 4850SOL    HW217089   5.415   7.885   4.780 -0.8673 -0.5033  0.6285
 4851SOL     OW17090   8.751   1.227   4.469  0.1904  0.0665  0.3940
 4851SOL    HW117091   8.731   1.263   4.383  1.9104  0.8579  0.3040
 4851SOL    HW217092   8.795   1.299   4.515  0.3912 -0.7543  1.4972
 4852SOL     OW17093   7.433   5.321   2.202  0.2298 -0.3484  0.0094
 4852SOL    HW117094   7.478   5.387   2.254 -0.0226  0.2073 -0.4734
 4852SOL    HW217095   7.392   5.263   2.267 -1.3250  1.1900  0.4554
 4853SOL     OW17096   1.495   9.307   3.196  0.2856 -0.5450  0.0770
 4853SOL    HW117097   1.549   9.385   3.207 -1.5363  0.7728 -0.0558
 4853SOL    HW217098   1.510   9.279   3.106 -0.1995  0.5540 -0.3508
 4854SOL     OW17099  10.036   6.184   8.184 -0.1131 -0.1384  0.2223
 4854SOL    HW117100   9.950   6.198   8.224 -0.4152  0.4701 -0.6076
 4854SOL    HW217101  10.026   6.105   8.132 -0.1755 -0.0792  0.1418
 4855SOL     OW17102   0.595   4.053   6.304 -0.3700  0.3561  0.1637
 4855SOL    HW117103   0.688   4.060   6.280 -0.6997  1.3278 -0.8342
 4855SOL    HW217104   0.590   3.971   6.353  0.8332 -0.2235 -0.6422
 4856SOL     OW17105   7.235   3.809   0.954  0.2214 -0.4256  0.3057
 4856SOL    HW117106   7.259   3.805   0.862 -1.6762  0.3812 -0.2531
 4856SOL    HW217107   7.215   3.901   0.970 -1.4961 -0.8883  0.9601
 4857SOL     OW17108   1.337   0.805   8.751  0.0907 -0.2379 -0.1396
 4857SOL    HW117109   1.336   0.868   8.823  0.1955 -1.1136  0.6294
 4857SOL    HW217110   1.324   0.859   8.673  1.0772  0.8531  0.4248
 4858SOL     OW17111   7.515   6.849   9.135 -0.1060 -0.3839 -0.8460
 4858SOL    HW117112   7.600   6.892   9.143  0.5501 -1.6316 -0.9742
 4858SOL    HW217113   7.479   6.882   9.053  0.5575 -0.3745 -1.1342
 4859SOL     OW17114   1.994   0.943   6.923 -0.2100  0.3373 -0.0913
 4859SOL    HW117115   2.076   0.928   6.970  0.3256 -0.8251 -1.3604
 4859SOL    HW217116   2.021   0.990   6.843 -1.0139  1.6228  0.3751
 4860SOL     OW17117   0.193   2.303   6.509  0.4192  0.3808 -0.0109
 4860SOL    HW117118   0.286   2.280   6.508  0.8503  2.0112 -0.1993
 4860SOL    HW217119   0.185   2.366   6.581 -0.6810 -0.2361  0.4251
 4861SOL     OW17120   4.276   5.214   6.955  0.1631 -0.0687 -0.2853
 4861SOL    HW117121   4.245   5.130   6.921  0.2257 -0.2899  0.1991
 4861SOL    HW217122   4.367   5.220   6.926  0.6708 -0.9312  1.0719
 4862SOL     OW17123   0.264   0.666   9.168  0.2642  0.1773 -0.0500
 4862SOL    HW117124   0.270   0.621   9.084  0.4999  1.9270 -0.9855
 4862SOL    HW217125   0.186   0.628   9.210  0.3940 -1.0047 -0.8549
 4863SOL     OW17126   1.368   4.346   1.938  0.4071 -0.2497  0.0599
 4863SOL    HW117127   1.401   4.404   1.868  0.8103 -0.9743 -0.3677
 4863SOL    HW217128   1.443   4.290   1.958 -0.4217 -1.5913 -0.5620
 4864SOL     OW17129   0.115   2.174   4.286 -0.4096 -0.3187 -0.0232
 4864SOL    HW117130   0.126   2.087   4.247 -0.3995 -0.2746 -0.1187
 4864SOL    HW217131   0.046   2.163   4.351 -0.2409 -0.4542  0.1336
 4865SOL     OW17132   7.243   2.234   6.836 -0.5452  0.1685  0.0682
 4865SOL    HW117133   7.262   2.172   6.906  1.1076  0.7680  0.1685
 4865SOL    HW217134   7.311   2.301   6.843 -1.5853  1.3493 -0.8046
 4866SOL     OW17135   6.606   0.911   7.761  0.5667 -0.0518  0.0717
 4866SOL    HW117136   6.530   0.943   7.809  0.6981  0.4029 -0.0224
 4866SOL    HW217137   6.634   0.986   7.707  1.3082 -0.0962  0.3878
 4867SOL     OW17138   4.678   4.126   3.490 -0.1138  0.5958  0.0399
 4867SOL    HW117139   4.659   4.212   3.452  1.5309  0.8870 -0.1302
 4867SOL    HW217140   4.594   4.098   3.527 -1.3590  1.0197 -2.3577
 4868SOL     OW17141   8.856   7.148   0.659  0.1663 -0.0965  0.5824
 4868SOL    HW117142   8.774   7.170   0.614  0.7889  0.7903 -0.1582
 4868SOL    HW217143   8.852   7.196   0.741  0.8919  1.7348 -0.4134
 4869SOL     OW17144   6.307   0.283   8.214  0.4197 -0.0838  0.4268
 4869SOL    HW117145   6.333   0.222   8.282  1.5764  1.3561  1.2961
 4869SOL    HW217146   6.218   0.310   8.238 -0.2030 -1.6050 -0.1123
 4870SOL     OW17147   1.362   6.656   2.097  0.2045 -0.1239  0.4501
 4870SOL    HW117148   1.378   6.749   2.114 -0.3486  0.7012 -3.1304
 4870SOL    HW217149   1.271   6.642   2.122  0.6581 -0.0189  2.1811
 4871SOL     OW17150   1.157   6.300   9.022  0.2287 -0.1086 -0.0578
 4871SOL    HW117151   1.220   6.288   9.094 -0.3670  1.4149  0.7408
 4871SOL    HW217152   1.142   6.394   9.020 -3.0847 -0.5675  0.6628
 4872SOL     OW17153   6.497   4.437   2.485 -0.2807 -0.1213 -0.4885
 4872SOL    HW117154   6.475   4.479   2.401  0.9139 -0.6241 -1.0712
 4872SOL    HW217155   6.496   4.343   2.466  1.8075 -0.1717 -0.4088
 4873SOL     OW17156   2.054   0.772   4.436  0.2749  0.0553 -0.3197
 4873SOL    HW117157   2.066   0.850   4.490  3.3355 -0.3498 -0.3012
 4873SOL    HW217158   2.052   0.804   4.346 -0.7769  0.3698 -0.1818
 4874SOL     OW17159   5.466   1.826   3.330  0.2057  0.0120 -0.3494
 4874SOL    HW117160   5.441   1.859   3.244  0.2759 -0.9301 -0.7343
 4874SOL    HW217161   5.458   1.731   3.323  2.1887 -0.1997  0.0613
 4875SOL     OW17162  10.143   8.574   3.848  0.4625  0.1341 -0.2618
 4875SOL    HW117163  10.150   8.479   3.860  2.5565  0.0640 -1.7394
 4875SOL    HW217164  10.230   8.607   3.871 -0.3876  1.7442  0.6440
 4876SOL     OW17165   4.501   4.581   6.554 -0.6404 -0.3042 -0.3993
 4876SOL    HW117166   4.545   4.663   6.574 -2.4007  0.6319 -0.2167
 4876SOL    HW217167   4.432   4.574   6.620 -2.5949 -0.2541 -2.3697
 4877SOL     OW17168   3.761   5.175   0.245 -0.7828  0.0484 -0.3820
 4877SOL    HW117169   3.725   5.099   0.291 -1.5786  0.8651  0.3512
 4877SOL    HW217170   3.856   5.160   0.245 -0.9605 -1.1264 -0.5710
 4878SOL     OW17171   7.903   5.172   7.710 -0.0175 -0.1853  0.2445
 4878SOL    HW117172   7.881   5.104   7.774 -0.5613 -1.5037 -1.3234
 4878SOL    HW217173   7.995   5.192   7.727  0.0894 -1.1752  0.8525
 4879SOL     OW17174   4.255   8.416   6.529  0.3316  0.1709 -0.1510
 4879SOL    HW117175   4.187   8.480   6.550  0.7537  0.7242 -0.4635
 4879SOL    HW217176   4.337   8.463   6.543  0.6865 -0.9264  1.6111
 4880SOL     OW17177   9.636   7.638   7.546 -0.5881 -0.0492  0.4802
 4880SOL    HW117178   9.596   7.556   7.574 -0.2383  0.5181  2.7492
 4880SOL    HW217179   9.590   7.705   7.597  1.4601  0.8339  1.1939
 4881SOL     OW17180   6.367   7.748   8.946 -0.2156  0.1589  0.5656
 4881SOL    HW117181   6.426   7.697   8.892  1.2339  2.2215  0.1644
 4881SOL    HW217182   6.294   7.770   8.888  1.1169  1.9823 -0.4772
 4882SOL     OW17183   8.957   7.426   3.531  0.3667  0.3106  0.1528
 4882SOL    HW117184   8.953   7.472   3.615  1.4803  0.4180  0.1545
 4882SOL    HW217185   8.979   7.495   3.467 -0.7341  0.2811 -0.2742
 4883SOL     OW17186   6.577   5.348   6.992  0.3850  0.3364  0.0981
 4883SOL    HW117187   6.508   5.401   7.032 -0.5279 -1.3120  0.7481
 4883SOL    HW217188   6.588   5.385   6.905  0.6766  2.4178  0.9822
 4884SOL     OW17189   4.581   1.819   6.076  0.1352 -0.0519 -0.0667
 4884SOL    HW117190   4.565   1.770   5.995 -0.0972  0.2728 -0.2178
 4884SOL    HW217191   4.541   1.766   6.144  1.5239 -1.0090  0.0153
 4885SOL     OW17192   2.730  10.066   6.001 -0.4599  0.0021 -0.2789
 4885SOL    HW117193   2.710  10.133   5.936  1.7141  0.6325 -0.3404
 4885SOL    HW217194   2.790  10.007   5.957  0.6992  0.1942  1.0066
 4886SOL     OW17195   9.168   1.588   2.282  0.1661  0.6557  0.0000
 4886SOL    HW117196   9.182   1.538   2.201 -0.7191 -1.5613  1.1653
 4886SOL    HW217197   9.241   1.562   2.339  0.1723  1.3584  0.3127
 4887SOL     OW17198   6.607   4.544  10.188 -0.0810 -0.2154 -0.8144
 4887SOL    HW117199   6.628   4.539  10.095  0.0023 -1.8164 -0.7271
 4887SOL    HW217200   6.551   4.468  10.204 -0.0123 -0.0081  0.4648
 4888SOL     OW17201   1.013   2.607   2.269  0.2931 -0.1992  0.0272
 4888SOL    HW117202   1.007   2.702   2.281 -0.3960 -0.0152 -1.5992
 4888SOL    HW217203   1.077   2.596   2.199 -0.2584 -0.8734 -0.3777
 4889SOL     OW17204   9.150   1.926   8.793 -0.2847 -0.1910 -0.0489
 4889SOL    HW117205   9.187   1.844   8.760  0.7994  0.8076 -1.4137
 4889SOL    HW217206   9.089   1.954   8.725  0.1800  0.6926 -0.1111
 4890SOL     OW17207   0.431   1.980   5.765  0.1383  0.3427  0.1143
 4890SOL    HW117208   0.491   2.049   5.735  0.1763  0.0178 -0.5696
 4890SOL    HW217209   0.364   2.027   5.815  0.1874  0.8741 -0.3110
 4891SOL     OW17210   3.414   5.727   3.326 -0.0881 -0.3687 -0.3468
 4891SOL    HW117211   3.361   5.724   3.246 -0.3314  0.2995 -0.2120
 4891SOL    HW217212   3.498   5.762   3.297 -0.2081 -0.0361 -0.2895
 4892SOL     OW17213   9.593   5.530   4.054  0.6531  0.3473  0.2614
 4892SOL    HW117214   9.509   5.512   4.096  0.0604  0.1254 -1.0178
 4892SOL    HW217215   9.621   5.614   4.091 -0.0469  0.3460  0.7995
 4893SOL     OW17216   3.870   3.638   5.017  0.4846  0.1912  0.2868
 4893SOL    HW117217   3.898   3.590   4.938 -0.7542 -1.3187  0.7458
 4893SOL    HW217218   3.782   3.669   4.996  0.7299  1.0650  0.5316
 4894SOL     OW17219   0.898   3.250   1.845  0.0239 -0.0738  0.1200
 4894SOL    HW117220   0.880   3.310   1.773  0.2622  1.1445  1.0542
 4894SOL    HW217221   0.886   3.303   1.924  0.1810 -1.2747  0.9632
 4895SOL     OW17222   1.102  10.046   9.083 -0.6159  0.7613 -0.4589
 4895SOL    HW117223   1.164  10.008   9.021 -0.2847  0.3958  0.0873
 4895SOL    HW217224   1.140  10.130   9.107  0.3776 -0.0560  0.9169
 4896SOL     OW17225   6.046   2.801   6.934 -0.0215 -0.4203 -0.3266
 4896SOL    HW117226   5.989   2.855   6.879  0.8713 -0.0326 -0.8776
 4896SOL    HW217227   5.986   2.741   6.979 -1.2379  2.2210  1.6960
 4897SOL     OW17228   4.843   4.576   1.117  0.2077  0.1583  0.0885
 4897SOL    HW117229   4.780   4.618   1.177  0.9117  0.9059  0.3259
 4897SOL    HW217230   4.921   4.563   1.171  0.5913  0.1467 -0.4718
 4898SOL     OW17231   9.275   5.999   2.699  0.1047  0.0395 -0.1974
 4898SOL    HW117232   9.317   5.917   2.674  1.2347  0.8724 -1.1064
 4898SOL    HW217233   9.196   6.004   2.644  0.4932 -0.0292 -0.7625
 4899SOL     OW17234   7.369   9.461   5.185 -0.5015 -0.0928  0.7434
 4899SOL    HW117235   7.420   9.461   5.267  0.9678 -0.2839 -0.1472
 4899SOL    HW217236   7.339   9.551   5.177  0.3097  0.2069  0.9319
 4900SOL     OW17237   2.053   4.775   2.651 -0.3474 -0.0165 -0.2637
 4900SOL    HW117238   2.144   4.746   2.659  0.2021  2.0308  1.7455
 4900SOL    HW217239   2.060   4.863   2.614 -1.6896 -0.7589 -2.3645
 4901SOL     OW17240   1.378   0.534   6.442  0.2511 -0.1142 -0.3754
 4901SOL    HW117241   1.402   0.591   6.368 -0.8654  0.7449 -0.0927
 4901SOL    HW217242   1.304   0.483   6.411  0.2220 -0.2568 -0.0790
 4902SOL     OW17243   5.593   0.129   6.884 -0.8443  0.6104  0.1465
 4902SOL    HW117244   5.609   0.082   6.802 -0.5037  1.0170 -0.0269
 4902SOL    HW217245   5.621   0.068   6.952 -0.2410  0.6265 -0.0826
 4903SOL     OW17246   9.090   3.417   0.412  0.6956 -0.4665  0.1526
 4903SOL    HW117247   9.032   3.357   0.365  1.2380 -1.7283  1.0561
 4903SOL    HW217248   9.105   3.373   0.496 -0.7802  2.0101  1.7739
 4904SOL     OW17249   6.386   8.230   6.088 -0.1586  0.6602 -0.5639
 4904SOL    HW117250   6.363   8.261   6.000 -0.6083 -0.1523 -0.7386
 4904SOL    HW217251   6.481   8.240   6.092 -0.1435  0.7977 -1.1124
 4905SOL     OW17252   1.273   0.021  10.192  0.1673  0.2884  0.0437
 4905SOL    HW117253   1.304   0.059  10.110  0.7601  1.7834  0.9479
 4905SOL    HW217254   1.288  -0.073  10.182  3.1494  0.7683 -0.3438
 4906SOL     OW17255   3.416   7.444   4.963  0.2597  0.1178 -0.2565
 4906SOL    HW117256   3.375   7.507   4.904 -0.3489 -0.9748 -1.0131
 4906SOL    HW217257   3.349   7.378   4.979  0.6861 -0.0153  1.0324
 4907SOL     OW17258   9.075   5.049   2.536  0.2342 -0.3879 -0.3662
 4907SOL    HW117259   9.152   5.043   2.592 -0.8903 -1.5470  1.0970
 4907SOL    HW217260   9.013   5.102   2.587 -0.3791 -0.5051 -0.9917
 4908SOL     OW17261   2.028   6.112   2.387 -1.0009  0.1945 -0.3960
 4908SOL    HW117262   2.036   6.207   2.398 -1.1218  0.1249  0.2987
 4908SOL    HW217263   2.050   6.076   2.473  0.6352 -0.4989 -1.0937
 4909SOL     OW17264   5.613   3.275  10.183  0.0947 -0.9164 -0.4642
 4909SOL    HW117265   5.652   3.199  10.140 -0.3290 -1.1343 -0.4666
 4909SOL    HW217266   5.567   3.321  10.112 -0.9737 -1.5138 -0.1669
 4910SOL     OW17267   1.971   7.625   8.325 -0.0425 -0.3775  0.0571
 4910SOL    HW117268   1.908   7.554   8.329 -2.1249  1.3398 -1.2682
 4910SOL    HW217269   2.026   7.605   8.249 -0.7326 -0.4884 -0.4107
 4911SOL     OW17270   7.576   7.928  10.003 -0.5659  0.0689 -0.1061
 4911SOL    HW117271   7.546   7.996   9.942 -1.7900 -0.7782 -0.4782
 4911SOL    HW217272   7.594   7.975  10.084 -0.8033  0.9302 -0.5385
 4912SOL     OW17273   0.109   3.158   9.623 -0.2700  0.0937 -0.3354
 4912SOL    HW117274   0.082   3.096   9.556  1.9534 -0.3983 -0.8286
 4912SOL    HW217275   0.028   3.188   9.664 -1.4347 -2.1067 -1.0113
 4913SOL     OW17276   2.382   4.281   7.591 -0.5317 -0.2022  0.3433
 4913SOL    HW117277   2.340   4.359   7.626 -0.1662 -0.0405  0.4219
 4913SOL    HW217278   2.476   4.300   7.595 -0.5234  1.3023 -4.1801
 4914SOL     OW17279   3.233   9.890   0.594 -0.1957 -0.0334 -0.4748
 4914SOL    HW117280   3.243   9.982   0.571 -1.4666  0.0674 -0.6642
 4914SOL    HW217281   3.144   9.883   0.629 -0.7558 -1.5103 -2.1151
 4915SOL     OW17282   2.848   4.775   9.197 -0.3776  0.1204 -0.2391
 4915SOL    HW117283   2.944   4.768   9.192 -0.3214  1.1497 -0.8513
 4915SOL    HW217284   2.821   4.700   9.250  0.8065  0.0354  0.2671
 4916SOL     OW17285   1.198   4.701   9.130 -0.0614 -0.5537 -0.6496
 4916SOL    HW117286   1.281   4.747   9.122 -0.5498  0.4980  0.1975
 4916SOL    HW217287   1.134   4.770   9.150 -0.8363 -1.5672  0.4374
 4917SOL     OW17288   6.652   4.294   0.383 -0.9123 -0.0607 -0.4073
 4917SOL    HW117289   6.568   4.268   0.423 -0.2691 -1.2422  0.2003
 4917SOL    HW217290   6.702   4.212   0.378  0.9524  0.9575  1.0541
 4918SOL     OW17291   9.298   8.746   0.265  0.0993  0.7417 -0.1328
 4918SOL    HW117292   9.267   8.755   0.174  0.4395  0.8923 -0.2333
 4918SOL    HW217293   9.390   8.720   0.257 -0.3933 -1.1667  0.1603
 4919SOL     OW17294   8.513   9.168   5.256 -0.1089 -0.1337 -0.1753
 4919SOL    HW117295   8.542   9.081   5.229 -0.8100  0.2300 -2.1910
 4919SOL    HW217296   8.564   9.229   5.201 -0.3516  0.6827  0.4949
 4920SOL     OW17297   6.139   1.280   2.822  0.0778 -0.3816  0.1015
 4920SOL    HW117298   6.055   1.326   2.818  0.3122  0.0848  0.4806
 4920SOL    HW217299   6.123   1.197   2.778 -0.3026  0.1354 -0.7662
 4921SOL     OW17300   6.605   1.126   6.611 -0.4555  0.0440 -0.3606
 4921SOL    HW117301   6.587   1.055   6.672 -0.7367  0.5842  0.1847
 4921SOL    HW217302   6.672   1.178   6.655  1.5695 -1.2515 -1.8201
 4922SOL     OW17303   0.563   5.253   2.778 -0.2119 -0.4568 -0.3729
 4922SOL    HW117304   0.556   5.333   2.830 -0.9294 -0.9115  0.2433
 4922SOL    HW217305   0.525   5.184   2.833 -1.0201 -0.9383 -1.4896
 4923SOL     OW17306   1.947   0.169   5.829 -0.2808  0.0033  0.3425
 4923SOL    HW117307   1.901   0.253   5.822  0.3639  0.2216 -1.8376
 4923SOL    HW217308   2.039   0.193   5.842  0.0058 -0.3297 -0.9783
 4924SOL     OW17309   1.930   5.676   1.295  0.0754 -0.3160 -0.1786
 4924SOL    HW117310   1.850   5.635   1.263  0.6188 -2.3823  0.9607
 4924SOL    HW217311   2.000   5.631   1.248  0.6761 -0.5443  0.9091
 4925SOL     OW17312   7.814   0.021   2.954  0.0946 -0.4176  0.2138
 4925SOL    HW117313   7.766   0.035   2.873  1.0817 -1.2161 -0.5247
 4925SOL    HW217314   7.867   0.101   2.964 -1.5041  0.5506  1.1375
 4926SOL     OW17315   5.307   9.687  10.192  0.5268 -0.6715 -0.0449
 4926SOL    HW117316   5.326   9.597  10.221 -0.1875 -1.5213 -2.1222
 4926SOL    HW217317   5.392   9.731  10.192  1.2523 -2.0396 -1.2894
 4927SOL     OW17318   2.972   3.572   7.233 -0.7604  0.3645 -0.2013
 4927SOL    HW117319   2.912   3.500   7.212 -0.1505 -0.3647  0.4638
 4927SOL    HW217320   3.000   3.606   7.148  0.1227 -1.1983 -0.5651
 4928SOL     OW17321   9.796   6.651   7.842  0.3339  0.4552  0.4023
 4928SOL    HW117322   9.761   6.717   7.902 -0.0031  0.5697  0.0848
 4928SOL    HW217323   9.741   6.659   7.764 -0.2337 -0.7668  0.6636
 4929SOL     OW17324   6.838   7.593   0.676  0.4687 -0.4051 -0.0186
 4929SOL    HW117325   6.902   7.650   0.720  2.4756 -3.1758  0.7575
 4929SOL    HW217326   6.873   7.581   0.588  0.0238 -0.3923 -0.1973
 4930SOL     OW17327   8.189   0.115   3.782  0.0631  0.4633 -0.3328
 4930SOL    HW117328   8.228   0.193   3.823 -0.5976  1.1288 -0.9548
 4930SOL    HW217329   8.226   0.042   3.831 -0.9039  1.2559  1.6492
 4931SOL     OW17330   2.834   9.695   4.317  0.1914  0.3101  0.1347
 4931SOL    HW117331   2.776   9.750   4.263  0.2072  1.0154  0.8247
 4931SOL    HW217332   2.891   9.651   4.254 -0.9869 -0.2660 -0.5483
 4932SOL     OW17333   6.019   4.752   5.207 -0.2734  0.7633 -0.0926
 4932SOL    HW117334   6.110   4.771   5.185 -0.0595 -0.6186 -0.4910
 4932SOL    HW217335   5.981   4.716   5.127 -1.1982  1.4203  0.0418
 4933SOL     OW17336   2.741   3.869   7.988  0.7470 -0.0573 -0.1599
 4933SOL    HW117337   2.798   3.838   8.059  2.1460 -0.2984 -1.3728
 4933SOL    HW217338   2.730   3.792   7.931  0.3877  0.3844 -0.6870
 4934SOL     OW17339   1.838   1.770   2.181  0.1128 -0.1819 -0.3545
 4934SOL    HW117340   1.757   1.719   2.179 -0.3068  0.4959 -0.6148
 4934SOL    HW217341   1.830   1.831   2.108 -0.3678  1.7553  1.2816
 4935SOL     OW17342   1.092   3.576   5.917 -0.6848 -0.2569 -0.0136
 4935SOL    HW117343   1.187   3.563   5.917 -1.0100 -2.8383 -1.0122
 4935SOL    HW217344   1.055   3.489   5.928 -2.9581  0.6984  0.2422
 4936SOL     OW17345   0.716   5.816   6.804 -0.6160  0.2868 -0.6566
 4936SOL    HW117346   0.788   5.815   6.742  0.5006 -1.3142  0.6295
 4936SOL    HW217347   0.655   5.749   6.771 -1.0412  0.9101 -1.1620
 4937SOL     OW17348   3.510   1.908   8.298  0.1463  0.0824  0.0888
 4937SOL    HW117349   3.556   1.824   8.300 -0.7768 -0.4228  0.1311
 4937SOL    HW217350   3.458   1.906   8.218 -1.1131 -0.0576  0.8952
 4938SOL     OW17351   9.398   3.396   9.791  0.0211 -0.4379  0.3746
 4938SOL    HW117352   9.342   3.443   9.729 -0.5400  0.5010  1.5739
 4938SOL    HW217353   9.481   3.383   9.744  0.6995  3.0558  0.5192
 4939SOL     OW17354   1.892   3.008   2.551  0.4045  0.0218 -0.1451
 4939SOL    HW117355   1.844   3.042   2.475 -0.5905 -0.6421  0.1665
 4939SOL    HW217356   1.984   3.021   2.529  0.1531 -0.7990 -1.7802
 4940SOL     OW17357   5.202   6.843   8.888  0.6894 -0.1601 -0.0192
 4940SOL    HW117358   5.172   6.842   8.797  0.6283 -0.1688  0.0010
 4940SOL    HW217359   5.134   6.891   8.935  0.4946 -0.5476  0.1006
 4941SOL     OW17360   7.459   7.870   4.023  0.2009  0.4110  0.1220
 4941SOL    HW117361   7.380   7.820   4.042  0.6626 -0.1383  0.6122
 4941SOL    HW217362   7.450   7.950   4.074  0.5539 -0.2177  1.1646
 4942SOL     OW17363   3.668   9.068   6.270  0.6835  0.1609 -0.3213
 4942SOL    HW117364   3.599   9.093   6.208 -1.0937 -1.8445  0.7759
 4942SOL    HW217365   3.685   9.147   6.321 -1.4964  0.4505  0.0009
 4943SOL     OW17366   3.125   1.629   2.832  0.1131 -0.1323  0.2492
 4943SOL    HW117367   3.199   1.575   2.860  0.3775 -0.8806 -1.8365
 4943SOL    HW217368   3.149   1.658   2.744 -1.9969 -0.2033 -0.3577
 4944SOL     OW17369   6.107   1.404   9.163 -0.2936 -0.5240 -0.3089
 4944SOL    HW117370   6.107   1.323   9.112 -0.2953  0.1762 -1.4412
 4944SOL    HW217371   6.097   1.473   9.098 -0.4447  0.3807  0.6614
 4945SOL     OW17372   1.574   8.082   8.481  0.8231  0.2541 -0.1410
 4945SOL    HW117373   1.570   8.046   8.569 -1.0518  2.4277  0.7287
 4945SOL    HW217374   1.657   8.130   8.478  0.5409  0.8277  0.7490
 4946SOL     OW17375   5.583   4.132   0.372  0.6839  0.0609 -0.2131
 4946SOL    HW117376   5.580   4.166   0.461  0.5212 -0.1059 -0.1575
 4946SOL    HW217377   5.631   4.050   0.379  0.7100  0.0691 -0.2878
 4947SOL     OW17378  10.167   8.682   3.481 -0.4209  0.1693  0.0124
 4947SOL    HW117379  10.165   8.628   3.402 -0.6874 -1.1689  0.8963
 4947SOL    HW217380  10.149   8.771   3.451  1.3430 -0.0003 -1.6741
 4948SOL     OW17381   3.461   3.447   0.822  0.1990  0.0697  0.1329
 4948SOL    HW117382   3.534   3.397   0.786 -0.9642 -0.8348 -1.0174
 4948SOL    HW217383   3.408   3.383   0.869  0.7883  0.9469  2.0815
 4949SOL     OW17384   6.338   5.108   2.998 -0.0425 -0.1983 -0.1941
 4949SOL    HW117385   6.263   5.116   3.057 -0.9409  0.4750 -1.4215
 4949SOL    HW217386   6.411   5.085   3.056 -0.6945  1.4286  1.3152
 4950SOL     OW17387   9.865   5.722   7.397  0.7753  0.1830 -0.0942
 4950SOL    HW117388   9.935   5.717   7.332  2.0697  0.1361  1.2730
 4950SOL    HW217389   9.891   5.659   7.465 -0.9180 -0.3014  0.1286
 4951SOL     OW17390   0.200   1.465   6.678  0.0823 -0.3546  0.5130
 4951SOL    HW117391   0.161   1.398   6.734  0.4401 -0.0176  1.1717
 4951SOL    HW217392   0.125   1.503   6.632 -0.2101 -0.6930  0.7009
 4952SOL     OW17393   5.874   6.823   2.426  0.2146  0.5106  0.0464
 4952SOL    HW117394   5.905   6.900   2.378 -0.0565  1.8751  1.9938
 4952SOL    HW217395   5.952   6.768   2.436  0.7349  1.2196 -0.0827
 4953SOL     OW17396   4.041   6.819   0.240 -0.2248 -0.0511 -0.0978
 4953SOL    HW117397   3.999   6.831   0.326 -1.8396 -0.5727 -0.7941
 4953SOL    HW217398   4.134   6.808   0.260 -0.6198 -0.4700  1.6089
 4954SOL     OW17399   3.835   5.661   8.232  0.1187 -0.4352 -0.2072
 4954SOL    HW117400   3.741   5.643   8.237  0.4225 -1.5671  2.1990
 4954SOL    HW217401   3.842   5.756   8.247 -0.6747 -0.2440 -1.0463
 4955SOL     OW17402   2.718   8.126   7.508 -0.0603 -0.2351  0.1013
 4955SOL    HW117403   2.703   8.035   7.534  0.4463 -0.0337  1.1532
 4955SOL    HW217404   2.812   8.139   7.523 -0.5394  1.1396  2.2341
 4956SOL     OW17405   6.727   4.881   1.645  0.2242 -0.8350 -0.5420
 4956SOL    HW117406   6.666   4.855   1.576  1.5888  1.7593 -2.8292
 4956SOL    HW217407   6.733   4.976   1.637  2.7842 -0.8016  1.1363
 4957SOL     OW17408   1.180   8.131   1.996  0.1404 -0.7097 -0.1601
 4957SOL    HW117409   1.270   8.158   1.975 -0.2221  0.4465 -0.3084
 4957SOL    HW217410   1.125   8.192   1.946 -0.7253 -1.5579 -0.2523
 4958SOL     OW17411   0.949   1.729   4.132 -0.4508  0.4172 -0.2427
 4958SOL    HW117412   0.857   1.753   4.146  0.0378  1.6012  1.1265
 4958SOL    HW217413   0.968   1.760   4.043 -0.8309  1.9520  0.1947
 4959SOL     OW17414   1.342   9.264   9.170  0.1012 -0.4027 -0.1081
 4959SOL    HW117415   1.399   9.221   9.106 -2.2649 -0.6477 -2.1015
 4959SOL    HW217416   1.344   9.206   9.246  0.5565 -1.6699 -1.0637
 4960SOL     OW17417   1.099   0.312   9.960  0.4097 -0.2494  0.2290
 4960SOL    HW117418   1.172   0.258   9.988 -0.4079  0.0577  3.0678
 4960SOL    HW217419   1.050   0.330  10.040 -2.2132  0.3962 -1.4702
 4961SOL     OW17420   0.539  10.116   9.932 -0.0182  0.1892  0.3758
 4961SOL    HW117421   0.537  10.034   9.981  0.4513  2.1947  3.9095
 4961SOL    HW217422   0.586  10.177   9.989 -1.5555  3.2966 -1.5402
 4962SOL     OW17423   9.812   1.856   4.361 -0.4891  0.0961 -0.0695
 4962SOL    HW117424   9.812   1.895   4.448 -0.9223  0.3634 -0.1907
 4962SOL    HW217425   9.799   1.930   4.302 -1.9809 -0.3108 -0.2605
 4963SOL     OW17426   3.020   4.359   2.937  0.6054  0.7414  1.2991
 4963SOL    HW117427   3.102   4.400   2.909  1.0466 -1.2460 -0.3920
 4963SOL    HW217428   2.962   4.366   2.862  0.6493 -1.5925  1.0233
 4964SOL     OW17429   3.606   5.535   9.222  0.2091 -0.1000  0.3985
 4964SOL    HW117430   3.681   5.522   9.280  1.1548  0.4963 -0.6761
 4964SOL    HW217431   3.541   5.472   9.254  1.2894 -0.8833  1.1185
 4965SOL     OW17432   7.947   1.593   0.592  0.2158  0.0052 -0.1511
 4965SOL    HW117433   8.021   1.575   0.534 -0.0079  1.1762 -0.8088
 4965SOL    HW217434   7.880   1.632   0.536 -0.8865 -0.9810  0.4526
 4966SOL     OW17435   3.553   3.263   1.442  0.3686 -0.6055 -0.5979
 4966SOL    HW117436   3.474   3.265   1.388  0.4485 -1.1148 -0.7382
 4966SOL    HW217437   3.541   3.188   1.501 -0.2345  0.6298  0.8917
 4967SOL     OW17438   0.472   9.518   2.061  0.9171  0.2718  0.1968
 4967SOL    HW117439   0.410   9.495   1.992 -2.0374  0.1226  2.7836
 4967SOL    HW217440   0.513   9.434   2.085  0.6049  0.0293 -0.1184
 4968SOL     OW17441   2.099   6.282   1.983 -0.1459  0.2705  0.0699
 4968SOL    HW117442   2.074   6.207   2.037  1.8169  0.4923  1.3283
 4968SOL    HW217443   2.057   6.357   2.025 -0.1887  0.1904  0.1715
 4969SOL     OW17444   6.736   8.726   4.121  0.0912  0.4509 -0.2665
 4969SOL    HW117445   6.695   8.661   4.065  1.1332  1.0042 -1.6934
 4969SOL    HW217446   6.672   8.742   4.190 -0.7870 -0.9752 -0.7363
 4970SOL     OW17447   2.476   2.944   4.305  0.2796  0.1579 -0.0234
 4970SOL    HW117448   2.565   2.979   4.313  0.2279  0.0765  0.9731
 4970SOL    HW217449   2.479   2.890   4.226  1.0210  0.4370 -0.1904
 4971SOL     OW17450   4.721   5.762   0.017 -0.9245 -0.5072  0.4821
 4971SOL    HW117451   4.768   5.843  -0.001 -1.3026  0.0163  1.8709
 4971SOL    HW217452   4.636   5.774  -0.025 -0.5269 -0.6939 -0.3912
 4972SOL     OW17453   0.825   4.933   6.086 -0.1178  0.5679  0.1590
 4972SOL    HW117454   0.915   4.929   6.054 -0.1944  2.0115 -0.2721
 4972SOL    HW217455   0.831   4.972   6.173 -0.3015  0.4286  0.2351
 4973SOL     OW17456   1.110   0.103   3.923  0.1555  0.1559 -0.0667
 4973SOL    HW117457   1.105   0.122   4.017 -1.5797  2.3092 -0.5365
 4973SOL    HW217458   1.028   0.056   3.905 -0.6552  1.8503 -0.9083
 4974SOL     OW17459   0.167   8.164   9.843 -0.0035 -0.7823  0.4044
 4974SOL    HW117460   0.233   8.128   9.903  1.4656 -0.2204 -0.8414
 4974SOL    HW217461   0.213   8.172   9.760 -0.2821  3.9894  0.6016
 4975SOL     OW17462   9.652   9.531   8.602  0.8188  0.0381 -0.4324
 4975SOL    HW117463   9.568   9.490   8.621  0.5967  0.0666 -1.3538
 4975SOL    HW217464   9.690   9.548   8.688  0.7585 -1.7669 -0.0363
 4976SOL     OW17465   9.986   0.147   6.842  0.3243  0.0930  0.2034
 4976SOL    HW117466   9.962   0.075   6.899  1.2443 -0.8394 -0.5611
 4976SOL    HW217467   9.951   0.225   6.885 -1.0065 -0.8388  0.8499
 4977SOL     OW17468   4.634   9.017   4.235  0.2607  0.1528 -0.0576
 4977SOL    HW117469   4.701   9.076   4.269 -0.3660  0.9542 -0.1904
 4977SOL    HW217470   4.656   8.932   4.271  1.0435  0.5172  0.3286
 4978SOL     OW17471   8.645   6.761   8.796  0.0163 -0.6423  0.3192
 4978SOL    HW117472   8.650   6.672   8.833 -1.3410 -0.2574  1.4898
 4978SOL    HW217473   8.660   6.819   8.870  1.2670  0.1183 -0.5154
 4979SOL     OW17474   3.591   4.708   7.410  0.2903  0.0606  0.5854
 4979SOL    HW117475   3.585   4.615   7.432  1.6333 -0.2236 -0.2368
 4979SOL    HW217476   3.671   4.738   7.452  0.2168  0.6905  0.2802
 4980SOL     OW17477   8.713   9.695   6.130  0.2801  0.7290  0.2171
 4980SOL    HW117478   8.641   9.758   6.135 -2.2124 -1.9588 -0.6541
 4980SOL    HW217479   8.711   9.650   6.214  0.5394  0.2085 -0.0537
 4981SOL     OW17480   3.875   9.196   0.621  0.4854  0.1368  0.1569
 4981SOL    HW117481   3.886   9.155   0.535 -0.7605 -1.1409  0.5856
 4981SOL    HW217482   3.904   9.286   0.608  2.9539 -0.7729 -0.8859
 4982SOL     OW17483   4.133   0.728   7.629  0.2949 -0.1072  0.3202
 4982SOL    HW117484   4.128   0.755   7.538  1.1834 -1.9299 -0.3036
 4982SOL    HW217485   4.190   0.650   7.628  0.5829  0.0348  2.4596
 4983SOL     OW17486   2.970   7.255   6.950  0.1103 -0.6983  0.4078
 4983SOL    HW117487   2.959   7.160   6.945 -0.2678 -0.6045 -0.7168
 4983SOL    HW217488   2.882   7.288   6.967 -0.1896 -0.4130 -1.5404
 4984SOL     OW17489   6.587   5.719   1.730 -0.0752  0.0763 -0.1633
 4984SOL    HW117490   6.634   5.708   1.648 -0.7272 -0.0582 -0.5231
 4984SOL    HW217491   6.652   5.700   1.798  0.7150  1.0835 -0.6151
 4985SOL     OW17492   8.102   4.474   3.996 -0.5085 -0.6737  0.9298
 4985SOL    HW117493   8.150   4.407   3.948 -1.0161 -0.2206 -0.2079
 4985SOL    HW217494   8.164   4.505   4.062 -0.0303 -1.7447  1.0029
 4986SOL     OW17495   6.552   7.091   6.849  0.0096  0.2124 -0.6515
 4986SOL    HW117496   6.628   7.137   6.886  0.6931 -1.4873  0.1147
 4986SOL    HW217497   6.497   7.161   6.814  0.6661  1.6829  1.1368
 4987SOL     OW17498   5.232   9.355   3.057 -0.0143 -0.4738 -0.2323
 4987SOL    HW117499   5.321   9.351   3.091  0.6783  0.7328 -1.8431
 4987SOL    HW217500   5.177   9.341   3.134  1.4936  1.9027  1.3620
 4988SOL     OW17501   2.586   3.286   3.628 -0.6768  0.5617 -0.3800
 4988SOL    HW117502   2.604   3.312   3.718 -0.7245 -0.6353 -0.0212
 4988SOL    HW217503   2.504   3.237   3.632  1.2347 -2.8331 -0.4439
 4989SOL     OW17504   2.109   6.907   3.172 -0.0697  0.3500 -0.2154
 4989SOL    HW117505   2.204   6.897   3.177 -0.2295 -1.0351  0.4109
 4989SOL    HW217506   2.080   6.837   3.113 -0.7927  0.0976  0.4234
 4990SOL     OW17507   5.914   5.247   9.632 -0.1644 -0.2174  0.2219
 4990SOL    HW117508   5.910   5.342   9.624  1.1933 -0.0149  1.6308
 4990SOL    HW217509   5.937   5.232   9.724 -1.0477 -1.9297  0.1854
 4991SOL     OW17510   9.306   2.781   4.780 -0.2113  0.4176 -0.9173
 4991SOL    HW117511   9.225   2.815   4.818  0.0604  0.1119 -0.0453
 4991SOL    HW217512   9.321   2.836   4.703 -1.7589 -0.1389 -1.6516
 4992SOL     OW17513   7.224   9.158   5.046  0.1213  0.0307  0.4837
 4992SOL    HW117514   7.241   9.066   5.065 -1.5980 -0.6645 -1.1350
 4992SOL    HW217515   7.232   9.202   5.130 -0.6568 -1.8626  1.5866
 4993SOL     OW17516   2.777   3.717   4.399  0.2035 -0.4276 -0.0222
 4993SOL    HW117517   2.764   3.810   4.380  2.7510 -0.2168 -0.9437
 4993SOL    HW217518   2.853   3.715   4.458  1.3028 -1.9872 -1.4443
 4994SOL     OW17519   4.785   8.001   9.494 -0.3738  0.6358 -0.0443
 4994SOL    HW117520   4.713   7.959   9.446  2.0216 -1.4698 -1.9218
 4994SOL    HW217521   4.817   8.070   9.435 -0.1244  0.8386  0.3210
 4995SOL     OW17522   9.708   5.435   8.417 -0.0056  0.1222  0.0839
 4995SOL    HW117523   9.738   5.451   8.328  0.8812  1.1776  0.5669
 4995SOL    HW217524   9.694   5.340   8.420  2.3195 -0.2825 -0.4660
 4996SOL     OW17525   5.724   2.053   0.761 -0.6889 -0.1793  0.0628
 4996SOL    HW117526   5.789   2.072   0.693 -2.7333 -0.5459 -2.0437
 4996SOL    HW217527   5.773   2.002   0.826  0.7142 -2.0828 -2.3741
 4997SOL     OW17528   9.180   7.829   9.610 -0.2859 -0.1726 -0.2806
 4997SOL    HW117529   9.250   7.883   9.649 -1.1055  0.3292  0.5094
 4997SOL    HW217530   9.220   7.743   9.600  0.2819 -0.0326  0.6943
 4998SOL     OW17531   0.461   7.643   2.453  0.0894 -0.2328  0.1973
 4998SOL    HW117532   0.551   7.638   2.482  0.6700 -0.7682 -1.6016
 4998SOL    HW217533   0.464   7.620   2.360 -1.8358  0.1420  0.0046
 4999SOL     OW17534   6.071   2.253   2.155  0.4502 -0.3567 -0.0927
 4999SOL    HW117535   6.042   2.294   2.073 -1.0776  0.0976  0.6732
 4999SOL    HW217536   6.098   2.165   2.129 -1.4425 -0.7331 -0.8527
 5000SOL     OW17537   1.346   8.603   9.337 -0.4381  0.2669  0.2777
 5000SOL    HW117538   1.409   8.536   9.363 -1.7741 -0.2984  2.1727
 5000SOL    HW217539   1.333   8.589   9.243  1.3432 -0.3531  0.1092
 5001SOL     OW17540   2.468   7.737   1.494 -0.0215  0.4299 -0.1654
 5001SOL    HW117541   2.444   7.724   1.402 -0.0529 -0.2868 -0.0606
 5001SOL    HW217542   2.418   7.670   1.541 -0.0214  0.8120  0.3729
 5002SOL     OW17543   9.589   9.751   6.070 -0.5175  0.1492  0.2129
 5002SOL    HW117544   9.638   9.731   6.150  0.4701  0.2425 -0.3650
 5002SOL    HW217545   9.524   9.681   6.064 -0.9807  0.4696  1.4146
 5003SOL     OW17546   2.742   4.515   2.824 -0.3269 -0.2469  0.3736
 5003SOL    HW117547   2.835   4.529   2.806  0.2284 -2.7541  1.1757
 5003SOL    HW217548   2.699   4.526   2.739  0.8662 -0.4603 -0.2660
 5004SOL     OW17549   0.110   0.097   3.058 -0.1507  0.5847 -0.2223
 5004SOL    HW117550   0.067   0.174   3.094 -1.4508 -0.3047  0.1911
 5004SOL    HW217551   0.043   0.028   3.061  0.6576 -0.3010 -1.5269
 5005SOL     OW17552   3.026   5.541  10.180 -0.2954  0.6119  0.3427
 5005SOL    HW117553   3.045   5.488  10.102 -2.5988 -2.5756  1.8558
 5005SOL    HW217554   2.985   5.620  10.145 -0.7864 -0.5071 -1.7321
 5006SOL     OW17555   0.370   3.703   3.255  0.3805 -0.6684 -0.0372
 5006SOL    HW117556   0.434   3.720   3.186  0.7282 -0.2107  0.3982
 5006SOL    HW217557   0.406   3.745   3.333 -0.4720 -0.3659  0.2013
 5007SOL     OW17558   9.146   1.563   3.836  0.2585  0.4376  0.7851
 5007SOL    HW117559   9.093   1.484   3.845 -0.0182  0.6618  1.1365
 5007SOL    HW217560   9.236   1.532   3.837  0.1494  0.1249  0.9265
 5008SOL     OW17561   2.559   8.605   8.605  0.2020 -0.4615  0.3967
 5008SOL    HW117562   2.480   8.594   8.657 -1.6108  1.5138 -1.8270
 5008SOL    HW217563   2.556   8.535   8.540 -0.0141 -0.0608 -0.0275
 5009SOL     OW17564   3.835   5.897   6.447 -0.0084 -0.6624 -0.6328
 5009SOL    HW117565   3.928   5.904   6.426 -0.1296 -1.3138 -1.3961
 5009SOL    HW217566   3.793   5.963   6.392  0.1055  0.3541  0.4729
 5010SOL     OW17567   3.317   0.391   1.900 -0.0653  0.0739  0.1232
 5010SOL    HW117568   3.384   0.444   1.856 -0.0498  0.4520  0.5940
 5010SOL    HW217569   3.315   0.426   1.989  2.0333 -2.6380  1.3040
 5011SOL     OW17570   7.512   7.234   0.293 -0.4471  0.2420 -0.2084
 5011SOL    HW117571   7.491   7.141   0.305 -0.6190  0.0080 -2.2679
 5011SOL    HW217572   7.464   7.278   0.363  0.2917 -1.2754  1.3177
 5012SOL     OW17573   6.898   2.950   6.903 -0.1493  0.6167  0.7870
 5012SOL    HW117574   6.934   3.014   6.842 -0.0002 -0.2692 -0.0458
 5012SOL    HW217575   6.954   2.873   6.895 -2.1302 -0.7605 -0.4831
 5013SOL     OW17576   4.652   4.278   0.280 -0.3929  0.5486  0.3627
 5013SOL    HW117577   4.704   4.254   0.203  0.0421  1.8658  0.2348
 5013SOL    HW217578   4.672   4.209   0.344  0.0128 -0.0112 -0.3566
 5014SOL     OW17579   3.697   9.959   7.109  0.1330 -0.0154  0.0783
 5014SOL    HW117580   3.726   9.931   7.022 -0.6933 -1.0434  0.1206
 5014SOL    HW217581   3.683  10.053   7.101  2.2424  0.2808 -0.2814
 5015SOL     OW17582   2.925   8.426   0.485 -0.2700  0.2849 -0.3770
 5015SOL    HW117583   2.833   8.421   0.456 -0.7894 -0.6278  1.3294
 5015SOL    HW217584   2.964   8.344   0.454 -0.7418 -0.5438  1.1632
 5016SOL     OW17585   0.829   6.195   5.952  0.7137  0.6287 -0.2332
 5016SOL    HW117586   0.757   6.178   6.012  0.3071  2.5221 -0.1320
 5016SOL    HW217587   0.789   6.192   5.865  0.9970 -0.6537 -0.3166
 5017SOL     OW17588   8.608   8.297   0.442  0.0313 -0.2731 -0.1310
 5017SOL    HW117589   8.590   8.366   0.505 -2.4444 -0.5337 -0.4858
 5017SOL    HW217590   8.609   8.341   0.357  2.3045 -0.0908 -0.0464
 5018SOL     OW17591   4.118   8.928   3.508 -0.2856 -0.4645 -0.1688
 5018SOL    HW117592   4.047   8.931   3.444 -0.7878  0.5154  0.4225
 5018SOL    HW217593   4.132   9.019   3.533  0.0896 -0.8016  0.8951
 5019SOL     OW17594   9.132   8.371   3.592 -0.3751 -0.7774  0.1843
 5019SOL    HW117595   9.114   8.374   3.686  0.0620 -0.2236  0.2536
 5019SOL    HW217596   9.221   8.405   3.584 -0.5407 -0.4928 -0.4604
 5020SOL     OW17597   2.560   0.088   8.687 -0.0157  0.2827 -0.1786
 5020SOL    HW117598   2.578   0.117   8.598  1.0458  0.4571  0.0895
 5020SOL    HW217599   2.634   0.119   8.739  0.3270 -1.4530  0.4185
 5021SOL     OW17600   2.781   6.397   6.200  0.5365  0.1812 -0.2613
 5021SOL    HW117601   2.742   6.311   6.183 -0.0484  0.8826 -2.7381
 5021SOL    HW217602   2.712   6.459   6.176  1.1532  1.3542  0.9613
 5022SOL     OW17603   8.779   1.031   0.185  0.5420  0.0209  0.0172
 5022SOL    HW117604   8.835   0.958   0.160 -0.2701 -0.7920  0.5104
 5022SOL    HW217605   8.705   0.989   0.230  1.3269  1.3487  2.5635
 5023SOL     OW17606   2.238  10.160   2.460 -0.1861 -0.2412  0.3550
 5023SOL    HW117607   2.222  10.170   2.554 -2.1156 -0.0129  0.0210
 5023SOL    HW217608   2.166  10.207   2.418  1.5450  1.0591 -1.2612
 5024SOL     OW17609   6.156   1.283   1.124 -0.2277 -0.2809 -0.0674
 5024SOL    HW117610   6.089   1.314   1.184 -0.7118 -1.0519 -0.2027
 5024SOL    HW217611   6.159   1.350   1.055  1.0683  1.1490  1.3283
 5025SOL     OW17612   0.310   1.129   6.470  0.3215  0.3559  0.0107
 5025SOL    HW117613   0.361   1.078   6.407  1.0423 -1.1936  1.8038
 5025SOL    HW217614   0.253   1.184   6.416  0.0570 -1.8105 -1.9954
 5026SOL     OW17615   6.517   9.999   6.835 -0.5422  0.4447 -0.2753
 5026SOL    HW117616   6.468   9.927   6.795 -0.5828  0.0302  0.5096
 5026SOL    HW217617   6.451  10.062   6.862 -0.5134  0.7360 -0.8836
 5027SOL     OW17618   4.400   4.944   8.262 -0.2182 -0.0163 -0.3425
 5027SOL    HW117619   4.352   4.882   8.207  1.0097  0.1797 -1.6662
 5027SOL    HW217620   4.332   5.002   8.297 -1.2779 -1.5747  0.2345
 5028SOL     OW17621   0.575   7.680   2.722 -0.0153 -0.4871 -0.2610
 5028SOL    HW117622   0.558   7.769   2.691  1.2437  0.6399  2.1509
 5028SOL    HW217623   0.638   7.644   2.660 -0.3283  0.4115 -1.1019
 5029SOL     OW17624   2.391   9.094   2.017 -0.1723  0.2500  0.0286
 5029SOL    HW117625   2.367   9.030   1.950 -1.4937  1.4426 -0.6952
 5029SOL    HW217626   2.406   9.175   1.967  2.4329  0.2908  0.8095
 5030SOL     OW17627   6.299   7.951   6.676 -0.5562  0.4765 -0.2285
 5030SOL    HW117628   6.212   7.969   6.713 -0.5596  0.5524 -0.2729
 5030SOL    HW217629   6.288   7.871   6.626  0.2788 -1.7212  2.9189
 5031SOL     OW17630   3.705   5.679   9.941  0.5348  0.0498 -0.6957
 5031SOL    HW117631   3.672   5.606   9.994  0.7554  0.6414  0.2748
 5031SOL    HW217632   3.792   5.695   9.976  1.0376 -0.1355 -1.8527
 5032SOL     OW17633   6.637   3.430   6.696  0.5550 -0.0428 -0.3290
 5032SOL    HW117634   6.674   3.489   6.631  0.0806 -1.0452 -1.5076
 5032SOL    HW217635   6.634   3.344   6.654 -1.4541 -0.3404  0.3477
 5033SOL     OW17636   6.241   0.467   4.820 -0.0209 -0.6730 -0.3557
 5033SOL    HW117637   6.301   0.467   4.745  0.1489  0.4529 -0.2301
 5033SOL    HW217638   6.161   0.425   4.786  0.3996 -1.0642 -0.8787
 5034SOL     OW17639   7.466   0.858   2.310  0.7966 -0.3907  0.3168
 5034SOL    HW117640   7.481   0.866   2.216 -0.0834 -0.3777  0.1711
 5034SOL    HW217641   7.484   0.945   2.345  2.9458 -0.8576  0.4303
 5035SOL     OW17642   9.244   0.775   3.730  0.5867  0.2391  0.1157
 5035SOL    HW117643   9.294   0.702   3.694  2.2898  1.8263 -0.8417
 5035SOL    HW217644   9.196   0.810   3.655  1.2524  1.2595  0.1605
 5036SOL     OW17645   5.259   1.483   4.799  0.2286  0.1809 -0.0155
 5036SOL    HW117646   5.200   1.516   4.731 -0.6443  1.3273  1.2766
 5036SOL    HW217647   5.330   1.441   4.750 -0.6238  0.5639 -1.6261
 5037SOL     OW17648   7.502   2.717   6.903 -0.7944 -0.6046 -0.2342
 5037SOL    HW117649   7.520   2.784   6.836 -1.5891 -0.4918 -0.3326
 5037SOL    HW217650   7.572   2.652   6.891 -0.6819 -0.3650 -0.8909
 5038SOL     OW17651   0.555   4.156   0.433  0.6913  0.7997  0.4576
 5038SOL    HW117652   0.584   4.206   0.357 -0.6089  0.0748 -0.5266
 5038SOL    HW217653   0.496   4.090   0.398  2.1801 -1.2987  1.7689
 5039SOL     OW17654   2.854   8.585   0.091  0.6457  0.1268  1.0339
 5039SOL    HW117655   2.916   8.634   0.037  0.4081 -0.5647  0.1123
 5039SOL    HW217656   2.908   8.543   0.158  1.2368 -0.7327  0.0410
 5040SOL     OW17657   4.002   8.157   5.809 -0.1933  0.1511  0.2960
 5040SOL    HW117658   3.983   8.152   5.903  2.4934 -1.1931  0.8249
 5040SOL    HW217659   3.983   8.248   5.786 -0.6910  0.5623  2.2108
 5041SOL     OW17660   7.662   9.733   5.738 -0.3144  0.5042 -0.3910
 5041SOL    HW117661   7.757   9.743   5.745 -0.2682 -0.1814  0.0233
 5041SOL    HW217662   7.647   9.639   5.751 -1.1015  0.6970  0.1192
 5042SOL     OW17663   2.425   8.238   8.917 -0.2695 -0.0696 -0.2529
 5042SOL    HW117664   2.462   8.199   8.997 -0.8925  0.1608  0.1571
 5042SOL    HW217665   2.500   8.249   8.859  0.3346  0.5266  0.6192
 5043SOL     OW17666   0.267   2.965   6.804  0.0068 -0.6271 -0.6511
 5043SOL    HW117667   0.268   2.940   6.896  2.2034 -0.9169 -0.7280
 5043SOL    HW217668   0.300   2.888   6.758 -0.5529 -0.2888 -1.6466
 5044SOL     OW17669   0.110   7.675   6.674 -0.3026  0.2991  0.2293
 5044SOL    HW117670   0.043   7.656   6.608 -1.8085  0.7320  1.6054
 5044SOL    HW217671   0.120   7.771   6.671  0.5403  0.2069 -0.2177
 5045SOL     OW17672   6.249   3.096   4.342 -0.9110 -0.1896 -0.5725
 5045SOL    HW117673   6.293   3.020   4.381  1.2362  0.4945 -1.5949
 5045SOL    HW217674   6.230   3.070   4.252  0.4177  0.6907 -1.1218
 5046SOL     OW17675   0.731   4.590   6.762  0.5283  0.4689  0.0764
 5046SOL    HW117676   0.668   4.593   6.691 -0.3110  0.3260  0.8084
 5046SOL    HW217677   0.815   4.573   6.719 -0.2035 -1.1948 -0.7376
 5047SOL     OW17678   8.423   3.798   5.045 -0.2313 -0.2744  0.2675
 5047SOL    HW117679   8.517   3.786   5.044 -0.2544 -0.7958  2.1458
 5047SOL    HW217680   8.410   3.882   5.090 -0.7214 -1.1272  1.7572
 5048SOL     OW17681   8.653   7.824   9.714 -0.3320  0.7523 -0.1382
 5048SOL    HW117682   8.598   7.785   9.781 -0.5144 -4.1102 -2.9159
 5048SOL    HW217683   8.742   7.793   9.734  0.0453  1.5264 -0.5731
 5049SOL     OW17684   9.825   6.064   3.540 -0.7667  1.1552 -0.3811
 5049SOL    HW117685   9.896   6.063   3.604 -2.6675  1.2825  1.7688
 5049SOL    HW217686   9.811   5.972   3.519  1.2012  1.2208 -2.1996
 5050SOL     OW17687   5.415   9.466   7.604  0.0194  0.1406 -0.3202
 5050SOL    HW117688   5.438   9.519   7.681 -1.3848 -1.3204  1.1750
 5050SOL    HW217689   5.496   9.423   7.578  0.7529  1.5383 -0.3681
 5051SOL     OW17690   7.644   2.216   5.576 -0.1993  0.2695  0.2206
 5051SOL    HW117691   7.630   2.160   5.500 -1.4419  0.1112  0.5455
 5051SOL    HW217692   7.708   2.280   5.548  0.7191 -0.8941 -0.3801
 5052SOL     OW17693   9.924   1.092   6.838 -0.0648 -0.5286 -0.2338
 5052SOL    HW117694   9.973   1.097   6.756  1.4370 -1.0869  0.6069
 5052SOL    HW217695   9.855   1.028   6.820 -0.1581 -0.1650 -1.2517
 5053SOL     OW17696   4.349   4.041   5.370 -0.3499 -0.3079 -0.0678
 5053SOL    HW117697   4.352   4.045   5.275 -0.7272  0.1702 -0.0654
 5053SOL    HW217698   4.370   4.130   5.398 -1.7080 -0.0749  0.2509
 5054SOL     OW17699   7.959   0.989   4.861 -0.0533 -0.3395 -0.2887
 5054SOL    HW117700   8.039   0.986   4.808 -0.8408 -1.4246 -1.4284
 5054SOL    HW217701   7.912   1.066   4.828 -0.7988 -1.3191 -1.5845
 5055SOL     OW17702   6.746   8.679   2.425 -0.6205 -0.3302 -0.0091
 5055SOL    HW117703   6.677   8.613   2.416  0.4993 -1.2676 -2.0365
 5055SOL    HW217704   6.718   8.751   2.369 -0.1757 -0.5463 -0.5197
 5056SOL     OW17705   4.360   0.059   7.255 -0.1858  0.0230 -0.1276
 5056SOL    HW117706   4.418   0.067   7.179 -0.7759  1.2471 -0.4462
 5056SOL    HW217707   4.412   0.091   7.328 -0.3361  0.8050 -0.3597
 5057SOL     OW17708   8.032   8.893   5.895  0.1518  0.0390 -0.4989
 5057SOL    HW117709   8.111   8.867   5.849 -1.4387 -0.5970 -2.9864
 5057SOL    HW217710   8.025   8.833   5.968  0.9327 -1.1609 -1.3992
 5058SOL     OW17711   9.817   3.623   5.712 -0.4173  0.9018 -0.2874
 5058SOL    HW117712   9.780   3.699   5.757 -2.1554  0.2183 -0.5331
 5058SOL    HW217713   9.885   3.591   5.773 -0.5951  1.8367  0.4203
 5059SOL     OW17714   5.164   2.112   7.592 -0.2390  0.1448 -0.4819
 5059SOL    HW117715   5.188   2.155   7.674 -0.3106 -0.2738 -0.2355
 5059SOL    HW217716   5.246   2.104   7.544 -0.0419 -0.3865 -0.0711
 5060SOL     OW17717   2.303   6.603   9.442  0.0408 -0.0364  0.4337
 5060SOL    HW117718   2.284   6.647   9.359  0.5914  1.6099  1.1484
 5060SOL    HW217719   2.398   6.609   9.450 -0.0985  0.6166  1.6109
 5061SOL     OW17720   8.347   3.356   1.433  0.1010 -0.5109 -0.2104
 5061SOL    HW117721   8.311   3.335   1.347  0.0940 -2.3465  0.2197
 5061SOL    HW217722   8.408   3.428   1.416 -0.4793 -0.3307 -1.6201
 5062SOL     OW17723   0.640   4.638   7.816  0.0669  0.0502  0.8694
 5062SOL    HW117724   0.659   4.632   7.909  0.4321  0.1993  0.8045
 5062SOL    HW217725   0.723   4.616   7.773  0.0900  0.6825  0.5874
 5063SOL     OW17726   5.541   3.343   6.711  0.0005 -0.1975  0.0686
 5063SOL    HW117727   5.508   3.337   6.622 -0.1625  0.5522  0.0825
 5063SOL    HW217728   5.584   3.428   6.716 -3.4930  1.5635  1.8967
 5064SOL     OW17729   8.007   7.297   6.479  0.0457 -0.2396 -0.2661
 5064SOL    HW117730   8.102   7.288   6.488 -0.1619 -1.9210  0.5344
 5064SOL    HW217731   7.976   7.207   6.466 -1.3471  0.3947 -1.4667
 5065SOL     OW17732   9.637   0.763   8.179 -0.2643  0.5731 -0.0064
 5065SOL    HW117733   9.670   0.812   8.103 -0.2952  0.0282 -0.3743
 5065SOL    HW217734   9.567   0.818   8.213  0.7876  1.5825  0.5836
 5066SOL     OW17735   2.073   6.180   7.256 -0.0778  0.4510 -0.2382
 5066SOL    HW117736   2.109   6.200   7.169  0.0688  2.5016  0.2759
 5066SOL    HW217737   2.149   6.181   7.314 -0.2508 -0.3930  0.0132
 5067SOL     OW17738   3.993   8.228   6.608  0.3016  0.4127 -0.4161
 5067SOL    HW117739   3.956   8.143   6.584  0.1339  0.6665 -1.0692
 5067SOL    HW217740   4.025   8.264   6.526  0.2683  1.0327 -0.1595
 5068SOL     OW17741   7.261   5.843   5.333  0.2072  0.1598  0.0812
 5068SOL    HW117742   7.296   5.920   5.290 -0.1471 -0.2241 -0.9140
 5068SOL    HW217743   7.324   5.822   5.402  1.1037  0.4058 -0.6622
 5069SOL     OW17744   7.479   7.594   8.393 -0.0412 -0.1473 -0.5157
 5069SOL    HW117745   7.396   7.547   8.384  1.1977 -2.3837 -0.7174
 5069SOL    HW217746   7.483   7.616   8.486 -0.2373 -1.2366 -0.2441
 5070SOL     OW17747   8.998   1.245   0.664 -0.0086  0.0378 -0.4580
 5070SOL    HW117748   9.001   1.154   0.634  1.4898  0.3029 -1.1564
 5070SOL    HW217749   8.912   1.277   0.638 -0.3039 -1.0013 -0.7529
 5071SOL     OW17750   5.403   5.246   8.103  0.0824 -0.3718 -0.1456
 5071SOL    HW117751   5.493   5.218   8.090 -0.0573 -0.6977 -0.4094
 5071SOL    HW217752   5.368   5.258   8.015 -0.0683 -0.0470 -0.0430
 5072SOL     OW17753   0.326   6.422   8.640 -0.0883  0.2691  0.4674
 5072SOL    HW117754   0.270   6.475   8.696  0.1076 -1.0051  1.8978
 5072SOL    HW217755   0.402   6.402   8.694  0.3814 -0.4890 -0.4574
 5073SOL     OW17756   7.466   2.562   5.144 -0.2215 -0.3011 -0.4520
 5073SOL    HW117757   7.547   2.605   5.117 -0.3544 -0.0490 -0.4574
 5073SOL    HW217758   7.405   2.635   5.159  0.1560 -0.3553  1.5603
 5074SOL     OW17759   9.601   7.086   2.725 -0.3940  0.3368  0.2774
 5074SOL    HW117760   9.615   7.180   2.715 -3.5609  1.1647  2.8734
 5074SOL    HW217761   9.514   7.071   2.689 -0.6077 -1.3057  1.4361
 5075SOL     OW17762   2.388   2.559   5.058  0.6080  0.8593  0.1740
 5075SOL    HW117763   2.295   2.582   5.058  0.9323  2.2528  2.1039
 5075SOL    HW217764   2.406   2.530   5.147  2.3524  1.9548  0.1967
 5076SOL     OW17765   6.615   4.226   9.324  0.1055  0.0129 -0.6115
 5076SOL    HW117766   6.684   4.292   9.314 -1.6900  2.3008  1.5436
 5076SOL    HW217767   6.570   4.225   9.239  1.7381 -0.3348 -1.4983
 5077SOL     OW17768   9.406   5.890   7.704 -0.0879  0.2177 -0.4139
 5077SOL    HW117769   9.338   5.919   7.765  1.0831  0.3861  0.8469
 5077SOL    HW217770   9.449   5.818   7.750  0.5374  0.0624 -1.2349
 5078SOL     OW17771   7.410   4.468   7.697  0.6493  0.2744 -0.0525
 5078SOL    HW117772   7.356   4.391   7.679  1.9746 -0.2451 -2.0088
 5078SOL    HW217773   7.348   4.540   7.705 -0.5754 -0.9046  1.3364
 5079SOL     OW17774   1.125   4.566   4.748 -0.3329 -0.1565  0.5377
 5079SOL    HW117775   1.047   4.567   4.692 -0.5098  0.0024  0.7881
 5079SOL    HW217776   1.190   4.518   4.697 -0.9171 -1.2055  0.7836
 5080SOL     OW17777  10.069   2.038   8.335 -0.4395  0.3730  0.1230
 5080SOL    HW117778  10.050   1.946   8.317 -0.2456  0.1725  0.9186
 5080SOL    HW217779  10.120   2.037   8.416  0.1637  1.1307 -0.2364
 5081SOL     OW17780   4.138   9.452   8.843  0.6757 -0.0258  0.8011
 5081SOL    HW117781   4.188   9.457   8.761  0.4921  1.0834  0.7514
 5081SOL    HW217782   4.185   9.387   8.896 -0.9667 -3.1391 -1.3711
 5082SOL     OW17783   5.053   1.832   2.803 -0.2488 -0.0915  0.9501
 5082SOL    HW117784   4.965   1.842   2.767 -0.0864 -0.2612  0.4993
 5082SOL    HW217785   5.065   1.737   2.810 -0.5141 -0.0503  2.0411
 5083SOL     OW17786   1.837   8.471   6.581 -0.0007 -0.5162 -0.3707
 5083SOL    HW117787   1.911   8.521   6.545  0.9945 -2.2968 -0.8711
 5083SOL    HW217788   1.774   8.467   6.509  0.1236 -0.3857 -0.4889
 5084SOL     OW17789   6.783   5.925   2.671 -0.2999 -0.5796  0.5715
 5084SOL    HW117790   6.854   5.906   2.733  0.1698  1.0828  0.5532
 5084SOL    HW217791   6.724   5.983   2.718 -0.0355  0.5451 -0.4596
 5085SOL     OW17792   2.012   3.897   3.113 -0.0907  0.7343  0.1191
 5085SOL    HW117793   2.031   3.991   3.118  1.9536  0.3422 -0.2362
 5085SOL    HW217794   1.925   3.893   3.073 -0.5717  2.5025  0.9281
 5086SOL     OW17795   7.470   1.587   6.721  0.4025  0.0192 -0.2277
 5086SOL    HW117796   7.393   1.632   6.755 -0.2603 -1.1399 -0.1865
 5086SOL    HW217797   7.438   1.502   6.691  1.3646  0.1626 -1.7467
 5087SOL     OW17798   5.457   8.042   4.540  0.2427  0.0044  0.5008
 5087SOL    HW117799   5.433   7.959   4.581 -1.0193 -0.6827 -1.5914
 5087SOL    HW217800   5.530   8.020   4.482 -0.2762  0.2927 -0.2691
 5088SOL     OW17801   7.359   3.002   3.762 -0.2340 -0.0368 -0.7407
 5088SOL    HW117802   7.321   2.953   3.690 -0.2088 -1.1237 -0.0237
 5088SOL    HW217803   7.443   3.034   3.728  0.4396 -1.7663 -0.7231
 5089SOL     OW17804   7.851   3.760   3.619 -0.5420  0.2003  0.5923
 5089SOL    HW117805   7.926   3.718   3.661 -0.0382  2.1568  1.6875
 5089SOL    HW217806   7.796   3.687   3.590 -0.1261 -1.2371  3.2629
 5090SOL     OW17807   2.276   1.560   6.049 -0.2002 -0.2268 -0.2106
 5090SOL    HW117808   2.319   1.631   6.096  1.4594 -1.2933 -0.0722
 5090SOL    HW217809   2.220   1.604   5.985  0.8200  1.2100 -0.1423
 5091SOL     OW17810   5.670   4.497   2.410  0.4896 -0.0438  0.5368
 5091SOL    HW117811   5.643   4.475   2.321 -1.1453  1.3057  0.6816
 5091SOL    HW217812   5.764   4.478   2.411  0.8965  1.5799 -1.9992
 5092SOL     OW17813   5.556   5.117   4.280  0.0354  0.0144 -0.2857
 5092SOL    HW117814   5.585   5.205   4.304 -0.6609  0.5050 -1.2313
 5092SOL    HW217815   5.527   5.079   4.363 -3.9369  2.3035 -0.5053
 5093SOL     OW17816   2.609   7.200   7.693 -0.2277 -0.2863  0.3554
 5093SOL    HW117817   2.626   7.236   7.606  0.4891 -0.5890  0.3680
 5093SOL    HW217818   2.637   7.269   7.754 -0.2703 -0.2683  0.3556
 5094SOL     OW17819   0.102   5.230   0.234  0.3370 -0.1439 -0.0781
 5094SOL    HW117820   0.105   5.324   0.215 -1.4617 -0.1724 -0.5912
 5094SOL    HW217821   0.075   5.190   0.151 -1.4907 -0.8601  0.8388
 5095SOL     OW17822   0.421   7.683   5.056 -0.6968  0.1010 -0.0681
 5095SOL    HW117823   0.423   7.763   5.109 -0.6666 -1.2788  2.1123
 5095SOL    HW217824   0.410   7.713   4.966  2.2324  2.7193  0.3534
 5096SOL     OW17825   9.757   9.160   0.603 -0.1248  0.2604  0.2178
 5096SOL    HW117826   9.797   9.084   0.561  1.2295 -0.6829  3.0689
 5096SOL    HW217827   9.811   9.234   0.574  0.9837 -0.4164  0.5181
 5097SOL     OW17828   9.086   0.453   6.110  0.6223  0.5036 -0.2494
 5097SOL    HW117829   9.161   0.399   6.132  1.2581  1.5314  0.1743
 5097SOL    HW217830   9.014   0.417   6.163  1.6051  1.5206  1.8467
 5098SOL     OW17831   3.206   6.055   0.006  0.6026 -0.4332 -0.0380
 5098SOL    HW117832   3.226   6.104  -0.074 -2.9519  0.4590 -0.4563
 5098SOL    HW217833   3.183   6.121   0.071 -0.5075 -1.3159  0.5023
 5099SOL     OW17834   9.758   8.162   0.676 -0.1507 -0.3438  0.0717
 5099SOL    HW117835   9.667   8.153   0.648 -0.4787 -1.4351  1.3807
 5099SOL    HW217836   9.757   8.235   0.737  0.2090  0.8342 -1.3212
 5100SOL     OW17837   4.527   3.920   3.616  0.1145  0.3492 -0.1133
 5100SOL    HW117838   4.580   3.880   3.685 -0.2335  1.2049  0.6721
 5100SOL    HW217839   4.467   3.978   3.664 -1.9130 -1.0444 -0.9368
 5101SOL     OW17840   7.705   8.650   5.675  0.1455 -0.3817  0.6004
 5101SOL    HW117841   7.787   8.624   5.632 -0.4753  0.6010 -1.2375
 5101SOL    HW217842   7.730   8.669   5.765  1.4889 -2.4730  0.6968
 5102SOL     OW17843   3.333   2.050   1.726  0.3072  0.0548  0.3893
 5102SOL    HW117844   3.393   2.111   1.769  0.9631  0.8812 -1.5984
 5102SOL    HW217845   3.247   2.090   1.734  0.7724  1.3941 -1.1163
 5103SOL     OW17846   3.386   2.486   4.074 -0.2542 -0.1309  0.6973
 5103SOL    HW117847   3.453   2.463   4.010  1.1999  0.1593  2.0784
 5103SOL    HW217848   3.355   2.572   4.046 -1.7462 -1.2669 -1.2826
 5104SOL     OW17849   3.152   2.350   2.360  0.4343 -0.5769  0.0435
 5104SOL    HW117850   3.090   2.409   2.318  0.1629 -1.5927 -1.0330
 5104SOL    HW217851   3.220   2.407   2.396 -0.9245  0.5210  0.9080
 5105SOL     OW17852  10.010   2.335   8.868 -0.5539 -0.0706 -0.6826
 5105SOL    HW117853   9.926   2.289   8.877  0.8863 -2.7883 -0.6275
 5105SOL    HW217854  10.037   2.352   8.958 -1.4059  1.5361 -0.7149
 5106SOL     OW17855   4.479   2.447   7.328  0.1587  0.0919 -0.7420
 5106SOL    HW117856   4.557   2.393   7.341 -0.0495 -0.0235  0.0455
 5106SOL    HW217857   4.452   2.472   7.416 -0.7903 -0.0027 -0.9977
 5107SOL     OW17858   7.825   4.618   7.972 -0.0556  0.0220  0.1563
 5107SOL    HW117859   7.762   4.565   7.923 -1.4240  1.8294 -0.0923
 5107SOL    HW217860   7.779   4.642   8.052  0.1725  1.6806 -0.1993
 5108SOL     OW17861   8.421   4.176   2.564 -0.4871 -0.2576  0.0162
 5108SOL    HW117862   8.510   4.189   2.596 -1.0499  0.3845  1.3618
 5108SOL    HW217863   8.415   4.235   2.489 -0.8960  2.4435  2.0941
 5109SOL     OW17864   4.128   6.309   6.411  0.1056 -0.3326  0.0030
 5109SOL    HW117865   4.191   6.306   6.483 -1.0345 -1.5001  0.9791
 5109SOL    HW217866   4.165   6.253   6.343 -0.4773 -2.0442  1.0845
 5110SOL     OW17867   5.253   5.695   4.191  0.5736  0.5446  0.0917
 5110SOL    HW117868   5.273   5.679   4.099  1.6562  0.8408  0.2636
 5110SOL    HW217869   5.162   5.667   4.201  0.3504  0.7855 -1.1290
 5111SOL     OW17870   7.139   5.843   8.707 -0.0124  0.7133 -0.1134
 5111SOL    HW117871   7.198   5.822   8.779  0.8698  1.0134 -0.7370
 5111SOL    HW217872   7.136   5.762   8.655 -0.5086  0.5515  0.1728
 5112SOL     OW17873   6.586   1.603   4.736  0.0088 -0.6072  0.1152
 5112SOL    HW117874   6.576   1.686   4.689  0.0719 -0.1558  0.8872
 5112SOL    HW217875   6.648   1.553   4.683 -0.8213 -0.5738 -0.8985
 5113SOL     OW17876   4.118   2.075   2.507  0.0527 -0.2368 -0.2182
 5113SOL    HW117877   4.057   2.141   2.474 -0.7159 -1.6781 -1.7514
 5113SOL    HW217878   4.204   2.115   2.496 -0.4613  0.8956 -0.2231
 5114SOL     OW17879   0.521   6.945   5.986  0.0685 -0.2548 -0.7451
 5114SOL    HW117880   0.602   6.921   6.031  0.5807  1.8508 -0.4793
 5114SOL    HW217881   0.489   7.022   6.033 -2.0601 -1.0276 -0.8906
 5115SOL     OW17882   6.076   0.393   8.329  0.2083 -0.1330  0.3968
 5115SOL    HW117883   5.986   0.360   8.331  0.2968 -0.3133  1.5655
 5115SOL    HW217884   6.078   0.453   8.254 -0.7322 -0.5445  0.0328
 5116SOL     OW17885   9.610   5.594   5.051  0.4177  0.0065  0.0375
 5116SOL    HW117886   9.594   5.638   4.967 -0.5681 -1.6523 -0.6710
 5116SOL    HW217887   9.701   5.615   5.071  0.4951  0.9155 -1.1455
 5117SOL     OW17888   7.917   4.390   9.822  0.1050 -0.1133 -0.5159
 5117SOL    HW117889   7.823   4.389   9.802  0.1831 -1.7449 -0.8083
 5117SOL    HW217890   7.923   4.435   9.907 -0.9853 -0.3875 -0.2878
 5118SOL     OW17891   7.689   6.921   0.086 -0.1750  0.0161 -0.3842
 5118SOL    HW117892   7.663   6.879   0.168  0.2531  0.9871  0.2515
 5118SOL    HW217893   7.643   6.871   0.018 -0.5053 -0.8115  0.4393
 5119SOL     OW17894   9.143   2.454   5.044  0.2008  0.6066  0.3018
 5119SOL    HW117895   9.188   2.370   5.056 -0.1159  0.5360  1.0109
 5119SOL    HW217896   9.210   2.513   5.010  0.0573 -0.3524 -1.7366
 5120SOL     OW17897   2.389   3.291   1.762  0.2934  0.0932  0.0314
 5120SOL    HW117898   2.478   3.326   1.770  0.3364  0.0239 -0.1706
 5120SOL    HW217899   2.375   3.281   1.668  0.6386 -1.3742  0.1331
 5121SOL     OW17900   2.421   6.198   9.071  0.0618  0.1705  0.2491
 5121SOL    HW117901   2.351   6.138   9.098 -0.1436  0.7660  1.0841
 5121SOL    HW217902   2.377   6.263   9.017  0.1163  0.0781  0.0965
 5122SOL     OW17903   3.238   2.149   0.479  0.5166  0.1007 -0.2541
 5122SOL    HW117904   3.200   2.063   0.462 -2.3056  1.5284 -1.5150
 5122SOL    HW217905   3.301   2.162   0.409 -1.7114  0.5202 -2.2670
 5123SOL     OW17906   0.300   3.153   9.976 -0.7716  0.0655  0.0491
 5123SOL    HW117907   0.287   3.247   9.993 -0.2555  0.2986 -0.8286
 5123SOL    HW217908   0.212   3.115   9.985 -1.1080  0.7418 -0.2857
 5124SOL     OW17909  10.139   5.247   8.804 -0.8026 -0.3449 -0.0560
 5124SOL    HW117910  10.229   5.227   8.776 -1.2077  0.1492 -1.8098
 5124SOL    HW217911  10.145   5.260   8.898  0.9830 -0.3270 -0.1560
 5125SOL     OW17912   6.717   0.510   4.155  0.6500 -0.1235 -0.2362
 5125SOL    HW117913   6.683   0.445   4.094  1.2229 -0.3496 -0.3167
 5125SOL    HW217914   6.799   0.541   4.114 -0.4214  1.8148 -1.0010
 5126SOL     OW17915   5.230   1.665   4.441 -0.0714  0.3452  0.4247
 5126SOL    HW117916   5.325   1.666   4.453 -0.4651  0.9893  4.0593
 5126SOL    HW217917   5.208   1.756   4.421 -0.2567  0.9607  3.2068
 5127SOL     OW17918   4.002   2.411   6.812  0.0369 -0.0493  0.6896
 5127SOL    HW117919   3.980   2.447   6.726  0.9043  0.8842  0.8518
 5127SOL    HW217920   4.097   2.401   6.811 -0.0133 -0.7016  1.2947
 5128SOL     OW17921   4.411   0.432   6.505  0.2079 -0.2393 -0.5415
 5128SOL    HW117922   4.474   0.467   6.568  0.1474  1.8745 -1.5995
 5128SOL    HW217923   4.439   0.467   6.421 -1.6999 -0.2170 -1.1997
 5129SOL     OW17924   7.447   8.272   7.484  0.1824 -0.0633  0.4310
 5129SOL    HW117925   7.388   8.296   7.412  0.3753  0.1306  0.3358
 5129SOL    HW217926   7.403   8.304   7.562  0.7610  1.2331  0.2409
 5130SOL     OW17927   1.392   6.336   4.266 -0.1549  0.8026 -0.3209
 5130SOL    HW117928   1.379   6.247   4.233 -2.8907  0.6687  0.9610
 5130SOL    HW217929   1.485   6.352   4.254  0.4476 -2.3125 -0.4042
 5131SOL     OW17930   4.909   8.584   2.174 -0.3430  0.5252  0.1347
 5131SOL    HW117931   4.906   8.534   2.092 -1.5529 -2.0597  1.7320
 5131SOL    HW217932   4.836   8.646   2.167 -1.4563 -0.7899 -0.0674
 5132SOL     OW17933   1.836   3.413   4.070 -0.7440  0.2942 -0.0998
 5132SOL    HW117934   1.818   3.375   3.983  2.4972 -1.9169  0.1121
 5132SOL    HW217935   1.910   3.472   4.055  1.2657 -1.7307  1.4605
 5133SOL     OW17936   4.492   2.047   2.585 -0.5789 -0.1141  0.3108
 5133SOL    HW117937   4.554   2.016   2.520 -0.0890  0.4677  0.4986
 5133SOL    HW217938   4.466   2.134   2.555  0.7918  0.7893  1.6606
 5134SOL     OW17939   5.986   2.155   0.660  0.0520  0.1091 -0.4155
 5134SOL    HW117940   6.047   2.185   0.727 -1.2754  1.3737  0.2599
 5134SOL    HW217941   5.971   2.232   0.605  0.0599 -0.5425 -1.3349
 5135SOL     OW17942   6.611   1.264   7.756  0.0403 -0.1813 -0.2155
 5135SOL    HW117943   6.652   1.206   7.820  2.6323  0.4466 -1.2721
 5135SOL    HW217944   6.612   1.215   7.674  0.3262  0.5289 -0.6433
 5136SOL     OW17945   7.631   9.298   6.856 -0.1933 -0.0168  0.1824
 5136SOL    HW117946   7.623   9.371   6.794  1.4915 -0.8216 -0.9950
 5136SOL    HW217947   7.598   9.334   6.939 -1.5878  1.3516 -0.9327
 5137SOL     OW17948   9.679   6.819   8.019  0.2679 -0.2424  0.5300
 5137SOL    HW117949   9.584   6.822   8.030  0.1585  0.5288 -0.5817
 5137SOL    HW217950   9.711   6.781   8.101 -0.9335  0.2106  1.2291
 5138SOL     OW17951   1.137   7.377   5.540  0.5230 -0.2893  0.3461
 5138SOL    HW117952   1.085   7.452   5.567 -0.3119 -1.2835  1.5754
 5138SOL    HW217953   1.099   7.350   5.456  2.4064  2.1244 -1.3683
 5139SOL     OW17954   6.288   4.847   2.783 -0.0785  0.5206 -0.0073
 5139SOL    HW117955   6.377   4.881   2.774 -0.3141  1.1685  0.0844
 5139SOL    HW217956   6.285   4.771   2.724  0.3676  0.8233 -0.4216
 5140SOL     OW17957   8.391   4.357   2.347  0.8285 -0.0954  0.2361
 5140SOL    HW117958   8.366   4.446   2.372 -0.0482 -0.1421 -0.4357
 5140SOL    HW217959   8.373   4.353   2.253  2.7908 -0.3470 -0.1348
 5141SOL     OW17960   1.461   2.956   6.375 -0.0288  0.4216 -0.3172
 5141SOL    HW117961   1.510   2.907   6.310  0.7951 -0.6803  1.0931
 5141SOL    HW217962   1.383   2.903   6.392 -0.0555  0.5188 -0.1348
 5142SOL     OW17963   5.604   5.309   1.150  0.0168  0.1961 -0.8905
 5142SOL    HW117964   5.657   5.260   1.212 -0.7423 -0.2793 -0.6015
 5142SOL    HW217965   5.631   5.400   1.160 -0.3476  0.1688  0.3940
 5143SOL     OW17966   5.994   7.377   3.435  0.1161  0.7438  0.1503
 5143SOL    HW117967   6.083   7.394   3.403  0.6030 -1.4631  0.2577
 5143SOL    HW217968   6.004   7.366   3.529 -0.2598  0.5342  0.1676
 5144SOL     OW17969   4.597   0.771   0.793 -0.4289 -0.0939  0.2625
 5144SOL    HW117970   4.532   0.714   0.834 -2.5995  0.3391 -2.3711
 5144SOL    HW217971   4.584   0.856   0.834 -1.7002  0.0366 -0.3859
 5145SOL     OW17972   7.430   6.793   9.881 -0.2383  0.0986 -0.9869
 5145SOL    HW117973   7.393   6.856   9.820 -0.7961 -0.7357 -1.5165
 5145SOL    HW217974   7.493   6.743   9.829 -0.1104 -0.0730 -0.6712
 5146SOL     OW17975   6.056   2.953   4.035  0.2786  0.3356 -0.4508
 5146SOL    HW117976   5.999   2.909   4.097  0.0567  0.7955 -0.3327
 5146SOL    HW217977   6.028   3.044   4.035 -0.3292  0.1676 -1.9036
 5147SOL     OW17978   8.928   7.318   4.871  0.5413  0.4849 -0.3368
 5147SOL    HW117979   8.972   7.235   4.853  0.2957 -0.0615  1.4468
 5147SOL    HW217980   8.927   7.324   4.966  1.3250  2.9610 -0.4492
 5148SOL     OW17981   7.010   3.507   6.127 -0.3575  0.8771  0.5483
 5148SOL    HW117982   6.951   3.541   6.060 -2.3228  0.0020  1.7888
 5148SOL    HW217983   7.053   3.584   6.163 -1.3987  1.6261  0.2149
 5149SOL     OW17984   7.296   5.526   6.437  0.0345 -0.8688  0.6873
 5149SOL    HW117985   7.290   5.587   6.510 -1.3188 -0.2720  0.0808
 5149SOL    HW217986   7.294   5.581   6.359  0.2931 -1.5868  0.1671
 5150SOL     OW17987   3.915   4.719   7.141  0.5816  0.1649 -0.0501
 5150SOL    HW117988   3.854   4.715   7.068 -0.3788 -0.1566  0.7643
 5150SOL    HW217989   3.984   4.657   7.118  1.1474  1.2736 -1.4456
 5151SOL     OW17990   5.909   1.396   8.225  0.0685 -0.0815 -0.3320
 5151SOL    HW117991   5.837   1.411   8.163  1.1169  0.8409 -1.3741
 5151SOL    HW217992   5.922   1.481   8.267 -0.2485 -0.5574  0.7469
 5152SOL     OW17993   6.656   3.512   9.922 -0.0254 -0.2614  0.1527
 5152SOL    HW117994   6.731   3.479   9.971 -0.0330 -1.1540 -0.4273
 5152SOL    HW217995   6.614   3.433   9.886 -0.9022  0.2695 -0.0114
 5153SOL     OW17996   8.147   2.148   6.966  0.0336 -0.2894  0.4114
 5153SOL    HW117997   8.073   2.088   6.962  1.2181 -1.6942 -0.4728
 5153SOL    HW217998   8.169   2.152   7.060 -0.5870 -0.5482  0.5707
 5154SOL     OW17999   9.159   3.092   5.549 -0.5578 -0.1435 -0.5585
 5154SOL    HW118000   9.193   3.134   5.471  0.8026  0.3111  0.2600
 5154SOL    HW218001   9.210   3.011   5.558 -0.3363  0.0656  0.1422
 5155SOL     OW18002   3.680   6.680   3.845  0.2296  0.2660 -0.0209
 5155SOL    HW118003   3.620   6.660   3.773  1.4690 -1.7430 -0.5327
 5155SOL    HW218004   3.767   6.667   3.808  0.8884 -1.0813  1.9287
 5156SOL     OW18005   8.511   4.775   2.524 -0.1065  0.4674  0.1361
 5156SOL    HW118006   8.461   4.819   2.593 -1.1361 -0.7914  0.2038
 5156SOL    HW218007   8.446   4.730   2.471  0.9181 -1.0008  0.0786
 5157SOL     OW18008   3.464   7.233   1.370  0.6149  0.0873  0.2472
 5157SOL    HW118009   3.549   7.195   1.347 -0.1847 -2.9571  1.9930
 5157SOL    HW218010   3.462   7.230   1.466 -1.7081 -0.5272  0.2124
 5158SOL     OW18011   5.352   9.929   9.481  0.4349  0.5083  0.2561
 5158SOL    HW118012   5.303   9.946   9.561 -1.6471  1.4711 -1.1739
 5158SOL    HW218013   5.294   9.874   9.428  1.5347  0.3575 -0.8262
 5159SOL     OW18014   5.794   7.741   4.254  0.0638  0.0670 -0.1844
 5159SOL    HW118015   5.783   7.772   4.164  0.8908  1.0225  0.0328
 5159SOL    HW218016   5.795   7.645   4.246  0.0980  0.1427 -1.1833
 5160SOL     OW18017   3.871   8.640   0.794 -0.4006  0.2461 -0.5424
 5160SOL    HW118018   3.876   8.551   0.829  0.3607  0.6746  0.4430
 5160SOL    HW218019   3.962   8.669   0.789 -0.5463  0.4650 -2.1807
 5161SOL     OW18020   7.931   9.745   5.798 -0.3351 -0.6476 -0.0119
 5161SOL    HW118021   7.973   9.768   5.715 -0.9786 -0.1785 -0.2059
 5161SOL    HW218022   7.995   9.687   5.841  1.1530  1.2345  0.3587
 5162SOL     OW18023   6.590   6.578   8.500 -0.5779 -0.0773 -0.1462
 5162SOL    HW118024   6.590   6.485   8.521 -3.1776 -0.2772 -0.7959
 5162SOL    HW218025   6.668   6.591   8.445 -0.0990 -1.8193  0.0954
 5163SOL     OW18026   4.819   2.124   1.356  0.4695  0.6413  0.0279
 5163SOL    HW118027   4.837   2.030   1.364  1.2569  0.8346  0.6786
 5163SOL    HW218028   4.724   2.130   1.349  0.5276 -0.3390 -2.0995
 5164SOL     OW18029   8.509   4.940   7.152 -0.5340  0.7985 -0.1594
 5164SOL    HW118030   8.568   4.985   7.213 -0.1721 -0.0196  0.0979
 5164SOL    HW218031   8.430   4.995   7.152 -1.0289  0.1573  2.0205
 5165SOL     OW18032   8.545   3.730   9.700 -0.1797  0.1714  0.4930
 5165SOL    HW118033   8.558   3.763   9.788 -1.8861  0.9224  0.4785
 5165SOL    HW218034   8.452   3.708   9.696  0.1469 -1.1003 -0.7037
 5166SOL     OW18035   5.529   8.554   7.867 -0.5316 -0.3878 -0.4661
 5166SOL    HW118036   5.550   8.646   7.881  1.9903 -1.0698  0.6354
 5166SOL    HW218037   5.560   8.536   7.778  0.4071 -0.5364 -0.1143
 5167SOL     OW18038   4.148   1.522   9.907  0.2544 -0.0608 -0.2577
 5167SOL    HW118039   4.149   1.566   9.823  1.6418 -0.5208 -0.4895
 5167SOL    HW218040   4.225   1.554   9.953 -0.1563 -0.2766  0.6049
 5168SOL     OW18041   3.533   0.547   8.402 -0.0245 -0.3727 -0.0171
 5168SOL    HW118042   3.472   0.582   8.468 -1.2700  1.6503 -2.1617
 5168SOL    HW218043   3.478   0.500   8.341  0.9735 -1.1958 -0.2919
 5169SOL     OW18044   9.805   6.794   8.293 -0.1578 -0.1609 -0.0677
 5169SOL    HW118045   9.871   6.855   8.258 -0.2341 -0.0668 -0.0496
 5169SOL    HW218046   9.818   6.798   8.388  0.7464 -1.2018 -0.1377
 5170SOL     OW18047   7.338   2.203   5.040 -0.1687 -0.8946 -0.9010
 5170SOL    HW118048   7.375   2.184   4.954  0.7590 -1.0329 -0.4739
 5170SOL    HW218049   7.267   2.264   5.023  0.7384 -0.0385 -1.6544
 5171SOL     OW18050   3.552   5.927   3.968 -0.6296 -0.2310  0.3458
 5171SOL    HW118051   3.495   5.863   3.925  0.1877 -0.2367 -0.7572
 5171SOL    HW218052   3.552   5.901   4.060 -1.2956 -1.0618  0.1207
 5172SOL     OW18053   8.316   4.298   6.972  0.4305  0.0217  0.2255
 5172SOL    HW118054   8.368   4.303   7.052 -1.2792  0.2618  1.3503
 5172SOL    HW218055   8.308   4.205   6.953  2.8138  0.0422 -1.0084
 5173SOL     OW18056   0.376   2.393   7.362 -0.3453  0.1805 -0.1240
 5173SOL    HW118057   0.455   2.428   7.321 -0.5213  1.1115  0.3253
 5173SOL    HW218058   0.358   2.312   7.315  0.4124  0.3902 -0.7713
 5174SOL     OW18059   8.945   7.414   6.151 -0.9696 -0.0538  0.2688
 5174SOL    HW118060   8.987   7.381   6.071 -0.3034 -0.1236  0.6538
 5174SOL    HW218061   9.011   7.405   6.219 -1.6549 -0.3035  0.9018
 5175SOL     OW18062   4.307   0.240   5.431 -0.1928  0.2575  0.3022
 5175SOL    HW118063   4.255   0.163   5.455  0.0468  0.2166  0.7045
 5175SOL    HW218064   4.298   0.299   5.506  0.1284  0.3599  0.2594
 5176SOL     OW18065   6.053   5.768   9.119 -0.5088 -0.0428  0.2729
 5176SOL    HW118066   6.141   5.805   9.124 -0.3914 -0.4386  1.0891
 5176SOL    HW218067   6.067   5.674   9.104 -0.7994 -0.0363 -0.0693
 5177SOL     OW18068   0.051   4.377   5.485  0.7749  0.0099  0.0190
 5177SOL    HW118069  -0.014   4.447   5.483  0.5092 -0.2501 -0.2888
 5177SOL    HW218070   0.026   4.318   5.415  0.5108 -0.8353  0.8109
 5178SOL     OW18071   9.839   0.750   0.605  0.3606  0.5185 -0.3556
 5178SOL    HW118072   9.876   0.828   0.647  0.2193  0.1721  0.4116
 5178SOL    HW218073   9.881   0.677   0.648 -0.8752  0.1254  0.2039
 5179SOL     OW18074   7.531   4.657   9.538  0.1789 -0.2386  0.1276
 5179SOL    HW118075   7.520   4.637   9.445 -1.7610  1.2526 -0.0100
 5179SOL    HW218076   7.553   4.750   9.540 -2.4776  0.4306  1.2325
 5180SOL     OW18077   5.735   7.994   8.729  0.1766  0.7379 -0.4130
 5180SOL    HW118078   5.657   8.031   8.687 -0.2853 -1.0652 -1.2022
 5180SOL    HW218079   5.768   7.930   8.666  0.0668 -1.3027  1.5318
 5181SOL     OW18080   5.094   6.392   3.601  0.7453 -0.5599 -0.3426
 5181SOL    HW118081   5.085   6.303   3.636  1.1564  0.1208  1.5419
 5181SOL    HW218082   5.043   6.391   3.521 -1.2322 -1.8379  0.8905
 5182SOL     OW18083   0.323   1.084   9.679 -0.0402 -0.3609  0.5021
 5182SOL    HW118084   0.303   1.137   9.756 -1.4374 -1.2146  0.7348
 5182SOL    HW218085   0.311   1.143   9.605  1.3411  0.4711  0.9222
 5183SOL     OW18086   0.148   3.576   0.318  0.2752 -0.0251  0.1076
 5183SOL    HW118087   0.122   3.486   0.294 -0.7075  0.2484  0.1022
 5183SOL    HW218088   0.210   3.602   0.250 -0.2264 -0.3304 -0.4781
 5184SOL     OW18089   1.627   6.079   4.966 -0.2820 -0.2725  0.0254
 5184SOL    HW118090   1.711   6.126   4.959 -0.1936 -0.4676 -0.2217
 5184SOL    HW218091   1.596   6.099   5.055 -0.5051  0.6891 -0.2625
 5185SOL     OW18092   8.703   8.996   8.060 -0.6921  0.3956 -0.3236
 5185SOL    HW118093   8.688   9.080   8.104  1.6674 -0.2393  1.8165
 5185SOL    HW218094   8.775   9.014   7.999 -0.5583  0.0637 -0.2620
 5186SOL     OW18095   5.617   5.500   8.194  0.2330  0.0576  0.6873
 5186SOL    HW118096   5.617   5.415   8.150 -1.6141 -0.1174  0.9821
 5186SOL    HW218097   5.636   5.480   8.285 -0.5327 -0.0818  0.8190
 5187SOL     OW18098   5.566   6.777   5.589 -0.5897  0.0642 -0.3091
 5187SOL    HW118099   5.484   6.826   5.577 -1.0476 -0.3480  0.9555
 5187SOL    HW218100   5.623   6.837   5.636 -0.4961  0.0383 -0.3913
 5188SOL     OW18101   5.716   0.933   8.737 -0.4694  0.0993 -0.0566
 5188SOL    HW118102   5.795   0.985   8.720 -0.5602 -0.2119 -1.4565
 5188SOL    HW218103   5.745   0.842   8.732 -1.0335 -0.0249 -1.1811
 5189SOL     OW18104   1.312   1.546   3.516  0.5335  1.0599  0.2601
 5189SOL    HW118105   1.225   1.565   3.481 -0.7278 -0.5929  2.3943
 5189SOL    HW218106   1.354   1.492   3.448 -0.1916  1.6636 -0.6743
 5190SOL     OW18107   2.495   5.694   6.737 -0.5239 -0.2531 -0.6302
 5190SOL    HW118108   2.580   5.652   6.738 -1.4150 -2.0901  0.1879
 5190SOL    HW218109   2.512   5.783   6.707  1.4391 -1.0882 -2.0798
 5191SOL     OW18110   5.858   6.011   4.624  0.2393 -0.0824 -0.6089
 5191SOL    HW118111   5.818   5.941   4.571  0.2569  0.0908 -0.8534
 5191SOL    HW218112   5.824   5.997   4.712  0.3527 -0.4850 -0.6299
 5192SOL     OW18113   2.023   0.663   9.810 -0.2052 -0.0938 -0.3502
 5192SOL    HW118114   2.059   0.739   9.854  0.8412 -0.8186  0.0635
 5192SOL    HW218115   1.929   0.667   9.828 -0.1034  0.9113 -0.0530
 5193SOL     OW18116   1.495   0.994   4.450 -0.0837 -0.0646  0.1368
 5193SOL    HW118117   1.581   0.953   4.462  1.6398  3.1386 -0.5454
 5193SOL    HW218118   1.481   0.995   4.356 -1.3649 -1.4863  0.3015
 5194SOL     OW18119   3.984   2.217   4.111  0.5485  0.0130  0.4916
 5194SOL    HW118120   4.019   2.296   4.070  0.7264  0.2140  1.0197
 5194SOL    HW218121   4.055   2.187   4.168  0.4935 -0.5484  0.2660
 5195SOL     OW18122   9.298   5.249   1.388  0.1000  0.2040 -0.2759
 5195SOL    HW118123   9.325   5.312   1.454 -0.0567 -0.5501  0.5246
 5195SOL    HW218124   9.256   5.301   1.320  1.3384  1.1154 -0.3538
 5196SOL     OW18125   6.729   4.350   4.151  0.5839 -0.1003 -0.1939
 5196SOL    HW118126   6.747   4.338   4.244  2.0842 -1.7603 -0.6651
 5196SOL    HW218127   6.637   4.379   4.147  0.7606  0.7803  1.8211
 5197SOL     OW18128   9.659   8.465   3.448  0.2485 -0.0826  0.3045
 5197SOL    HW118129   9.624   8.380   3.474  0.4255 -0.0728  0.5733
 5197SOL    HW218130   9.747   8.446   3.417 -0.2176 -0.2018 -0.9974
 5198SOL     OW18131   5.119   8.385   9.510 -0.4040 -0.1885  0.3133
 5198SOL    HW118132   5.074   8.305   9.481  0.9641 -0.6009 -0.7431
 5198SOL    HW218133   5.201   8.385   9.460  0.5152  0.8229  1.8019
 5199SOL     OW18134   1.064   7.615   0.795 -1.1326  0.1221  0.5277
 5199SOL    HW118135   1.036   7.683   0.734  0.3114  1.4762  1.3075
 5199SOL    HW218136   1.085   7.663   0.875  2.6680 -0.8263  0.1933
 5200SOL     OW18137   1.826   1.400   1.893 -0.0282 -0.1221  0.6288
 5200SOL    HW118138   1.887   1.369   1.960 -0.0554 -0.5581  0.4555
 5200SOL    HW218139   1.812   1.323   1.837 -0.9200 -0.0922  0.8070
 5201SOL     OW18140   0.018   7.658   8.699 -0.5733 -0.0911  0.3581
 5201SOL    HW118141  -0.011   7.715   8.770 -1.3298 -0.6348  0.4882
 5201SOL    HW218142   0.082   7.600   8.740 -0.7750 -0.1979  0.5197
 5202SOL     OW18143   4.405   6.890   8.987  0.1210  0.4391  0.3964
 5202SOL    HW118144   4.408   6.951   8.913 -0.0861 -0.6302 -0.5037
 5202SOL    HW218145   4.489   6.845   8.984 -0.5497 -0.8062 -0.2319
 5203SOL     OW18146   5.478   6.937   4.239 -0.3570 -0.0936  0.1892
 5203SOL    HW118147   5.418   6.878   4.193 -3.1314  2.8941 -0.2057
 5203SOL    HW218148   5.427   6.970   4.313  1.6141  0.7470  1.2001
 5204SOL     OW18149   9.369   8.095  10.011  0.0230 -0.5240 -0.2064
 5204SOL    HW118150   9.456   8.108  10.050 -0.0493  1.1953 -0.5644
 5204SOL    HW218151   9.370   8.149   9.932 -1.6384  0.1396  0.2050
 5205SOL     OW18152   3.715   9.468   9.309  0.4371  1.2026 -0.0846
 5205SOL    HW118153   3.773   9.408   9.261 -1.1751 -0.0159 -0.5274
 5205SOL    HW218154   3.750   9.555   9.289  1.0113  0.5876 -1.8307
 5206SOL     OW18155   2.276   9.817   2.864 -0.1846 -0.4201  0.0051
 5206SOL    HW118156   2.333   9.817   2.788 -0.1754  0.2036  0.0108
 5206SOL    HW218157   2.273   9.908   2.892  1.9497 -1.0242  2.3554
 5207SOL     OW18158   0.529   8.991   3.081  0.1970  0.2211  0.2829
 5207SOL    HW118159   0.621   8.972   3.066 -0.3403 -2.0032 -0.4702
 5207SOL    HW218160   0.523   9.087   3.078  2.3080  0.3554 -0.5787
 5208SOL     OW18161   0.603   1.173   2.971 -0.1923 -0.5512  0.5847
 5208SOL    HW118162   0.668   1.238   2.995 -0.6838  0.3531 -0.4551
 5208SOL    HW218163   0.593   1.183   2.876 -0.7180 -1.7222  0.5051
 5209SOL     OW18164   0.763   3.461   6.794 -0.3276  0.0613  0.3079
 5209SOL    HW118165   0.835   3.481   6.734 -0.1767 -0.6236  0.2598
 5209SOL    HW218166   0.687   3.454   6.737 -0.1713 -0.6610  0.1863
 5210SOL     OW18167   6.546   2.851   8.398 -0.1247 -0.4191 -0.4491
 5210SOL    HW118168   6.457   2.886   8.391  0.2665  0.8031  0.3690
 5210SOL    HW218169   6.548   2.805   8.482  0.2607  0.3658 -0.0119
 5211SOL     OW18170   9.033   0.915   8.709  0.5421 -0.0430 -0.0040
 5211SOL    HW118171   9.027   0.910   8.613  1.5288 -0.0946 -0.0694
 5211SOL    HW218172   8.971   0.850   8.740  1.4265 -1.2241 -0.6423
 5212SOL     OW18173   3.483   8.108   4.267  0.8719 -0.0690 -0.7217
 5212SOL    HW118174   3.414   8.154   4.315 -0.2323 -3.4510  1.1400
 5212SOL    HW218175   3.563   8.124   4.317  0.5663  0.1318 -0.2964
 5213SOL     OW18176   3.313   8.388   9.629 -0.3533 -0.2661  0.8990
 5213SOL    HW118177   3.297   8.430   9.545 -0.6664  0.9987  1.5727
 5213SOL    HW218178   3.390   8.333   9.615  0.0827  0.5578  0.0033
 5214SOL     OW18179   8.404   9.501   5.835 -0.0211 -0.0263  0.1010
 5214SOL    HW118180   8.479   9.561   5.833 -1.1961  1.5294  2.0868
 5214SOL    HW218181   8.338   9.544   5.780  0.0392 -0.7760 -0.5787
 5215SOL     OW18182   5.436   4.408   4.001 -0.6601  0.3840  0.7074
 5215SOL    HW118183   5.476   4.452   3.925 -1.4119 -0.1034  0.0176
 5215SOL    HW218184   5.443   4.315   3.981  0.4899  0.1924  1.9501
 5216SOL     OW18185   7.299   4.197   6.092  0.1403  0.2844 -0.4276
 5216SOL    HW118186   7.236   4.182   6.022  0.6942 -1.3953 -0.5887
 5216SOL    HW218187   7.380   4.156   6.061  0.6465  0.3383  0.7939
 5217SOL     OW18188   8.815   9.467   1.954  0.6698 -0.2433 -0.1972
 5217SOL    HW118189   8.828   9.496   1.864 -0.4329 -2.7840 -1.2455
 5217SOL    HW218190   8.720   9.473   1.969  0.9116  0.7736  1.0172
 5218SOL     OW18191   8.384   7.459   6.066  0.2968 -0.0024  0.1672
 5218SOL    HW118192   8.454   7.448   6.130  0.8169 -1.2652 -0.5986
 5218SOL    HW218193   8.307   7.481   6.118  0.9586  0.0944  1.1260
 5219SOL     OW18194   7.201   9.035   0.741  0.2332  0.1158  0.0628
 5219SOL    HW118195   7.202   9.130   0.727 -2.1729  0.3879  1.4120
 5219SOL    HW218196   7.181   8.999   0.655  2.3728  0.7360 -0.7225
 5220SOL     OW18197   3.000   4.590   4.092  0.0278 -0.0635 -0.0303
 5220SOL    HW118198   2.980   4.569   4.000 -2.6738 -1.5375  0.8514
 5220SOL    HW218199   2.962   4.676   4.106 -0.6065 -0.3484  0.0224
 5221SOL     OW18200   8.209   1.765   0.390  0.2382  0.0749 -0.7828
 5221SOL    HW118201   8.151   1.738   0.319 -1.1518 -0.9155  0.7011
 5221SOL    HW218202   8.168   1.843   0.426  1.1741  0.8279 -1.3413
 5222SOL     OW18203  10.081   2.544   6.607 -0.6657 -0.4250 -0.5758
 5222SOL    HW118204  10.084   2.593   6.524  0.0577 -1.2961 -1.0671
 5222SOL    HW218205   9.998   2.497   6.605 -0.4356 -0.8103 -1.0131
 5223SOL     OW18206   6.881   7.581   4.154  0.1779 -0.1648 -0.1636
 5223SOL    HW118207   6.795   7.545   4.174  0.2084 -0.2479 -0.1789
 5223SOL    HW218208   6.916   7.524   4.086  1.0746 -1.3846  1.2669
 5224SOL     OW18209   8.406   0.100   7.541 -0.5098 -0.1975  0.0947
 5224SOL    HW118210   8.423   0.176   7.486 -0.3795  0.5750  1.1937
 5224SOL    HW218211   8.399   0.027   7.479 -3.0591  1.0620 -1.1886
 5225SOL     OW18212   5.546   5.461   6.151  0.1205  0.5096  0.0412
 5225SOL    HW118213   5.626   5.507   6.179  1.2447 -1.3573 -0.0601
 5225SOL    HW218214   5.495   5.528   6.106  1.3205  1.9020  0.7033
 5226SOL     OW18215   0.858   1.843   8.677  0.5605 -0.1414  0.3637
 5226SOL    HW118216   0.812   1.773   8.632  0.4731 -1.4019  2.3764
 5226SOL    HW218217   0.943   1.848   8.632  0.3408 -1.1283 -0.1754
 5227SOL     OW18218   4.678   8.267   1.917 -0.4072 -0.1980 -0.3569
 5227SOL    HW118219   4.664   8.173   1.912 -0.4189 -0.1241 -2.0045
 5227SOL    HW218220   4.617   8.304   1.852 -1.1779  1.0211  1.0340
 5228SOL     OW18221   9.267   6.488   2.985  0.2432  0.0712  0.3450
 5228SOL    HW118222   9.180   6.519   3.007  0.2145  1.6345 -1.7841
 5228SOL    HW218223   9.266   6.477   2.890  2.3459  0.1135  0.2747
 5229SOL     OW18224   4.019   6.306  10.156 -0.0209  0.0855 -0.3313
 5229SOL    HW118225   3.989   6.366  10.224  0.3772  0.3042 -0.3515
 5229SOL    HW218226   4.103   6.273  10.189  1.5419  2.2887 -1.9696
 5230SOL     OW18227   2.653   8.455   1.769 -0.3433 -1.1971  0.2490
 5230SOL    HW118228   2.611   8.386   1.719 -1.9712 -0.6558  0.8322
 5230SOL    HW218229   2.652   8.423   1.859  2.7481 -2.2586 -0.0285
 5231SOL     OW18230   4.362   3.937   0.944 -0.4180  0.3008  0.3628
 5231SOL    HW118231   4.433   3.907   0.887 -0.1536  0.4399  0.6192
 5231SOL    HW218232   4.398   3.931   1.033 -0.8238  0.0943  0.5146
 5232SOL     OW18233   4.678   2.141   3.147 -0.0110  0.2183 -0.4317
 5232SOL    HW118234   4.737   2.215   3.134 -0.3796  0.6923  0.5571
 5232SOL    HW218235   4.665   2.137   3.241  0.4194 -1.4400 -0.4259
 5233SOL     OW18236   5.375   0.267   5.043  0.2673  0.4590  0.1542
 5233SOL    HW118237   5.315   0.215   4.990  1.6355 -1.4003  0.3931
 5233SOL    HW218238   5.332   0.353   5.050 -1.8448 -0.5004 -0.5522
 5234SOL     OW18239   5.172   8.217   1.527 -0.8407  0.1513  0.4487
 5234SOL    HW118240   5.205   8.291   1.578  0.8071  0.4073 -0.9511
 5234SOL    HW218241   5.129   8.161   1.592 -1.0744  1.7377  1.7064
 5235SOL     OW18242   8.333   1.444   3.698  0.2818 -0.1423 -0.3246
 5235SOL    HW118243   8.377   1.502   3.634  1.3419 -0.3648  0.1920
 5235SOL    HW218244   8.325   1.498   3.777 -0.3584 -0.1123 -0.4110
 5236SOL     OW18245   7.257   8.666   5.765 -0.2280 -0.3226  0.3715
 5236SOL    HW118246   7.320   8.661   5.694 -0.2013 -2.1742  0.4992
 5236SOL    HW218247   7.211   8.582   5.762  0.2943 -0.7373  3.0080
 5237SOL     OW18248   6.320   1.929  10.018 -0.4789  0.0841  0.6097
 5237SOL    HW118249   6.375   1.852  10.004  0.0840  0.4875  0.5756
 5237SOL    HW218250   6.244   1.916   9.961  0.7409  0.6763 -1.1891
 5238SOL     OW18251   5.779  10.175   7.441  0.1603  0.2036 -0.6539
 5238SOL    HW118252   5.744  10.264   7.448  0.9240  0.3802  1.0057
 5238SOL    HW218253   5.874  10.186   7.442  0.2765 -0.7510  1.6177
 5239SOL     OW18254   4.529   0.746   4.272  0.5248  0.2363 -0.1444
 5239SOL    HW118255   4.529   0.681   4.342 -2.2924 -0.8298 -1.0325
 5239SOL    HW218256   4.610   0.731   4.224  0.7423 -1.4534  0.7275
 5240SOL     OW18257   2.562   6.597   0.142 -0.2715  0.1510  0.3794
 5240SOL    HW118258   2.612   6.673   0.173  1.4424 -1.0359  0.5784
 5240SOL    HW218259   2.579   6.595   0.047  1.4833 -1.2325  0.6883
 5241SOL     OW18260   5.860   2.823   6.609 -0.2766  0.2439 -0.3298
 5241SOL    HW118261   5.878   2.917   6.611 -0.1984  0.2538 -1.3879
 5241SOL    HW218262   5.775   2.815   6.565 -0.2975 -0.1823 -0.2220
 5242SOL     OW18263   4.778   3.983   3.274 -0.1915  0.1769  0.1230
 5242SOL    HW118264   4.775   4.078   3.266  0.7112  0.0803 -1.6147
 5242SOL    HW218265   4.777   3.966   3.368  1.2606  1.9547  0.4683
 5243SOL     OW18266   2.321   1.783   6.179 -0.0256 -0.4324  0.2453
 5243SOL    HW118267   2.377   1.770   6.255 -0.4032 -1.1746  0.4001
 5243SOL    HW218268   2.347   1.868   6.144  1.4090 -0.8969  0.1457
 5244SOL     OW18269   8.843   7.702   0.862 -0.4472  0.1210  0.5522
 5244SOL    HW118270   8.840   7.738   0.773 -1.3439  2.1600  1.3735
 5244SOL    HW218271   8.927   7.657   0.866 -0.0877  0.5929 -1.1189
 5245SOL     OW18272   4.937   9.284   5.188 -0.0270  0.2968  0.7675
 5245SOL    HW118273   4.948   9.301   5.095 -0.2177 -2.2053  0.2410
 5245SOL    HW218274   4.868   9.343   5.216 -1.2520 -0.2250 -1.0973
 5246SOL     OW18275   3.085   5.447   2.864  0.5387  0.6584 -0.0188
 5246SOL    HW118276   3.003   5.485   2.895  0.9092  0.3317  1.3925
 5246SOL    HW218277   3.075   5.353   2.879  1.2519  0.6411  0.3900
 5247SOL     OW18278   6.176   3.098   6.041 -0.3791  0.4035  0.0649
 5247SOL    HW118279   6.176   3.193   6.043 -0.7828  0.3976  0.2339
 5247SOL    HW218280   6.116   3.075   5.970 -1.0330  0.2597  0.6596
 5248SOL     OW18281   9.031   0.314   4.624  0.2403 -0.3145 -0.5007
 5248SOL    HW118282   9.079   0.396   4.630  0.5979 -0.4448 -1.5613
 5248SOL    HW218283   8.979   0.311   4.705  2.3491 -0.4032  0.8906
 5249SOL     OW18284   6.119   7.947   6.382 -0.5473 -0.6100 -0.1087
 5249SOL    HW118285   6.109   7.963   6.476 -2.1704  0.4181 -0.4343
 5249SOL    HW218286   6.101   7.854   6.372 -0.0375 -0.8003  0.6285
 5250SOL     OW18287   2.311   8.231   2.721 -0.1107  0.2201 -0.3749
 5250SOL    HW118288   2.344   8.165   2.660  0.7665  0.2138  0.1129
 5250SOL    HW218289   2.218   8.210   2.730  0.4012 -1.7098  0.7315
 5251SOL     OW18290   0.057   5.247   8.050 -0.1266 -0.6008  0.5036
 5251SOL    HW118291   0.127   5.193   8.011 -0.6881 -0.3902 -0.8271
 5251SOL    HW218292  -0.018   5.187   8.057 -0.4022 -0.3058  0.0948
 5252SOL     OW18293   1.831   5.047   0.472 -0.1579 -0.3287 -0.4019
 5252SOL    HW118294   1.903   4.990   0.500  1.5346  1.6802 -0.4510
 5252SOL    HW218295   1.801   5.089   0.553 -2.3936 -2.3351 -0.1454
 5253SOL     OW18296   9.273   0.358   2.814  0.3839 -0.0737  0.4575
 5253SOL    HW118297   9.324   0.303   2.754  0.1416  0.9454 -0.7040
 5253SOL    HW218298   9.183   0.326   2.804  0.4393 -0.3269  0.7615
 5254SOL     OW18299   6.406   4.492   3.385 -0.0506  0.2031 -0.1092
 5254SOL    HW118300   6.333   4.547   3.354 -0.9114 -1.8288 -1.8293
 5254SOL    HW218301   6.443   4.540   3.459 -3.6047  0.9495  1.2797
 5255SOL     OW18302   6.370   4.909   4.040 -0.3030 -0.7601 -0.1504
 5255SOL    HW118303   6.456   4.867   4.046 -0.0221 -0.2626 -0.5907
 5255SOL    HW218304   6.333   4.900   4.127 -0.0352 -1.4739 -0.1083
 5256SOL     OW18305   6.115   8.948   0.741 -0.3741  0.0702  0.1165
 5256SOL    HW118306   6.079   8.970   0.827 -0.7723  1.7644 -0.4570
 5256SOL    HW218307   6.186   9.011   0.728  0.9262 -1.3738 -0.0210
 5257SOL     OW18308   9.282   7.338   0.602  0.0767 -0.1179 -0.1974
 5257SOL    HW118309   9.215   7.284   0.560 -2.2099  1.4338  1.2687
 5257SOL    HW218310   9.348   7.276   0.631  0.2701 -1.5014 -3.4266
 5258SOL     OW18311   0.555   3.522   7.015  0.1540  0.0557 -0.4810
 5258SOL    HW118312   0.629   3.496   6.960  1.0294 -1.8113  1.5305
 5258SOL    HW218313   0.588   3.597   7.066  1.0404 -1.4333  1.1756
 5259SOL     OW18314   5.396   7.352   1.927 -0.4931 -0.0636 -0.0476
 5259SOL    HW118315   5.431   7.358   1.838 -0.0734 -1.0325  0.0493
 5259SOL    HW218316   5.315   7.302   1.918  0.2694 -1.3978  0.2978
 5260SOL     OW18317   5.667   3.430   0.364 -0.0621 -0.4539 -0.4902
 5260SOL    HW118318   5.711   3.514   0.375 -0.9736 -0.3305  2.7743
 5260SOL    HW218319   5.726   3.379   0.308  1.7739  1.4449 -0.3319
 5261SOL     OW18320   5.015   7.215   4.516 -0.1664 -0.0175  0.2932
 5261SOL    HW118321   4.924   7.206   4.491 -0.5861  0.5945  1.5606
 5261SOL    HW218322   5.040   7.302   4.483  0.2619 -0.5852 -0.9255
 5262SOL     OW18323   3.708   4.633   2.086 -0.7934 -0.3870 -0.7661
 5262SOL    HW118324   3.743   4.544   2.084 -1.3623 -0.6479  0.5831
 5262SOL    HW218325   3.736   4.668   2.171  2.8753  2.1632 -2.8431
 5263SOL     OW18326   3.679   2.005   7.343 -0.6512 -0.1510 -0.4967
 5263SOL    HW118327   3.749   2.054   7.300  2.0826 -1.2652  2.5131
 5263SOL    HW218328   3.668   1.927   7.288  0.5744 -0.0506 -0.8974
 5264SOL     OW18329   0.259   7.952   9.229 -0.4078 -0.1648  0.1924
 5264SOL    HW118330   0.259   7.944   9.134 -1.5068 -1.5309  0.2944
 5264SOL    HW218331   0.303   8.036   9.246  0.7710 -0.4168 -1.4598
 5265SOL     OW18332   5.057   1.340   4.952  0.0151 -0.1238  0.1737
 5265SOL    HW118333   4.969   1.377   4.954  0.6110  1.3358 -0.1577
 5265SOL    HW218334   5.115   1.416   4.943  1.2207 -1.1826 -1.1191
 5266SOL     OW18335   0.007   0.048   8.397  0.1770 -0.0364 -0.2240
 5266SOL    HW118336  -0.058  -0.020   8.416  0.1057 -0.4071 -1.7512
 5266SOL    HW218337   0.090   0.001   8.397  0.2600  0.1084 -0.0973
 5267SOL     OW18338   7.337   0.783   3.844 -0.4653 -0.0708 -0.2370
 5267SOL    HW118339   7.407   0.841   3.872  0.1301 -0.3308 -1.1648
 5267SOL    HW218340   7.275   0.783   3.918 -0.3567  1.5254 -0.1207
 5268SOL     OW18341   9.467   0.278   3.648 -0.7764  0.1894  0.8138
 5268SOL    HW118342   9.373   0.259   3.651 -0.3084 -3.3343 -2.5078
 5268SOL    HW218343   9.487   0.285   3.554  2.0876  2.1123  1.5010
 5269SOL     OW18344   1.885   1.752   3.031  0.4786 -0.1024  0.1588
 5269SOL    HW118345   1.881   1.716   3.120 -1.4369 -2.8816 -0.9415
 5269SOL    HW218346   1.952   1.699   2.987 -2.0992 -2.2622 -1.3767
 5270SOL     OW18347   0.023   0.442   4.104 -0.2709  0.1954 -0.1683
 5270SOL    HW118348  -0.025   0.409   4.028  0.3773  1.1160 -0.9938
 5270SOL    HW218349   0.111   0.406   4.093 -0.7228 -1.4384  1.3063
 5271SOL     OW18350   7.457   5.000   6.748 -0.1257  0.0161 -0.0792
 5271SOL    HW118351   7.468   4.910   6.778 -0.5653 -0.8737 -2.4533
 5271SOL    HW218352   7.379   4.998   6.693  0.1662  1.7291 -0.6032
 5272SOL     OW18353   8.283   3.692   8.347 -0.0975 -0.0563  0.5738
 5272SOL    HW118354   8.265   3.599   8.333 -0.4453  0.1846 -0.6686
 5272SOL    HW218355   8.375   3.702   8.322 -0.2465  0.0480  0.0428
 5273SOL     OW18356   5.192   6.636   8.484  0.0851 -0.1424  0.3727
 5273SOL    HW118357   5.279   6.635   8.526  1.6728  0.3234 -2.7409
 5273SOL    HW218358   5.207   6.681   8.401 -3.4024  0.8496  0.2323
 5274SOL     OW18359   6.813   9.723   8.916 -0.3860  0.2776  0.1083
 5274SOL    HW118360   6.883   9.666   8.885  1.6822  2.2442  0.9620
 5274SOL    HW218361   6.792   9.689   9.003  0.1387  0.1866  0.2061
 5275SOL     OW18362   3.232   2.490   0.857  0.1373  0.6340  0.4190
 5275SOL    HW118363   3.282   2.544   0.919  0.1236 -0.4975  1.4473
 5275SOL    HW218364   3.150   2.472   0.903 -0.0288  0.0977 -0.0842
 5276SOL     OW18365   7.906   7.619   7.972 -0.6002  0.3733  0.6171
 5276SOL    HW118366   7.961   7.698   7.973 -0.5165  0.3134  0.7357
 5276SOL    HW218367   7.827   7.644   8.019 -1.4666  1.0279 -1.1578
 5277SOL     OW18368   2.755   9.876   9.373 -0.4204  1.0323  0.5745
 5277SOL    HW118369   2.707   9.795   9.392 -1.7995  1.0807 -2.3916
 5277SOL    HW218370   2.834   9.846   9.327  0.3756  1.2281  1.7943
 5278SOL     OW18371   0.053   4.988   8.765 -0.1705 -0.2314  0.1436
 5278SOL    HW118372   0.097   4.903   8.762 -0.9199 -0.6482  0.6369
 5278SOL    HW218373  -0.013   4.978   8.833  0.0239  0.8939  0.5120
 5279SOL     OW18374   0.617   6.303   0.448  0.0110 -0.7562  0.2198
 5279SOL    HW118375   0.646   6.393   0.431  1.2572 -0.7315  2.3681
 5279SOL    HW218376   0.690   6.263   0.495 -2.1123 -1.7313  2.7510
 5280SOL     OW18377   5.353   1.690   5.109  0.0702  0.7842 -0.4414
 5280SOL    HW118378   5.426   1.638   5.074  1.4369  1.4471  1.3194
 5280SOL    HW218379   5.296   1.625   5.151 -0.3010  0.2758 -1.7051
 5281SOL     OW18380   3.710   5.279   8.220  0.2441  0.0982  0.5945
 5281SOL    HW118381   3.655   5.305   8.146  0.1060  1.8780  1.2955
 5281SOL    HW218382   3.750   5.197   8.192  0.2599  0.7845 -1.4869
 5282SOL     OW18383   8.309   0.881   6.045  0.2065 -0.2482 -0.1284
 5282SOL    HW118384   8.401   0.859   6.029  0.2121  0.0562 -0.5336
 5282SOL    HW218385   8.296   0.964   5.998 -0.7843 -1.2716 -1.7068
 5283SOL     OW18386   3.640   7.130   7.994 -0.2376 -0.0321 -0.5266
 5283SOL    HW118387   3.716   7.083   7.959  0.9691  1.4564  0.0210
 5283SOL    HW218388   3.569   7.065   7.993 -0.2713 -0.1591 -5.5270
 5284SOL     OW18389   3.942   9.808   9.828  0.4837 -0.6896 -0.4321
 5284SOL    HW118390   3.954   9.768   9.914  1.1560 -0.7933 -0.5657
 5284SOL    HW218391   3.892   9.888   9.845  3.7814  1.2566  0.5626
 5285SOL     OW18392   0.908   6.170   4.318 -0.4580 -0.6467 -0.4982
 5285SOL    HW118393   0.888   6.128   4.234 -0.2796 -0.6695 -0.5280
 5285SOL    HW218394   0.966   6.242   4.296 -1.3860  0.0947 -0.5367
 5286SOL     OW18395   8.379   3.154   0.533  0.2418 -0.1012  0.2030
 5286SOL    HW118396   8.420   3.196   0.608 -0.8689  0.2427  0.6245
 5286SOL    HW218397   8.390   3.060   0.548  0.6973 -0.0123  0.4123
 5287SOL     OW18398   6.720   5.604   2.591  0.2352  0.3379  0.1500
 5287SOL    HW118399   6.724   5.509   2.589  0.1698  0.3485 -0.5783
 5287SOL    HW218400   6.799   5.631   2.638  0.6508 -0.0497 -0.3232
 5288SOL     OW18401   4.476   7.935   6.628 -0.2201 -0.0784  0.2257
 5288SOL    HW118402   4.417   7.980   6.688 -1.5282 -1.3595 -0.0854
 5288SOL    HW218403   4.563   7.966   6.653 -0.9017  0.8477  1.5244
 5289SOL     OW18404   4.482   6.671   7.749  0.0241  0.4761  0.5112
 5289SOL    HW118405   4.455   6.727   7.677  0.0589 -0.0853  0.0557
 5289SOL    HW218406   4.432   6.590   7.736  1.1492 -0.1869  0.2634
 5290SOL     OW18407   0.218   4.996   2.213 -0.3586 -0.3735  0.5246
 5290SOL    HW118408   0.173   4.965   2.292 -1.0048 -0.9697 -0.0667
 5290SOL    HW218409   0.221   4.919   2.156 -0.8134  0.3162 -0.4372
 5291SOL     OW18410   8.250   1.449   9.875  0.1915  0.4504 -0.0945
 5291SOL    HW118411   8.258   1.367   9.922  1.6102  0.3307 -0.5109
 5291SOL    HW218412   8.158   1.474   9.883  0.2488  0.0033  2.0045
 5292SOL     OW18413   4.520   9.603   2.988 -0.4168  0.0235 -0.0585
 5292SOL    HW118414   4.435   9.586   3.028 -0.6379 -0.8314 -0.8573
 5292SOL    HW218415   4.582   9.550   3.038 -0.8568 -1.9178 -1.4975
 5293SOL     OW18416   1.001   6.504   9.200  0.4089 -0.0014 -0.7285
 5293SOL    HW118417   0.959   6.493   9.115  1.1773 -1.4014 -0.9521
 5293SOL    HW218418   1.049   6.586   9.193  0.7618 -0.2869 -1.7949
 5294SOL     OW18419   2.997   8.094   3.394 -0.0998  0.3690 -0.4668
 5294SOL    HW118420   2.981   8.187   3.411  1.9651  0.7991 -0.6430
 5294SOL    HW218421   3.037   8.061   3.475 -1.0349 -0.4270 -0.3187
 5295SOL     OW18422   8.584   9.034   4.084 -0.3838 -0.0384  0.0934
 5295SOL    HW118423   8.530   9.028   4.005  1.3907 -1.9787 -1.0194
 5295SOL    HW218424   8.605   9.127   4.091 -1.0722  0.2535 -1.3737
 5296SOL     OW18425   2.688   8.678  10.018  0.4028 -0.1952  0.0393
 5296SOL    HW118426   2.724   8.597  10.052 -1.1176 -0.3504  1.3514
 5296SOL    HW218427   2.622   8.704  10.083  1.0118  2.1847 -0.2501
 5297SOL     OW18428   0.022   0.916   3.590  0.4797  0.0824 -0.0696
 5297SOL    HW118429   0.039   0.840   3.534  0.5266 -1.7530  2.3436
 5297SOL    HW218430   0.104   0.929   3.638 -0.2330  0.2105  1.1547
 5298SOL     OW18431   5.996   4.451   6.409  0.0590 -0.1774 -0.1927
 5298SOL    HW118432   6.014   4.441   6.316 -0.7343  0.9384 -0.4660
 5298SOL    HW218433   5.909   4.491   6.414 -0.3070 -1.0838  1.0434
 5299SOL     OW18434   5.159   1.410   9.692 -0.2634 -0.0330 -0.4283
 5299SOL    HW118435   5.176   1.319   9.666 -0.9946 -0.8110  1.7282
 5299SOL    HW218436   5.069   1.409   9.724  0.2451  1.1128  1.0834
 5300SOL     OW18437   9.400   5.759   2.604  0.1358 -0.2731 -0.1476
 5300SOL    HW118438   9.387   5.800   2.519 -1.4778  1.2295  0.7876
 5300SOL    HW218439   9.378   5.667   2.590 -0.1419 -0.0340 -1.3423
 5301SOL     OW18440   8.242   8.160   2.581  0.3456 -0.3778  0.0855
 5301SOL    HW118441   8.277   8.185   2.496  1.3324  0.5812  0.7636
 5301SOL    HW218442   8.319   8.136   2.633 -0.2254 -0.6914  0.8033
 5302SOL     OW18443   5.745   1.473   4.331  0.5828  0.8102 -0.4061
 5302SOL    HW118444   5.809   1.432   4.390 -0.8953  1.1484  1.5051
 5302SOL    HW218445   5.717   1.552   4.378 -2.0162  0.1007 -0.7105
 5303SOL     OW18446   4.659   3.645  10.035  0.1423 -1.0708  0.1172
 5303SOL    HW118447   4.608   3.718  10.069 -0.7475 -1.6406  0.0195
 5303SOL    HW218448   4.695   3.602  10.113  2.1806  0.5322  0.1047
 5304SOL     OW18449   0.946   8.769   2.677  0.2805 -0.3759  0.2379
 5304SOL    HW118450   1.034   8.742   2.703  0.6939  0.2512 -0.4758
 5304SOL    HW218451   0.952   8.778   2.582 -0.7159 -0.9085  0.1252
 5305SOL     OW18452   4.600   6.402   4.897 -0.4706  0.5460  0.1048
 5305SOL    HW118453   4.564   6.317   4.920 -1.7708  1.1596  0.3962
 5305SOL    HW218454   4.678   6.382   4.846 -1.2017 -0.8266 -0.5196
 5306SOL     OW18455   6.372   4.496   2.958 -0.1652 -0.0419 -0.0185
 5306SOL    HW118456   6.439   4.562   2.975 -0.2960  0.0162  0.2732
 5306SOL    HW218457   6.290   4.536   2.986 -0.1420 -0.6117  0.9028
 5307SOL     OW18458  10.185   4.353   9.547  0.6974 -0.0559 -0.5921
 5307SOL    HW118459  10.110   4.334   9.602  1.0891 -0.1468 -0.0803
 5307SOL    HW218460  10.149   4.367   9.460  0.0439  0.3986 -0.2471
 5308SOL     OW18461   9.402   2.636   2.745  0.3227  0.1245 -0.1136
 5308SOL    HW118462   9.325   2.690   2.765 -0.4875 -0.9907 -0.2321
 5308SOL    HW218463   9.404   2.570   2.814  0.7629 -0.3030 -0.5325
 5309SOL     OW18464   6.227  10.052   6.307 -0.3517  0.2223 -0.1882
 5309SOL    HW118465   6.210   9.968   6.349 -3.6372 -1.5415 -4.6687
 5309SOL    HW218466   6.294  10.033   6.241 -1.4964  0.9055 -1.6038
 5310SOL     OW18467   5.496   4.216   5.021  0.3197 -0.1935  0.1435
 5310SOL    HW118468   5.567   4.234   4.959 -0.9169 -0.6703 -1.4399
 5310SOL    HW218469   5.416   4.224   4.969 -0.7435 -0.5715  1.6938
 5311SOL     OW18470   1.105   9.071   8.734 -0.4671  0.3317  0.2762
 5311SOL    HW118471   1.011   9.064   8.721 -0.3119  0.0923 -0.7423
 5311SOL    HW218472   1.125   9.164   8.719 -0.5239  0.3635  0.3884
 5312SOL     OW18473   2.346   3.891   9.699  0.1653  0.0239  0.3673
 5312SOL    HW118474   2.342   3.986   9.695  1.1442  0.0541  0.1499
 5312SOL    HW218475   2.298   3.861   9.621  1.4157  0.3638 -0.5420
 5313SOL     OW18476   4.757   9.742   3.668  0.3643  0.2247 -0.1416
 5313SOL    HW118477   4.702   9.788   3.731  0.3356  0.5160 -0.3773
 5313SOL    HW218478   4.791   9.667   3.716  0.0900  0.2703  0.1267
 5314SOL     OW18479   7.379   9.198   4.287  0.3126 -0.1413 -0.2144
 5314SOL    HW118480   7.465   9.241   4.281  0.6580 -0.9102 -0.8123
 5314SOL    HW218481   7.356   9.203   4.380  0.7827  0.4875 -0.1249
 5315SOL     OW18482   3.297   4.495   5.337  0.2277 -0.7550 -0.1509
 5315SOL    HW118483   3.252   4.574   5.305  0.4363 -0.9829 -1.0326
 5315SOL    HW218484   3.248   4.469   5.415 -2.1117 -1.8520 -1.9258
 5316SOL     OW18485   2.426   5.355   3.391  0.0433  0.4022  0.6490
 5316SOL    HW118486   2.440   5.449   3.405  0.9146  0.3036  0.5105
 5316SOL    HW218487   2.491   5.331   3.324 -0.8535 -0.0913 -0.0504
 5317SOL     OW18488   5.540   4.819   3.233  0.0801  0.2086  0.5396
 5317SOL    HW118489   5.626   4.815   3.275 -0.0265  0.6862  0.8034
 5317SOL    HW218490   5.559   4.820   3.139  0.5324  3.7649  0.5956
 5318SOL     OW18491   1.638   5.486   6.602  0.8597  0.0436  0.3709
 5318SOL    HW118492   1.581   5.555   6.638  0.4460 -0.3872  0.5550
 5318SOL    HW218493   1.603   5.470   6.514 -0.2391 -1.2539  1.0280
 5319SOL     OW18494   0.348   0.484   8.383  0.3721 -0.0467  0.1026
 5319SOL    HW118495   0.371   0.421   8.451  0.1232 -0.1435  0.0986
 5319SOL    HW218496   0.409   0.465   8.312  0.7760  0.2003  0.3801
 5320SOL     OW18497   8.512   9.843   3.171 -0.2236  0.1871  0.1769
 5320SOL    HW118498   8.445   9.852   3.104 -0.6410  1.2419  0.7251
 5320SOL    HW218499   8.534   9.749   3.172 -0.0543  0.1964 -1.5731
 5321SOL     OW18500   9.946   8.829   1.656  0.3761 -0.0984 -0.7566
 5321SOL    HW118501   9.942   8.886   1.733 -0.7517  1.2261 -1.7729
 5321SOL    HW218502   9.975   8.744   1.690 -0.4833  0.3712  1.1795
 5322SOL     OW18503   4.249   2.091   9.468 -0.2264 -0.4582 -0.3720
 5322SOL    HW118504   4.286   2.177   9.445  0.8194 -0.7251  0.2524
 5322SOL    HW218505   4.155   2.102   9.457 -0.2088  1.1025  0.7147
 5323SOL     OW18506   2.359   4.335   5.989  0.0054  0.1007 -0.0366
 5323SOL    HW118507   2.268   4.355   6.010 -0.6476 -1.5217 -1.2208
 5323SOL    HW218508   2.376   4.383   5.908  0.7415  1.7438  1.0663
 5324SOL     OW18509   5.189   6.830   0.344 -0.4632  0.2248  0.3322
 5324SOL    HW118510   5.242   6.840   0.264  0.2973  2.6231  1.1081
 5324SOL    HW218511   5.107   6.875   0.324 -1.3421 -1.5197 -0.0468
 5325SOL     OW18512   1.070   2.380   6.974  0.4199 -0.6306 -0.0038
 5325SOL    HW118513   1.099   2.292   6.998  2.3646  0.0404  0.1535
 5325SOL    HW218514   1.051   2.374   6.880  0.0796 -1.3289  0.1002
 5326SOL     OW18515   9.561   2.969   9.792  0.1767 -0.1527 -0.1014
 5326SOL    HW118516   9.478   2.975   9.744 -0.1581 -0.3200  0.4614
 5326SOL    HW218517   9.556   3.039   9.857  0.7260  0.2156 -0.4560
 5327SOL     OW18518   0.254   7.921   2.160  0.3917 -0.0405  0.5013
 5327SOL    HW118519   0.263   7.827   2.144  0.9732 -0.4160  2.8203
 5327SOL    HW218520   0.291   7.963   2.082 -1.1541 -1.7142 -1.1647
 5328SOL     OW18521   3.330   0.691   3.162  0.3090 -0.7060  0.0768
 5328SOL    HW118522   3.317   0.705   3.069  1.6498 -1.6500 -0.2811
 5328SOL    HW218523   3.297   0.602   3.178  0.3977 -0.6779  0.4188
 5329SOL     OW18524   7.028  10.169   3.608 -0.0033 -0.2654  0.3350
 5329SOL    HW118525   6.981  10.252   3.614 -0.2661 -0.5071  1.5989
 5329SOL    HW218526   6.985  10.112   3.672 -0.0690 -1.5027 -0.7841
 5330SOL     OW18527   4.760   0.782   6.011 -0.5156 -0.0405  0.5476
 5330SOL    HW118528   4.839   0.816   5.969 -0.2929 -1.0808  0.1128
 5330SOL    HW218529   4.699   0.855   6.009 -0.2227  0.1787 -0.8406
 5331SOL     OW18530   6.258   1.669   4.697  0.2168 -0.2791 -0.0673
 5331SOL    HW118531   6.341   1.646   4.740  0.2638  0.5782  0.3280
 5331SOL    HW218532   6.266   1.632   4.609  2.0298  1.7871 -0.8316
 5332SOL     OW18533   4.590   3.718   0.721 -0.1062  0.0969  0.0018
 5332SOL    HW118534   4.537   3.650   0.678 -1.4229  1.2097 -0.1951
 5332SOL    HW218535   4.588   3.792   0.659  1.5594  0.2227  0.0742
 5333SOL     OW18536   7.770   5.611   0.374  0.5237 -0.3465  0.5207
 5333SOL    HW118537   7.714   5.533   0.372 -0.2283  0.2122 -0.6859
 5333SOL    HW218538   7.818   5.604   0.457  2.1999 -3.3113 -0.6104
 5334SOL     OW18539   4.843   9.659   8.495  0.8256  0.0686 -0.1467
 5334SOL    HW118540   4.764   9.631   8.448  1.5619 -1.4808 -0.4851
 5334SOL    HW218541   4.876   9.733   8.445  0.5339 -0.3508 -0.9600
 5335SOL     OW18542   7.432   7.000   0.710 -0.1406  0.0580 -0.4730
 5335SOL    HW118543   7.364   7.048   0.665 -1.5758 -0.6007  0.9585
 5335SOL    HW218544   7.394   6.914   0.727  1.1064 -0.3849  0.1810
 5336SOL     OW18545   0.831   1.423   6.618 -0.0525 -0.8155  0.1525
 5336SOL    HW118546   0.781   1.359   6.567 -0.1536 -1.6997  1.3496
 5336SOL    HW218547   0.861   1.375   6.695  1.1708  0.1802  0.3143
 5337SOL     OW18548   1.659   9.024   7.442  0.3750  0.0703  0.0025
 5337SOL    HW118549   1.615   9.108   7.426 -0.3538 -0.3359 -0.1463
 5337SOL    HW218550   1.751   9.047   7.453  0.0192  1.0267  1.0891
 5338SOL     OW18551   9.242   5.040   1.546 -0.3919  0.3128 -0.0658
 5338SOL    HW118552   9.263   5.104   1.477 -0.2958 -0.7988 -1.0860
 5338SOL    HW218553   9.157   5.004   1.520 -1.3106  1.2923  1.4655
 5339SOL     OW18554   4.422   9.910   1.928 -0.0675 -0.6590  0.5524
 5339SOL    HW118555   4.487   9.887   1.995  1.9653 -1.2408 -1.5445
 5339SOL    HW218556   4.426  10.005   1.922 -1.5373 -0.4610  2.4826
 5340SOL     OW18557   7.139   6.958   3.488 -0.2663  0.6442 -0.6886
 5340SOL    HW118558   7.150   6.865   3.468  1.0759  0.8590 -1.0178
 5340SOL    HW218559   7.046   6.967   3.510 -0.2731 -0.8955  0.0080
 5341SOL     OW18560   1.075   8.083   8.951 -0.0326 -0.1394 -0.0886
 5341SOL    HW118561   1.168   8.077   8.970  0.2265 -0.4368 -1.3687
 5341SOL    HW218562   1.034   8.106   9.034  0.9661 -1.8111  0.8843
 5342SOL     OW18563   2.612   0.396   6.608 -0.6273  0.5550  0.1424
 5342SOL    HW118564   2.633   0.401   6.701 -0.6586  0.8305  0.1366
 5342SOL    HW218565   2.526   0.437   6.601 -1.2285 -0.6998  0.1827
 5343SOL     OW18566   7.552   5.234   7.469  0.0066 -0.3114 -0.4764
 5343SOL    HW118567   7.478   5.179   7.445 -0.9254  1.3103 -1.4356
 5343SOL    HW218568   7.553   5.303   7.402  1.1965  0.7666  0.6309
 5344SOL     OW18569   6.180   3.422  10.055  0.2013 -0.5683 -0.5737
 5344SOL    HW118570   6.231   3.470  10.120  1.8846  0.7384 -2.7928
 5344SOL    HW218571   6.111   3.379  10.106  0.3564  1.8834  1.8338
 5345SOL     OW18572   3.956   1.535   3.612  0.2566  0.5799  0.3743
 5345SOL    HW118573   3.981   1.606   3.671 -1.4184  1.8805 -0.4348
 5345SOL    HW218574   3.959   1.574   3.524 -1.9007  0.0732  0.0276
 5346SOL     OW18575   9.266   9.919   1.892 -0.1285  0.3305  0.3925
 5346SOL    HW118576   9.339   9.877   1.847 -1.1665 -1.3642  0.2610
 5346SOL    HW218577   9.296   9.928   1.982  0.5033  0.2547  0.1955
 5347SOL     OW18578   9.878   6.058   7.741  0.0628 -0.5475  0.2004
 5347SOL    HW118579   9.866   6.117   7.816  1.3289 -0.4542  0.3428
 5347SOL    HW218580   9.868   5.970   7.778 -2.1723 -0.4315 -0.0756
 5348SOL     OW18581   8.547   6.632   6.393  0.1815  0.1325 -0.8374
 5348SOL    HW118582   8.509   6.719   6.403 -1.2009 -0.2493 -2.6489
 5348SOL    HW218583   8.641   6.649   6.385  0.2103  1.2478  1.2513
 5349SOL     OW18584   5.560   1.763   0.094 -0.7354 -0.0572  0.5995
 5349SOL    HW118585   5.652   1.738   0.103 -0.6987  0.6000  2.0615
 5349SOL    HW218586   5.547   1.771  -0.001  1.3388  2.2194  0.4683
 5350SOL     OW18587   1.268   1.109   7.463 -0.1606  0.1474  0.2894
 5350SOL    HW118588   1.308   1.166   7.529 -2.9555  0.2479  2.0046
 5350SOL    HW218589   1.256   1.166   7.387  0.1095  0.9507  0.8344
 5351SOL     OW18590   8.301   8.762   8.585  0.0154 -0.1432  0.3286
 5351SOL    HW118591   8.226   8.707   8.563 -0.6099  0.9481 -0.3080
 5351SOL    HW218592   8.281   8.847   8.545  2.1413 -0.1737 -0.8559
 5352SOL     OW18593   2.227   7.317   4.158 -0.3053 -0.1451  0.2949
 5352SOL    HW118594   2.144   7.358   4.132  0.9794  2.8745  0.8205
 5352SOL    HW218595   2.250   7.360   4.240  0.9984 -2.1395  1.0117
 5353SOL     OW18596   9.563   4.402   0.942  0.0677  0.4985 -0.3571
 5353SOL    HW118597   9.479   4.446   0.959 -0.5684 -0.5508 -0.7487
 5353SOL    HW218598   9.550   4.360   0.857  1.4990  1.5325 -1.1078
 5354SOL     OW18599   4.619   9.514   3.448 -0.1308 -0.5279 -0.3335
 5354SOL    HW118600   4.602   9.526   3.541 -0.6895  0.7441 -0.5828
 5354SOL    HW218601   4.663   9.430   3.442 -0.2987 -0.7270  1.0574
 5355SOL     OW18602   0.196   4.191  10.110  0.1022  0.1430  0.3768
 5355SOL    HW118603   0.256   4.124  10.079  0.6718  0.7511  0.1683
 5355SOL    HW218604   0.109   4.152  10.100  0.4903 -0.9706  1.2657
 5356SOL     OW18605   6.828   0.334   7.796  0.5891  0.6137  0.0521
 5356SOL    HW118606   6.897   0.282   7.837  0.8075  0.0412 -1.0125
 5356SOL    HW218607   6.876   0.393   7.736  0.1212 -0.1544 -1.0862
 5357SOL     OW18608   9.079   6.743   9.735 -0.2150  0.0949  0.2787
 5357SOL    HW118609   9.124   6.659   9.733  0.0546  0.2325 -3.9460
 5357SOL    HW218610   8.994   6.724   9.773 -0.7747 -2.4852 -2.1076
 5358SOL     OW18611   2.553   5.243   3.810  0.0977 -0.1016  0.1224
 5358SOL    HW118612   2.600   5.164   3.834  2.0695  0.6598 -1.0939
 5358SOL    HW218613   2.511   5.222   3.726  1.3104  0.3752 -0.6233
 5359SOL     OW18614   5.425   5.072   9.197  0.3957 -0.2218 -0.2214
 5359SOL    HW118615   5.501   5.102   9.248 -0.0452  0.9389 -0.2238
 5359SOL    HW218616   5.381   5.153   9.170 -0.7901 -0.8845 -0.3056
 5360SOL     OW18617   4.577   1.638   0.722  0.5639  0.1169  0.0048
 5360SOL    HW118618   4.602   1.674   0.637  0.6184 -2.5141 -1.1493
 5360SOL    HW218619   4.499   1.586   0.703 -0.2220  0.6176  1.8340
 5361SOL     OW18620   0.787   5.460   2.444 -0.2820 -0.5654  0.0586
 5361SOL    HW118621   0.810   5.385   2.498  0.9981 -0.1092  0.1608
 5361SOL    HW218622   0.700   5.440   2.411 -0.4399 -1.5485  1.0457
 5362SOL     OW18623   7.291   1.426   1.165  0.3239 -0.4614  0.1656
 5362SOL    HW118624   7.308   1.521   1.166  1.2956 -0.6031 -1.2916
 5362SOL    HW218625   7.259   1.409   1.076  1.0040 -1.6339  0.1398
 5363SOL     OW18626   4.800   1.444   5.225 -0.0874 -0.2325  0.2540
 5363SOL    HW118627   4.747   1.505   5.277  0.8975  0.7623  0.1152
 5363SOL    HW218628   4.795   1.477   5.136  4.3043  2.5302  0.8776
 5364SOL     OW18629   5.476   7.665   9.152  0.3690  0.1240 -0.2974
 5364SOL    HW118630   5.535   7.640   9.224  0.3174  0.9153  0.0329
 5364SOL    HW218631   5.399   7.611   9.165  0.4408  0.1195  0.1337
 5365SOL     OW18632   6.984   3.072   1.060  0.4505  0.0697 -0.1847
 5365SOL    HW118633   6.924   3.084   1.134 -1.2709 -1.3795 -1.2946
 5365SOL    HW218634   6.994   3.159   1.022 -2.4121  0.0416 -1.0622
 5366SOL     OW18635   9.326   8.983   0.414 -0.1828 -0.2066 -0.1198
 5366SOL    HW118636   9.329   8.897   0.371 -1.1286 -1.6609  2.5675
 5366SOL    HW218637   9.407   9.026   0.389  1.4365 -2.8778  0.3685
 5367SOL     OW18638   3.083   8.685   2.871 -0.1435 -0.3044  0.2296
 5367SOL    HW118639   3.105   8.592   2.878 -0.8213 -0.3276  2.1951
 5367SOL    HW218640   3.159   8.731   2.906 -0.6606 -0.1936  1.2234
 5368SOL     OW18641   8.199   9.765   2.689 -0.0940 -0.1094  0.0183
 5368SOL    HW118642   8.257   9.831   2.727  0.5994  0.6333 -2.2265
 5368SOL    HW218643   8.160   9.809   2.613 -0.8156 -1.7835 -0.6007
 5369SOL     OW18644   0.258   0.765   9.463 -0.0801 -0.2884 -0.1701
 5369SOL    HW118645   0.249   0.725   9.376 -0.1939 -1.0556  0.1926
 5369SOL    HW218646   0.196   0.837   9.463  1.8203  1.4326 -1.7115
 5370SOL     OW18647   4.128   7.855   5.568 -0.0878 -0.0931  0.3219
 5370SOL    HW118648   4.222   7.851   5.584 -0.3054 -0.2478  1.6006
 5370SOL    HW218649   4.088   7.826   5.650 -1.2640  1.4558  0.3295
 5371SOL     OW18650   0.587   6.625   6.866  0.0440  0.0842  0.3754
 5371SOL    HW118651   0.634   6.592   6.942  0.2324 -2.0528 -0.6413
 5371SOL    HW218652   0.500   6.648   6.899  0.2231 -0.5422  1.2921
 5372SOL     OW18653   8.792   1.542   8.289 -0.6903 -0.4383 -0.2443
 5372SOL    HW118654   8.869   1.598   8.297 -0.9084 -0.0020 -1.1602
 5372SOL    HW218655   8.733   1.572   8.358  0.9014 -2.3373  2.0192
 5373SOL     OW18656   0.650   1.088   9.653 -0.6861 -0.5999  0.0231
 5373SOL    HW118657   0.559   1.058   9.657 -0.7129 -0.5950 -0.5121
 5373SOL    HW218658   0.698   1.029   9.711 -0.6152 -2.1371 -1.5798
 5374SOL     OW18659   0.973   9.725   7.680 -0.3721  0.0875 -0.2221
 5374SOL    HW118660   1.013   9.698   7.598  0.1123 -0.2116  0.1069
 5374SOL    HW218661   0.945   9.815   7.665  0.6480  0.3864 -0.3855
 5375SOL     OW18662   1.660   6.292   3.658  0.7557  0.7735  0.5394
 5375SOL    HW118663   1.717   6.304   3.734 -1.0214 -0.0769  2.0443
 5375SOL    HW218664   1.633   6.381   3.635 -1.2707  0.8124  2.9510
 5376SOL     OW18665   0.196   8.471  10.060  0.3089 -0.2870  0.4284
 5376SOL    HW118666   0.110   8.512  10.070  0.5504  0.1690  0.6580
 5376SOL    HW218667   0.187   8.412   9.985 -0.1158 -0.0077  0.2636
 5377SOL     OW18668   7.696   1.073   9.199  0.0260 -0.6009 -0.2323
 5377SOL    HW118669   7.664   1.040   9.283  2.1759  0.5939  1.1103
 5377SOL    HW218670   7.628   1.132   9.169 -0.5873 -0.7177  0.8947
 5378SOL     OW18671   6.400   9.339   9.654 -0.2641 -0.0923 -0.1394
 5378SOL    HW118672   6.316   9.377   9.626 -0.8164 -0.8684  0.4213
 5378SOL    HW218673   6.413   9.373   9.743 -0.8103 -1.2683  0.4049
 5379SOL     OW18674   1.309   4.632   4.337 -0.4680 -0.4604  0.8380
 5379SOL    HW118675   1.386   4.648   4.392 -0.7040  1.7881  0.5543
 5379SOL    HW218676   1.341   4.638   4.247 -0.5881 -1.5815  0.7081
 5380SOL     OW18677   2.441   0.987   6.831 -0.6049 -0.0536 -0.4429
 5380SOL    HW118678   2.500   0.979   6.756 -0.0626 -0.3374  0.0059
 5380SOL    HW218679   2.495   0.962   6.906 -1.4386 -0.8009 -0.0849
 5381SOL     OW18680   6.346   0.393   9.825 -0.1472  0.0180  0.1647
 5381SOL    HW118681   6.378   0.432   9.906  0.7772  0.3242 -0.3414
 5381SOL    HW218682   6.252   0.379   9.840 -0.1606  0.9145  0.9506
 5382SOL     OW18683   6.912   8.742   3.510 -0.2293 -0.2860  0.1073
 5382SOL    HW118684   6.918   8.746   3.415 -1.7772 -1.1052 -0.0382
 5382SOL    HW218685   7.003   8.732   3.540  0.3968  1.2296 -1.1958
 5383SOL     OW18686   3.794   9.711   2.930 -0.4924 -0.2824 -0.2970
 5383SOL    HW118687   3.742   9.772   2.983 -0.9042 -0.0216 -0.9947
 5383SOL    HW218688   3.843   9.767   2.870 -1.3927 -0.6688 -1.4100
 5384SOL     OW18689   7.330   6.213   8.725 -0.0021 -0.6394  0.0469
 5384SOL    HW118690   7.284   6.206   8.809  1.5509 -0.5389  0.9375
 5384SOL    HW218691   7.326   6.306   8.703 -0.8777 -0.7497 -0.2562
 5385SOL     OW18692   1.938  10.013   5.429  0.1952  0.1251 -0.1976
 5385SOL    HW118693   2.031  10.035   5.422  0.2911 -0.3467 -0.4275
 5385SOL    HW218694   1.933   9.955   5.505  0.2738 -0.8359 -0.9176
 5386SOL     OW18695   5.562   3.728   3.383 -0.5270 -0.1596 -0.0580
 5386SOL    HW118696   5.552   3.789   3.309 -2.0285 -1.2803 -0.8104
 5386SOL    HW218697   5.472   3.701   3.403  0.0081 -0.9606  1.2555
 5387SOL     OW18698   6.418   9.675   6.456 -0.5925 -0.0934 -0.4997
 5387SOL    HW118699   6.499   9.723   6.444 -0.7974 -0.0111 -1.6709
 5387SOL    HW218700   6.363   9.702   6.382 -1.4935 -0.5172  0.0058
 5388SOL     OW18701   2.485   5.911   9.721  0.2623  0.3649 -0.5611
 5388SOL    HW118702   2.547   5.949   9.659 -0.2233  2.2588  0.1020
 5388SOL    HW218703   2.504   5.954   9.804 -1.0831  0.0191 -0.0642
 5389SOL     OW18704   0.542   0.770   8.567 -0.0909 -0.3378 -0.4307
 5389SOL    HW118705   0.502   0.811   8.643  0.0961  2.4822 -1.7977
 5389SOL    HW218706   0.470   0.726   8.522 -0.5102 -0.5162  0.4206
 5390SOL     OW18707   0.999   4.478   7.399 -0.1124  0.0463  0.6327
 5390SOL    HW118708   0.969   4.567   7.382  1.9996  0.1483 -3.0029
 5390SOL    HW218709   0.939   4.422   7.351  0.3261 -0.3117  0.4959
 5391SOL     OW18710   5.381   2.136   8.905 -0.2603 -0.1295  0.0807
 5391SOL    HW118711   5.313   2.077   8.872 -1.0134  0.2269  0.9817
 5391SOL    HW218712   5.338   2.222   8.908  0.4057  0.2031  0.1022
 5392SOL     OW18713   5.641   5.765   4.188  0.1998  0.5883 -0.0551
 5392SOL    HW118714   5.623   5.692   4.248 -1.4045  0.3185 -0.8260
 5392SOL    HW218715   5.556   5.808   4.177  0.8577  1.7272 -0.6985
 5393SOL     OW18716   6.898   4.047   0.057  0.2862 -0.3731  0.0414
 5393SOL    HW118717   6.803   4.040   0.058  0.2347  0.1732 -0.5656
 5393SOL    HW218718   6.920   4.087   0.141  0.0829 -1.7001  0.7270
 5394SOL     OW18719   5.656   0.757   3.590 -0.4924 -0.3909  0.5082
 5394SOL    HW118720   5.714   0.727   3.659 -0.2127 -1.3921 -0.1488
 5394SOL    HW218721   5.675   0.851   3.581  0.9419 -0.6893  0.3683
 5395SOL     OW18722   4.703   3.527   3.332  0.7581  0.1066  0.1522
 5395SOL    HW118723   4.704   3.566   3.244 -3.3454  0.2039  0.0440
 5395SOL    HW218724   4.697   3.602   3.391 -1.5930 -0.0618  0.1988
 5396SOL     OW18725   5.960   1.321   0.888 -0.0256 -0.1999 -0.1725
 5396SOL    HW118726   5.933   1.381   0.958 -1.3688 -1.7360  0.6614
 5396SOL    HW218727   6.020   1.372   0.834 -2.6408  2.4888 -0.5959
 5397SOL     OW18728   2.900   8.510   4.858  0.5351  0.3389  0.6840
 5397SOL    HW118729   2.865   8.585   4.811 -2.6844 -1.9245 -0.7706
 5397SOL    HW218730   2.971   8.478   4.804 -0.6784  0.0122 -0.7588
 5398SOL     OW18731   5.000   1.609   1.057  0.2092 -0.5517  0.6788
 5398SOL    HW118732   5.039   1.527   1.090  0.5279 -1.3366 -1.5920
 5398SOL    HW218733   5.062   1.640   0.991 -1.8023 -0.5219 -1.2511
 5399SOL     OW18734   2.630   2.583   1.639  0.4218  0.1456  0.1414
 5399SOL    HW118735   2.714   2.600   1.681  0.9287  0.5554 -1.0355
 5399SOL    HW218736   2.593   2.510   1.689  2.2711 -1.2250 -0.4696
 5400SOL     OW18737   0.720   9.449   4.205  0.0233 -0.1713 -0.1552
 5400SOL    HW118738   0.772   9.403   4.138  0.6713  0.5053 -0.1148
 5400SOL    HW218739   0.771   9.439   4.285 -0.8934 -1.2278  0.3171
 5401SOL     OW18740   2.587   0.121   0.853 -0.4645  0.4202 -0.0439
 5401SOL    HW118741   2.548   0.198   0.812 -2.5002 -0.6747 -0.2667
 5401SOL    HW218742   2.593   0.057   0.782  1.0782  0.3161  0.1646
 5402SOL     OW18743   2.115   4.275   7.763 -0.3997  0.0832 -0.1496
 5402SOL    HW118744   2.185   4.341   7.769 -0.5441  0.1556  0.9359
 5402SOL    HW218745   2.057   4.308   7.694  0.5243  0.1257 -0.9223
 5403SOL     OW18746   6.094   3.400   2.849  0.1222  0.1143  0.3142
 5403SOL    HW118747   6.010   3.439   2.827  0.8837  2.0444  0.7276
 5403SOL    HW218748   6.136   3.384   2.765  0.8383  2.5484  0.1837
 5404SOL     OW18749   1.738   2.285   2.387 -0.2157  0.3114  0.0672
 5404SOL    HW118750   1.658   2.273   2.437 -0.0695  1.3840  0.5810
 5404SOL    HW218751   1.728   2.228   2.310 -1.7013  0.8584 -0.1559
 5405SOL     OW18752   6.362   9.500   8.375 -0.0600  0.7837 -0.2546
 5405SOL    HW118753   6.387   9.581   8.331  0.2172  0.1124 -1.3347
 5405SOL    HW218754   6.273   9.516   8.406 -0.3476  1.1778 -1.2622
 5406SOL     OW18755   6.859   4.013   0.914  0.2222 -0.0782  0.1080
 5406SOL    HW118756   6.944   4.024   0.955  0.2774  0.3249 -0.1123
 5406SOL    HW218757   6.874   3.952   0.842 -0.1038 -1.6798  1.3844
 5407SOL     OW18758   9.124   3.487   3.009  0.4133  0.0796  0.0654
 5407SOL    HW118759   9.152   3.578   3.019 -0.0264  0.0953  1.2136
 5407SOL    HW218760   9.186   3.436   3.061  0.7245 -0.2978 -0.6608
 5408SOL     OW18761   1.619   6.936   6.530  0.5616  0.0495  0.1713
 5408SOL    HW118762   1.643   6.943   6.438 -1.4841 -1.2158 -0.5068
 5408SOL    HW218763   1.621   7.026   6.563 -0.3574  0.7346 -1.5664
 5409SOL     OW18764   7.098   5.447   4.288  0.3345  0.1117 -0.1298
 5409SOL    HW118765   7.080   5.461   4.195  2.3180 -0.6877 -0.6510
 5409SOL    HW218766   7.124   5.532   4.321  1.7407 -0.0485 -0.8096
 5410SOL     OW18767   8.480   0.753   9.276  0.4650 -0.1186  0.5081
 5410SOL    HW118768   8.429   0.834   9.271  0.1758 -0.3555 -0.4812
 5410SOL    HW218769   8.437   0.694   9.214  1.6905 -0.4574 -0.0368
 5411SOL     OW18770   2.939   2.908   1.991 -0.8291  0.5342 -0.1098
 5411SOL    HW118771   2.961   2.999   2.010 -0.2635  0.3287  0.2112
 5411SOL    HW218772   3.019   2.870   1.956 -1.1999  0.2830 -0.7061
 5412SOL     OW18773   8.597   3.631   4.766  0.3922  0.0229  0.1788
 5412SOL    HW118774   8.562   3.711   4.804 -1.0930 -1.6692  2.5278
 5412SOL    HW218775   8.658   3.598   4.831  0.1174 -1.3348 -0.2301
 5413SOL     OW18776   2.161   5.371   9.272  0.1325  0.2679 -0.0545
 5413SOL    HW118777   2.151   5.314   9.196  0.3191  0.2211 -0.0429
 5413SOL    HW218778   2.255   5.379   9.284  0.0994  0.1173  0.2916
 5414SOL     OW18779   5.772   5.086   5.974  0.3676 -0.2973  0.5144
 5414SOL    HW118780   5.686   5.128   5.984  0.1335 -1.0074  1.6776
 5414SOL    HW218781   5.813   5.095   6.061  1.0691 -0.8263  0.2451
 5415SOL     OW18782   9.279   2.551   1.422  0.8424  0.1032  0.0519
 5415SOL    HW118783   9.349   2.585   1.366  0.6056  1.5432  0.6141
 5415SOL    HW218784   9.321   2.537   1.506  1.0063 -1.2973 -0.2574
 5416SOL     OW18785   6.884   7.281   3.508 -0.3844  0.1946 -0.4166
 5416SOL    HW118786   6.949   7.346   3.481 -1.7380  1.4187 -0.7997
 5416SOL    HW218787   6.809   7.297   3.451 -1.9081  0.3865  1.5985
 5417SOL     OW18788   4.311   3.938   7.613 -0.6666  0.3368 -0.9613
 5417SOL    HW118789   4.370   3.913   7.542  1.6619 -0.0121  1.0137
 5417SOL    HW218790   4.287   3.855   7.654 -0.3840  0.6656 -0.1206
 5418SOL     OW18791   8.345   8.644   4.407  0.1193 -0.4501  0.4608
 5418SOL    HW118792   8.401   8.567   4.396 -1.2537 -1.1613 -1.7525
 5418SOL    HW218793   8.376   8.706   4.341 -1.7992 -0.9374 -0.9428
 5419SOL     OW18794   2.501   1.601   1.660 -0.4049  0.5794 -0.0722
 5419SOL    HW118795   2.426   1.586   1.717  0.4875 -1.1536  0.7014
 5419SOL    HW218796   2.508   1.521   1.608  1.7220  0.1009  0.8599
 5420SOL     OW18797   6.759   9.504   1.620 -0.0869  0.1788 -0.3844
 5420SOL    HW118798   6.736   9.477   1.531  0.7744  0.0707 -0.5699
 5420SOL    HW218799   6.776   9.421   1.666  3.1261  0.4016 -1.1027
 5421SOL     OW18800   0.324   5.233   6.123 -0.0473  0.2441  0.1599
 5421SOL    HW118801   0.416   5.248   6.145  0.8015 -1.1240 -2.2007
 5421SOL    HW218802   0.279   5.230   6.207  1.6482  3.4645  1.2519
 5422SOL     OW18803   0.576   5.765   7.827 -0.0174  0.2632  0.4149
 5422SOL    HW118804   0.636   5.706   7.780 -0.4175  0.6581 -0.6084
 5422SOL    HW218805   0.516   5.707   7.872  0.3024 -0.1271  0.3453
 5423SOL     OW18806   6.288   2.367   9.835  0.0534 -0.6487 -0.2222
 5423SOL    HW118807   6.359   2.350   9.896 -0.2022  0.9348  0.5376
 5423SOL    HW218808   6.209   2.340   9.883 -0.1498  0.6228  0.1599
 5424SOL     OW18809   4.567  10.141   6.842  0.6120  0.2033 -0.4642
 5424SOL    HW118810   4.583  10.124   6.935 -1.1901  2.7530  0.3901
 5424SOL    HW218811   4.472  10.136   6.833  0.7525  0.3213 -2.1065
 5425SOL     OW18812   0.619  10.178   4.179  0.2780 -0.0702  0.5804
 5425SOL    HW118813   0.621  10.097   4.128 -0.4359  0.7835 -0.8439
 5425SOL    HW218814   0.526  10.189   4.201  0.7687 -1.2913  3.5266
 5426SOL     OW18815   5.054   6.105   3.699 -0.2253  0.0878  0.5380
 5426SOL    HW118816   5.038   6.037   3.634  0.8418 -0.2822  0.6574
 5426SOL    HW218817   5.113   6.064   3.763 -0.8957  0.5843  1.4960
 5427SOL     OW18818   9.705   2.350  10.196  0.2211 -0.3412  0.0634
 5427SOL    HW118819   9.756   2.278  10.158 -0.7509 -0.5346 -0.9051
 5427SOL    HW218820   9.661   2.390  10.121  0.1190  0.7520  0.7023
 5428SOL     OW18821  10.134   1.525   8.781  0.5667 -0.6056  0.4702
 5428SOL    HW118822  10.088   1.577   8.847  0.5845 -0.3407  0.2751
 5428SOL    HW218823  10.124   1.575   8.700  2.0275 -0.0302  0.6183
 5429SOL     OW18824   8.827   8.661   7.940  0.4257  1.0711  0.7227
 5429SOL    HW118825   8.848   8.696   8.027  0.5972  2.1056  0.2772
 5429SOL    HW218826   8.732   8.649   7.943  0.8366 -2.3447  2.2774
 5430SOL     OW18827   8.351   7.055   0.047  0.3425 -0.2237 -0.0459
 5430SOL    HW118828   8.414   7.001  -0.000  1.1445 -0.6074  1.4150
 5430SOL    HW218829   8.267   7.039   0.004  0.8721 -1.3771 -0.6504
 5431SOL     OW18830   0.199   0.479   7.060  1.0113  0.3423  0.1570
 5431SOL    HW118831   0.222   0.416   7.128  1.4853  0.5966  0.2377
 5431SOL    HW218832   0.146   0.430   6.998  0.2522  0.2071  0.9100
 5432SOL     OW18833   0.044  10.138   0.997 -0.4927 -0.0973 -0.1562
 5432SOL    HW118834   0.007  10.106   0.915 -0.8547  2.0037 -0.8187
 5432SOL    HW218835   0.130  10.173   0.973  0.0014 -0.7397  0.6143
 5433SOL     OW18836   0.264   1.411   5.800  0.1748 -0.2163 -0.6893
 5433SOL    HW118837   0.261   1.370   5.714 -0.7191 -0.5070 -0.5194
 5433SOL    HW218838   0.179   1.454   5.809  0.1312 -0.4788  0.1904
 5434SOL     OW18839   8.565   9.649   7.918 -0.2154  0.3165 -0.1353
 5434SOL    HW118840   8.516   9.704   7.979 -1.0439  0.5672 -1.0054
 5434SOL    HW218841   8.532   9.674   7.831  0.9097 -0.0580 -0.6823
 5435SOL     OW18842   5.336   5.634   5.284  0.1350 -0.1919 -0.4674
 5435SOL    HW118843   5.333   5.544   5.252  0.7682  0.3082 -1.9672
 5435SOL    HW218844   5.396   5.679   5.224 -1.4547  1.6095 -0.7725
 5436SOL     OW18845   0.901   0.992   0.041 -0.2888  0.2215  0.5145
 5436SOL    HW118846   0.898   0.899   0.018 -0.1841  0.2613  0.3387
 5436SOL    HW218847   0.994   1.014   0.037 -0.4530  0.7307 -1.0459
 5437SOL     OW18848   2.053   6.867   6.786  0.2657  0.1354 -0.1152
 5437SOL    HW118849   2.115   6.803   6.820  1.4404  1.8262  0.9788
 5437SOL    HW218850   2.006   6.821   6.716  0.0745 -2.3735  1.6105
 5438SOL     OW18851   1.690   8.984   4.502  0.3256  0.2444 -0.1161
 5438SOL    HW118852   1.738   9.060   4.536 -0.7076  0.4751  0.8741
 5438SOL    HW218853   1.758   8.920   4.482  0.9963  0.2415  2.0710
 5439SOL     OW18854   9.345   0.017   1.922 -0.2032 -0.0013 -0.0625
 5439SOL    HW118855   9.250   0.009   1.918 -0.2234  0.7045 -1.2157
 5439SOL    HW218856   9.377  -0.048   1.860  0.1273 -1.1048  1.2348
 5440SOL     OW18857   8.898   3.337   5.890 -0.3901  0.1306  0.0860
 5440SOL    HW118858   8.841   3.413   5.878  1.3376  1.3061 -0.8599
 5440SOL    HW218859   8.934   3.348   5.978 -0.6951  0.0164  0.2263
 5441SOL     OW18860   1.799   9.124  10.149 -0.2306  0.1249 -0.2357
 5441SOL    HW118861   1.839   9.198  10.103 -2.8253  0.9530 -1.2792
 5441SOL    HW218862   1.778   9.158  10.236 -0.3081  0.2403 -0.2995
 5442SOL     OW18863   2.399   4.546   0.648  0.5299 -0.6442 -0.3201
 5442SOL    HW118864   2.442   4.631   0.650 -0.5281 -0.1374  1.7502
 5442SOL    HW218865   2.353   4.544   0.564  1.2007  0.4800 -0.7238
 5443SOL     OW18866   5.365   0.955   9.219 -0.0475 -0.2983  0.0276
 5443SOL    HW118867   5.371   0.862   9.243  0.7912 -0.6713 -1.5541
 5443SOL    HW218868   5.441   0.996   9.261 -0.6399 -0.2370  1.0604
 5444SOL     OW18869   9.872   3.983   7.983  0.2338  0.3260 -0.1993
 5444SOL    HW118870   9.915   3.972   8.068  3.1380  2.0731 -1.3874
 5444SOL    HW218871   9.859   4.078   7.976 -2.4389 -0.0345 -0.5835
 5445SOL     OW18872   4.791   8.324  10.113  0.5050  0.0534 -0.6332
 5445SOL    HW118873   4.853   8.252  10.125  1.6522  1.3081  1.1831
 5445SOL    HW218874   4.832   8.399  10.156 -1.6094  1.2879 -0.6737
 5446SOL     OW18875   9.250   7.349   7.199 -0.2982 -1.0637 -0.0671
 5446SOL    HW118876   9.287   7.423   7.151 -0.0240 -0.3559  1.2125
 5446SOL    HW218877   9.157   7.351   7.179 -0.6180  0.7996  1.4797
 5447SOL     OW18878   8.393  10.072   6.718 -0.3917 -0.4151 -0.2025
 5447SOL    HW118879   8.420  10.090   6.628  1.9985 -1.1425  0.3471
 5447SOL    HW218880   8.421  10.149   6.767 -0.7534 -0.4796  0.1091
 5448SOL     OW18881   0.213   3.149   6.125  0.1393  0.3304 -0.0542
 5448SOL    HW118882   0.127   3.189   6.138 -0.0988  0.1178 -0.9644
 5448SOL    HW218883   0.275   3.220   6.144 -0.1969  0.1296  1.8556
 5449SOL     OW18884   9.099   9.710   0.224  0.3082  0.0979 -0.1259
 5449SOL    HW118885   9.010   9.714   0.187  0.0117  1.4053  0.7045
 5449SOL    HW218886   9.099   9.632   0.279 -0.5278  0.4464  0.3749
 5450SOL     OW18887   1.958   3.062   5.375  0.5036  0.2933  0.4493
 5450SOL    HW118888   1.946   2.972   5.344  5.0671 -0.2137 -0.2866
 5450SOL    HW218889   1.979   3.053   5.468 -1.5695  0.8488  0.9915
 5451SOL     OW18890   3.127   7.805   8.670 -0.2745  1.0320 -0.0185
 5451SOL    HW118891   3.137   7.770   8.582 -1.1610 -1.9652  1.0046
 5451SOL    HW218892   3.035   7.830   8.676 -0.3463  0.7106  0.2283
 5452SOL     OW18893   2.520   9.243   6.876 -0.2142 -0.7872 -0.6556
 5452SOL    HW118894   2.470   9.167   6.906  0.0846 -0.1921  1.3999
 5452SOL    HW218895   2.573   9.209   6.804 -0.3057 -2.4474  0.0327
 5453SOL     OW18896   0.802   8.433   8.637 -0.3362 -0.9834 -0.2000
 5453SOL    HW118897   0.808   8.402   8.727  0.1117  0.5870  0.3204
 5453SOL    HW218898   0.892   8.446   8.609 -0.5070 -0.4753 -0.5274
 5454SOL     OW18899   8.709   9.124   2.543 -0.3952  0.0262 -0.6023
 5454SOL    HW118900   8.697   9.031   2.523 -1.0938  0.2253 -1.1216
 5454SOL    HW218901   8.802   9.140   2.523 -0.3650 -0.4687 -0.8924
 5455SOL     OW18902   6.880   0.464   0.650  0.8623  0.0658 -0.0676
 5455SOL    HW118903   6.815   0.414   0.700 -0.6399 -0.3056 -2.3351
 5455SOL    HW218904   6.934   0.397   0.607  1.6042  0.3922  0.3317
 5456SOL     OW18905   9.813   4.923   7.539 -0.1083  0.0733 -0.1301
 5456SOL    HW118906   9.875   4.931   7.611  0.0109  0.0630 -0.2322
 5456SOL    HW218907   9.868   4.904   7.463 -0.0702  1.8704 -0.5612
 5457SOL     OW18908  10.031   9.388   7.372 -0.7838  0.0623 -0.1804
 5457SOL    HW118909  10.010   9.465   7.424 -0.4940  0.5018 -0.7095
 5457SOL    HW218910   9.961   9.383   7.307 -0.2599  0.4698 -0.7851
 5458SOL     OW18911   3.461   1.595   4.309 -0.0033  0.0507  0.2931
 5458SOL    HW118912   3.468   1.689   4.292  1.1483  0.3465  2.2634
 5458SOL    HW218913   3.547   1.560   4.287  0.3137 -0.1514  1.7933
 5459SOL     OW18914   9.231   7.331   6.748 -0.1924  0.1833  0.7437
 5459SOL    HW118915   9.303   7.392   6.766 -0.5718  0.9049 -0.1423
 5459SOL    HW218916   9.159   7.387   6.719 -0.7248 -0.6380  0.4845
 5460SOL     OW18917   5.521   3.658   0.908  0.2369 -0.1014  0.1927
 5460SOL    HW118918   5.590   3.724   0.914 -0.0096  0.1692  0.0010
 5460SOL    HW218919   5.442   3.702   0.940 -0.4453  0.4245 -2.1491
 5461SOL     OW18920   6.419   4.914   8.098  0.4104  0.2990 -0.0219
 5461SOL    HW118921   6.509   4.941   8.111  0.2756  0.5675  0.3657
 5461SOL    HW218922   6.421   4.858   8.020  0.5835  1.9881 -1.2567
 5462SOL     OW18923   4.336   8.037   8.718 -0.1712  0.4489 -0.2243
 5462SOL    HW118924   4.277   8.042   8.643  0.2435  3.6657 -0.3855
 5462SOL    HW218925   4.348   8.128   8.746  3.3558 -0.2795  0.8775
 5463SOL     OW18926  10.090   4.221   9.985 -0.3268 -0.3172 -0.1455
 5463SOL    HW118927  10.108   4.128   9.973 -0.9154 -0.3742 -0.6712
 5463SOL    HW218928  10.039   4.225  10.066 -1.7285 -0.6472 -0.9913
 5464SOL     OW18929   3.885   3.089   0.340 -0.0073 -0.4173 -0.0280
 5464SOL    HW118930   3.896   3.081   0.246 -2.0544  0.8587 -0.4099
 5464SOL    HW218931   3.972   3.110   0.373  0.4309  0.6207 -1.8057
 5465SOL     OW18932   8.882   0.292   6.512  0.4084 -0.3474 -0.3294
 5465SOL    HW118933   8.894   0.244   6.594  0.7057  0.4435  0.0865
 5465SOL    HW218934   8.793   0.326   6.516  0.4351 -0.2786 -0.3293
 5466SOL     OW18935   6.232   1.547   8.731  0.6857  0.1450 -0.3409
 5466SOL    HW118936   6.217   1.573   8.640  1.6749 -1.3562 -0.9358
 5466SOL    HW218937   6.326   1.553   8.743  0.6765 -0.8255  0.2371
 5467SOL     OW18938   1.725   3.519   8.288 -0.2698  0.8276  0.3850
 5467SOL    HW118939   1.704   3.581   8.218 -1.1604  2.0310  1.7076
 5467SOL    HW218940   1.676   3.550   8.364 -1.3797 -1.9358  0.8786
 5468SOL     OW18941   9.897   3.776   4.857  0.6755 -0.0512  0.6239
 5468SOL    HW118942   9.988   3.761   4.832  0.6104 -0.2669  0.5167
 5468SOL    HW218943   9.873   3.698   4.908 -0.4322 -1.5148 -2.0140
 5469SOL     OW18944   6.255   5.664   2.317  0.2951  0.5010 -0.8959
 5469SOL    HW118945   6.232   5.587   2.265  0.6948 -0.3734  0.1862
 5469SOL    HW218946   6.242   5.636   2.408  1.5436  1.3290 -0.4460
 5470SOL     OW18947   6.181   3.929   4.956 -0.5286  0.0207 -0.5340
 5470SOL    HW118948   6.201   3.874   4.881 -0.6528  0.4366 -0.8744
 5470SOL    HW218949   6.197   3.873   5.032 -1.5566 -0.7786 -0.8913
 5471SOL     OW18950   7.595   9.122   6.457  0.1193  0.3014  0.5203
 5471SOL    HW118951   7.676   9.131   6.507 -0.6799 -0.1804  1.9388
 5471SOL    HW218952   7.617   9.155   6.369  1.3048  1.9664  1.4121
 5472SOL     OW18953   2.310  10.203   8.545 -0.1768 -0.1383 -0.6825
 5472SOL    HW118954   2.368  10.161   8.482  0.4960 -0.3678  0.0834
 5472SOL    HW218955   2.353  10.190   8.630 -1.0246  0.2438 -0.1862
 5473SOL     OW18956   5.123   7.827   7.505 -0.4915  0.7826 -0.3643
 5473SOL    HW118957   5.044   7.876   7.482  0.6275  1.6657 -2.3668
 5473SOL    HW218958   5.097   7.735   7.496 -1.4957  1.0458 -0.2659
 5474SOL     OW18959   1.365   8.271   7.296  0.4112  0.1029 -0.0555
 5474SOL    HW118960   1.270   8.277   7.289  0.3666 -1.2372 -0.6498
 5474SOL    HW218961   1.397   8.346   7.245 -0.2728 -0.9459 -2.0792
 5475SOL     OW18962   8.630   9.338   9.833  0.1597  0.5412 -0.0469
 5475SOL    HW118963   8.695   9.376   9.774  0.4782  2.5601  1.5890
 5475SOL    HW218964   8.568   9.409   9.850 -2.1600 -1.1492 -1.0423
 5476SOL     OW18965   1.306   0.199   3.614 -0.2020  0.4903 -0.2144
 5476SOL    HW118966   1.306   0.284   3.658  0.5671  0.2534  0.2429
 5476SOL    HW218967   1.250   0.212   3.538 -1.0585  1.0653  0.5135
 5477SOL     OW18968   4.113   0.148   1.304 -0.0099 -0.5268  0.0167
 5477SOL    HW118969   4.134   0.181   1.391  0.3564  1.0089 -0.6311
 5477SOL    HW218970   4.134   0.220   1.245  1.9632 -2.3594 -1.5929
 5478SOL     OW18971   7.741   6.219   1.394  0.2638 -0.0863 -0.3806
 5478SOL    HW118972   7.715   6.127   1.393 -1.2669  0.2635  2.5074
 5478SOL    HW218973   7.658   6.267   1.390  1.0521  1.2124 -1.8822
 5479SOL     OW18974   7.279   0.029   7.392  0.1399  0.1302  0.0742
 5479SOL    HW118975   7.356   0.070   7.353  1.2804 -2.0112 -0.0265
 5479SOL    HW218976   7.300  -0.065   7.392 -2.8807 -0.5994 -0.8741
 5480SOL     OW18977   0.141   2.603   2.779  0.0305 -0.1634  1.0211
 5480SOL    HW118978   0.177   2.645   2.857 -0.1791 -0.4631  1.2784
 5480SOL    HW218979   0.111   2.676   2.725 -0.1571  0.0264  1.3787
 5481SOL     OW18980   0.401   9.841   6.156 -0.1793 -0.0475 -0.0120
 5481SOL    HW118981   0.368   9.801   6.075 -2.3116  1.9333 -0.1536
 5481SOL    HW218982   0.332   9.826   6.220  0.4368  0.5649  0.8101
 5482SOL     OW18983   1.905   4.722   4.097  0.0815 -0.0263  0.3902
 5482SOL    HW118984   1.822   4.768   4.085 -0.0292 -0.2543  0.2816
 5482SOL    HW218985   1.949   4.770   4.168  0.6927  1.2387 -0.8255
 5483SOL     OW18986   7.829   7.926   1.491  0.2207 -0.1062 -0.1759
 5483SOL    HW118987   7.856   7.835   1.503  0.2412 -0.1258 -0.3729
 5483SOL    HW218988   7.901   7.977   1.529 -0.3138 -0.1907  0.9551
 5484SOL     OW18989   8.881   8.146   4.211  0.2392 -0.2059  0.2324
 5484SOL    HW118990   8.793   8.109   4.213  0.3302 -0.5884 -1.8036
 5484SOL    HW218991   8.871   8.235   4.246 -0.5451 -1.0230  2.1170
 5485SOL     OW18992   3.877   0.126   2.025  0.2041 -0.3129 -0.5019
 5485SOL    HW118993   3.871   0.206   2.078  0.3685 -0.2515 -0.5765
 5485SOL    HW218994   3.940   0.147   1.956  0.0171 -0.4045 -0.7020
 5486SOL     OW18995   3.158   6.098   4.056  0.1981  0.1216  0.0323
 5486SOL    HW118996   3.180   6.005   4.065  0.6326  0.3687  1.6161
 5486SOL    HW218997   3.215   6.142   4.119 -0.8971  1.3418  0.1800
 5487SOL     OW18998   4.431   0.051   5.882 -0.3498  0.1861 -0.0760
 5487SOL    HW118999   4.520   0.017   5.898 -0.7410 -0.8609 -0.0586
 5487SOL    HW219000   4.426   0.062   5.787  0.5770  2.4806  0.1023
 5488SOL     OW19001   8.584   3.645   6.955  0.1903  0.8348 -0.0651
 5488SOL    HW119002   8.541   3.563   6.930 -0.5275  1.0521  0.4255
 5488SOL    HW219003   8.590   3.695   6.874  2.8119 -0.6641 -0.8431
 5489SOL     OW19004   6.755   4.471   9.203 -0.7765 -0.0429 -0.1606
 5489SOL    HW119005   6.666   4.459   9.172  0.0504 -0.4889 -2.4111
 5489SOL    HW219006   6.754   4.558   9.244 -1.8605  0.5928 -1.4987
 5490SOL     OW19007   4.314   8.643   5.455 -0.0028 -0.0895 -0.0400
 5490SOL    HW119008   4.385   8.653   5.391 -0.3122 -1.6900 -0.6427
 5490SOL    HW219009   4.235   8.642   5.402 -0.3362 -0.3513  0.4649
 5491SOL     OW19010   0.798   1.636   2.355 -0.6712  0.0330  0.5063
 5491SOL    HW119011   0.814   1.663   2.265  1.3956 -0.7584  0.5983
 5491SOL    HW219012   0.867   1.681   2.405 -0.1202 -1.6558  1.2878
 5492SOL     OW19013   0.791  10.006   0.017  0.0120  0.1790  0.4853
 5492SOL    HW119014   0.874   9.960   0.003  0.7302  1.4185  0.5960
 5492SOL    HW219015   0.811  10.071   0.084 -0.4735  1.9667 -1.0648
 5493SOL     OW19016   9.260   6.165   9.926 -0.5351  0.4220  0.0194
 5493SOL    HW119017   9.271   6.131  10.015 -1.9767  0.6485  0.2806
 5493SOL    HW219018   9.326   6.118   9.875 -0.6612 -0.7564  0.9293
 5494SOL     OW19019   3.237   5.113   3.857  0.0042 -0.0980  0.1138
 5494SOL    HW119020   3.197   5.044   3.805  1.2207 -0.3214 -0.5400
 5494SOL    HW219021   3.243   5.188   3.798 -1.2734  0.5522  0.8088
 5495SOL     OW19022   5.328   7.816   0.931 -0.6863 -0.5955  0.1715
 5495SOL    HW119023   5.371   7.880   0.874 -3.1038 -0.7024 -1.8915
 5495SOL    HW219024   5.363   7.731   0.903 -0.8817 -0.5428 -0.2260
 5496SOL     OW19025   2.932   8.241   9.547 -0.1053  0.1198 -0.1082
 5496SOL    HW119026   2.990   8.283   9.610 -0.7389  1.3051 -0.2920
 5496SOL    HW219027   2.861   8.205   9.600  1.6091 -2.8122  0.2914
 5497SOL     OW19028   7.208   9.487   4.805  0.1532  0.6014 -0.5691
 5497SOL    HW119029   7.254   9.568   4.829  0.8437  0.3253 -0.9343
 5497SOL    HW219030   7.269   9.442   4.746 -0.0371 -0.3926 -0.0194
 5498SOL     OW19031   8.347   3.973   0.030 -0.0922  0.2895  0.0854
 5498SOL    HW119032   8.282   3.979   0.100 -1.5934 -2.3819 -0.9755
 5498SOL    HW219033   8.416   3.918   0.067 -0.5366 -0.5118 -0.2673
 5499SOL     OW19034   2.355   8.051   4.572  0.3662  0.0595 -0.1797
 5499SOL    HW119035   2.449   8.042   4.555  0.0915  1.5564 -2.7215
 5499SOL    HW219036   2.339   8.146   4.570 -1.4172 -0.2367 -1.1078
 5500SOL     OW19037   7.689   0.907  10.187 -0.3594 -0.3454 -0.0654
 5500SOL    HW119038   7.723   0.991  10.154 -2.0905 -0.3440 -1.9736
 5500SOL    HW219039   7.666   0.924  10.278 -1.2413  1.4395 -0.5965
 5501SOL     OW19040   5.150   1.812   5.335  0.3686 -0.0541 -0.1151
 5501SOL    HW119041   5.241   1.793   5.359  0.6983  1.7072  0.1591
 5501SOL    HW219042   5.157   1.887   5.275 -1.0202  1.3615  1.4674
 5502SOL     OW19043   9.814   1.377   1.988 -0.1854  0.6499  0.3239
 5502SOL    HW119044   9.833   1.395   2.080 -4.1207  0.1673  1.3322
 5502SOL    HW219045   9.784   1.461   1.953 -2.4100 -0.0027  0.5727
 5503SOL     OW19046   1.964   3.908   2.767  0.2737  0.6539 -0.0572
 5503SOL    HW119047   1.949   3.826   2.721 -1.7015  0.0405  1.6023
 5503SOL    HW219048   2.059   3.919   2.766  0.4331 -0.6796 -1.9039
 5504SOL     OW19049   2.120   0.313   2.517 -0.0967  0.3572 -0.0845
 5504SOL    HW119050   2.204   0.340   2.480  0.2589 -1.6849 -0.8916
 5504SOL    HW219051   2.125   0.336   2.610  0.9526  1.1503 -0.3326
 5505SOL     OW19052   4.053   7.032   1.765  0.2410  0.2931 -0.2155
 5505SOL    HW119053   4.016   6.978   1.835  2.2898 -1.5760 -0.4873
 5505SOL    HW219054   4.012   6.998   1.685  1.6992 -1.0933 -0.4109
 5506SOL     OW19055   2.424   1.900   7.386 -0.0562  0.3155 -0.3950
 5506SOL    HW119056   2.452   1.953   7.310 -1.1526 -0.8615 -1.6487
 5506SOL    HW219057   2.369   1.959   7.437  1.2346  1.3322 -0.1538
 5507SOL     OW19058   1.230   5.054   9.810 -0.1626  0.5371 -0.1510
 5507SOL    HW119059   1.253   5.101   9.890 -1.1839 -3.3106  2.5217
 5507SOL    HW219060   1.135   5.059   9.805 -0.2640 -0.9896  0.0347
 5508SOL     OW19061   6.550   8.699   7.114  0.0018 -0.6606  0.6453
 5508SOL    HW119062   6.497   8.761   7.063 -0.6651  0.1668  2.3025
 5508SOL    HW219063   6.569   8.745   7.196  0.9705 -1.9987  1.1948
 5509SOL     OW19064   8.577   4.304   9.666 -0.2930 -0.4072  0.3450
 5509SOL    HW119065   8.641   4.317   9.737  0.6247 -1.2608 -0.3204
 5509SOL    HW219066   8.585   4.212   9.642 -0.3789 -0.0586 -1.0735
 5510SOL     OW19067   7.925   0.299   4.877 -0.3713  0.2978 -0.7683
 5510SOL    HW119068   7.976   0.218   4.884 -0.1075  0.4732 -0.6200
 5510SOL    HW219069   7.889   0.297   4.789  0.1999  0.3499 -1.0042
 5511SOL     OW19070   1.032   0.668   4.271 -0.0770 -0.1063  0.2733
 5511SOL    HW119071   1.114   0.704   4.305 -1.7424  1.3365  2.9103
 5511SOL    HW219072   1.000   0.611   4.341 -0.5095 -2.0374 -1.4268
 5512SOL     OW19073   6.589   2.649   1.288  0.2908  0.4951  0.5126
 5512SOL    HW119074   6.563   2.723   1.343  0.0936 -0.1461  1.3032
 5512SOL    HW219075   6.532   2.578   1.316 -0.0212  0.2367 -0.7544
 5513SOL     OW19076   6.480   4.333   6.917 -0.1555  0.4316  0.6204
 5513SOL    HW119077   6.571   4.363   6.917  0.0144 -0.0716  0.4507
 5513SOL    HW219078   6.428   4.413   6.930  0.3311  0.6410  1.3345
 5514SOL     OW19079   4.531   4.516   0.261 -0.4576 -0.1392  0.4684
 5514SOL    HW119080   4.572   4.430   0.250  0.5526  0.6673 -2.3638
 5514SOL    HW219081   4.450   4.510   0.211 -1.5308 -0.1713  2.1721
 5515SOL     OW19082   2.943   3.409   6.207 -0.4789  0.6206  0.1027
 5515SOL    HW119083   2.983   3.400   6.294  0.7120 -1.4731 -0.6298
 5515SOL    HW219084   2.980   3.490   6.172  0.1579  0.7108  0.9763
 5516SOL     OW19085   9.121   4.217   6.060 -0.6028 -0.0708  0.2271
 5516SOL    HW119086   9.212   4.232   6.035 -0.3610 -0.5847  0.7741
 5516SOL    HW219087   9.098   4.292   6.114  0.5951 -1.5783  2.9464
 5517SOL     OW19088   9.018   2.312   6.786  0.1764  0.7818 -0.0016
 5517SOL    HW119089   9.025   2.229   6.740  1.9773  0.7239  0.3577
 5517SOL    HW219090   8.969   2.290   6.866 -1.4163  0.5488 -1.0201
 5518SOL     OW19091   7.718   9.817   9.213  0.4455 -0.0379 -0.3331
 5518SOL    HW119092   7.727   9.889   9.150  2.4780  0.7233  0.7594
 5518SOL    HW219093   7.630   9.827   9.248  0.2928  1.2246 -1.0208
 5519SOL     OW19094   1.506   9.558   2.213 -0.1751  0.0127  0.0277
 5519SOL    HW119095   1.469   9.531   2.129  1.1595 -1.8710 -0.0109
 5519SOL    HW219096   1.441   9.531   2.278 -1.3918  1.8475 -0.4254
 5520SOL     OW19097   4.397   8.972   1.776  0.1821 -0.3703 -0.1548
 5520SOL    HW119098   4.424   9.004   1.690  0.0809 -1.6207 -0.6601
 5520SOL    HW219099   4.324   9.029   1.801  0.4544  0.2303 -0.7293
 5521SOL     OW19100   4.721   3.222   5.900  0.0527  1.0209  0.2332
 5521SOL    HW119101   4.788   3.290   5.892  1.4726 -0.3246  0.5900
 5521SOL    HW219102   4.724   3.176   5.817 -0.2744  0.8159  0.3358
 5522SOL     OW19103   7.993   1.425   9.005 -0.3605 -0.8602 -0.6255
 5522SOL    HW119104   8.061   1.418   8.939 -1.0118 -0.3449 -1.3607
 5522SOL    HW219105   7.994   1.340   9.049  0.4635 -1.0036 -0.9095
 5523SOL     OW19106   6.930   0.602   3.980 -0.1790  0.2111  0.1444
 5523SOL    HW119107   6.909   0.552   3.901  1.9584 -0.3189 -0.0976
 5523SOL    HW219108   6.923   0.694   3.953  0.2901  0.0341 -0.5750
 5524SOL     OW19109   9.596   4.744   4.626  0.2786 -0.5482 -0.2773
 5524SOL    HW119110   9.620   4.666   4.676 -0.1750 -0.1023  0.6573
 5524SOL    HW219111   9.503   4.733   4.607  0.1886 -0.1959 -0.0548
 5525SOL     OW19112   7.915   1.922   2.592  0.2452 -0.1950 -0.7932
 5525SOL    HW119113   7.995   1.897   2.640  0.2512 -0.9231 -1.1655
 5525SOL    HW219114   7.939   2.002   2.546  0.2320  0.5161  0.4387
 5526SOL     OW19115   0.014   3.771   8.649 -0.0901 -1.0664  0.1622
 5526SOL    HW119116   0.030   3.859   8.684 -0.6509 -0.5471 -0.8603
 5526SOL    HW219117  -0.072   3.747   8.684  0.1829 -1.3213  0.6604
 5527SOL     OW19118   0.998   8.868   1.445  0.0964  0.2207  0.3204
 5527SOL    HW119119   0.939   8.828   1.380 -2.7499  0.5951  2.5868
 5527SOL    HW219120   1.037   8.793   1.490  1.5727 -0.0317 -1.3011
 5528SOL     OW19121   8.223   7.395   2.733 -0.5225  0.0565  0.0398
 5528SOL    HW119122   8.257   7.381   2.645 -0.1269  1.0841  0.0120
 5528SOL    HW219123   8.301   7.404   2.787 -0.7658 -0.3855  0.4611
 5529SOL     OW19124   0.051   4.794   5.146  0.2179  0.1268  0.0860
 5529SOL    HW119125   0.117   4.753   5.202 -0.1060 -0.0510  0.3426
 5529SOL    HW219126   0.063   4.754   5.060 -0.4486 -0.9103  0.4622
 5530SOL     OW19127   2.264   0.921   5.379 -0.1406 -0.4243  0.0225
 5530SOL    HW119128   2.205   0.864   5.428 -1.6087  0.2851 -0.8739
 5530SOL    HW219129   2.228   0.923   5.290  2.2948 -1.4343 -1.0576
 5531SOL     OW19130   5.560   0.282   3.747 -0.5358  0.2482 -0.3043
 5531SOL    HW119131   5.578   0.250   3.835  1.1153 -0.3762 -0.8556
 5531SOL    HW219132   5.614   0.361   3.739 -1.5774  0.9715 -0.3561
 5532SOL     OW19133   5.980   5.899   8.891 -0.0058 -0.0060  0.1598
 5532SOL    HW119134   5.988   5.868   8.981 -1.5477  0.2673  0.4117
 5532SOL    HW219135   5.958   5.820   8.841  0.9119 -0.1687  0.0135
 5533SOL     OW19136   2.985   0.593   6.743  0.0162  0.3352 -0.2500
 5533SOL    HW119137   2.939   0.611   6.825  2.6541  0.8039  1.1513
 5533SOL    HW219138   2.928   0.632   6.676 -1.1330  1.8243  1.5163
 5534SOL     OW19139   8.392   5.085   5.239  0.4112  0.1318  0.4938
 5534SOL    HW119140   8.296   5.084   5.247  0.4411 -0.1405  0.8442
 5534SOL    HW219141   8.414   5.176   5.218 -0.0297 -0.0774 -0.8993
 5535SOL     OW19142   9.938   6.311   0.880  0.2921  0.3235 -0.1722
 5535SOL    HW119143   9.845   6.307   0.902  0.2578 -0.8813 -0.4686
 5535SOL    HW219144   9.952   6.233   0.826  1.2086  1.1561 -1.1436
 5536SOL     OW19145   1.742   7.455   6.528  0.0678 -0.0678  0.6766
 5536SOL    HW119146   1.771   7.520   6.593  2.0726 -0.3828  0.1329
 5536SOL    HW219147   1.718   7.506   6.451  0.6231  0.1106  0.6201
 5537SOL     OW19148   7.068   5.247   7.348 -0.1569 -0.0874  0.2911
 5537SOL    HW119149   7.134   5.310   7.319  1.8785 -1.0970  2.4978
 5537SOL    HW219150   7.045   5.276   7.436 -1.2455 -0.8503  0.2623
 5538SOL     OW19151   2.967   4.078   6.402  0.2489  0.2215  0.0698
 5538SOL    HW119152   3.013   4.105   6.323  0.7433  1.3337  0.7273
 5538SOL    HW219153   3.034   4.078   6.470 -0.2389 -0.4416  0.5570
 5539SOL     OW19154   2.271   0.578   6.154  0.0196  0.3103  0.0032
 5539SOL    HW119155   2.242   0.502   6.104  0.3841  0.3018 -0.1937
 5539SOL    HW219156   2.344   0.614   6.103  0.4343  0.2603  0.5683
 5540SOL     OW19157   5.446   6.221   4.920  0.3027  0.1067  0.1754
 5540SOL    HW119158   5.403   6.280   4.858 -0.5144 -1.4166 -0.7293
 5540SOL    HW219159   5.520   6.186   4.872  0.1700 -0.4096  0.3429
 5541SOL     OW19160   6.428   3.827   5.747 -0.7546 -0.2610  0.1738
 5541SOL    HW119161   6.371   3.809   5.821  1.1442 -1.6658  1.3455
 5541SOL    HW219162   6.472   3.909   5.769 -0.4212 -0.5176  0.4696
 5542SOL     OW19163   2.227   9.835   3.517 -0.7612  0.0435  0.5671
 5542SOL    HW119164   2.284   9.836   3.594  0.5775  1.6966 -0.3938
 5542SOL    HW219165   2.176   9.916   3.524 -2.4265 -1.0255  0.9972
 5543SOL     OW19166   9.376   8.384   1.226  0.2566  0.4546  0.0634
 5543SOL    HW119167   9.309   8.448   1.202 -2.0011 -1.5039  1.0327
 5543SOL    HW219168   9.417   8.422   1.304 -3.0979 -0.5936  2.4412
 5544SOL     OW19169   3.167   2.687   1.927 -0.9983  0.4247 -1.0468
 5544SOL    HW119170   3.150   2.594   1.914  0.3820  0.0993 -0.6027
 5544SOL    HW219171   3.238   2.690   1.992 -0.2064  1.7448 -1.9519
 5545SOL     OW19172   2.088   1.870   6.684 -0.0636 -0.2101  0.2542
 5545SOL    HW119173   2.008   1.917   6.663  0.6076  1.4789  1.4569
 5545SOL    HW219174   2.129   1.920   6.754  3.4615  0.5491 -2.2102
 5546SOL     OW19175   4.305   3.064   5.685 -0.2884 -0.3375  0.7876
 5546SOL    HW119176   4.226   3.087   5.637 -1.2287 -2.2882  1.3437
 5546SOL    HW219177   4.336   3.147   5.723 -0.9578  0.7645 -1.0198
 5547SOL     OW19178   7.874   2.887   1.678  0.0342  0.2828  0.3520
 5547SOL    HW119179   7.965   2.907   1.698 -0.0429 -0.4724  1.4793
 5547SOL    HW219180   7.872   2.874   1.583  1.5372 -1.9518  0.6077
 5548SOL     OW19181   9.631   1.877   2.545 -0.2359 -0.2298  0.1313
 5548SOL    HW119182   9.718   1.905   2.572  0.0940 -1.6973  0.6290
 5548SOL    HW219183   9.638   1.866   2.450 -0.4756  1.6656 -0.1343
 5549SOL     OW19184   8.612   2.571   6.553 -0.1792 -0.2939 -0.1392
 5549SOL    HW119185   8.604   2.575   6.458  0.3229 -1.6930 -0.2559
 5549SOL    HW219186   8.701   2.538   6.568 -0.6285 -1.1361  0.7817
 5550SOL     OW19187   9.350   0.790   0.470 -0.4983  0.2742  0.3392
 5550SOL    HW119188   9.350   0.833   0.385 -1.3088 -0.7905 -0.2043
 5550SOL    HW219189   9.306   0.852   0.528 -1.8399  0.0907 -0.4860
 5551SOL     OW19190   5.553   2.755   7.427 -0.4069 -0.2333  0.5424
 5551SOL    HW119191   5.618   2.786   7.364  0.5275  2.2751  2.6598
 5551SOL    HW219192   5.594   2.681   7.471  0.5502  0.5773  1.0176
 5552SOL     OW19193   2.527   4.085   5.684  0.1284 -0.5716  0.1701
 5552SOL    HW119194   2.589   4.147   5.722  0.3391  0.7476 -2.2335
 5552SOL    HW219195   2.580   4.009   5.661  0.5919 -0.0375 -0.5335
 5553SOL     OW19196   7.703   4.569   1.156 -0.2638 -0.0852  0.3120
 5553SOL    HW119197   7.673   4.651   1.197  2.7485  1.1363  0.1903
 5553SOL    HW219198   7.778   4.542   1.209  0.5173 -1.2368 -1.3534
 5554SOL     OW19199   0.440   9.083   9.816 -0.0386  0.3066  0.0791
 5554SOL    HW119200   0.408   9.029   9.888 -0.0676  0.6137  0.2969
 5554SOL    HW219201   0.424   9.032   9.737 -0.9413  0.4113  0.1975
 5555SOL     OW19202   6.199   1.914   4.337  0.0955  0.5245  0.9133
 5555SOL    HW119203   6.209   2.008   4.319 -2.0683  0.6856  0.4340
 5555SOL    HW219204   6.199   1.908   4.432 -1.1000  1.1931  0.9667
 5556SOL     OW19205   4.756   2.147   2.261 -0.1824 -0.2348  0.1318
 5556SOL    HW119206   4.734   2.088   2.333 -1.3960 -0.9830 -0.8427
 5556SOL    HW219207   4.703   2.117   2.188  0.3464  1.1053 -0.8231
 5557SOL     OW19208   9.406   4.820   9.947 -0.2726  0.2284  0.2873
 5557SOL    HW119209   9.327   4.793   9.899 -0.7504  1.4442  0.3465
 5557SOL    HW219210   9.426   4.747  10.005 -1.1740 -0.2295  0.0313
 5558SOL     OW19211   6.354   5.785   8.674  0.3015 -0.4296  0.9026
 5558SOL    HW119212   6.425   5.845   8.699  0.0734 -0.9308  2.8276
 5558SOL    HW219213   6.392   5.698   8.683 -0.3727 -0.6802  1.2882
 5559SOL     OW19214   1.960   7.589   3.032 -0.1518  0.2738 -0.4161
 5559SOL    HW119215   1.934   7.594   3.124 -0.9633 -0.6717 -0.5940
 5559SOL    HW219216   1.981   7.497   3.018 -1.3501  0.1580 -1.5348
 5560SOL     OW19217   8.354   2.361   5.690  0.1871 -0.1255 -0.0687
 5560SOL    HW119218   8.307   2.364   5.607 -0.3220 -1.0044  0.1758
 5560SOL    HW219219   8.321   2.282   5.733 -0.9849  1.3425  1.8119
 5561SOL     OW19220   0.705   5.356   4.333 -0.2433  0.5241 -0.1779
 5561SOL    HW119221   0.686   5.270   4.296  3.9205 -0.8194  0.5839
 5561SOL    HW219222   0.747   5.405   4.262 -0.3831  1.0717  0.1070
 5562SOL     OW19223   6.309   2.638   1.968 -0.2769 -0.0215 -0.2452
 5562SOL    HW119224   6.367   2.572   2.006  0.9831  1.4279  0.3960
 5562SOL    HW219225   6.225   2.625   2.011  0.4117 -0.1487  1.0854
 5563SOL     OW19226   7.986   8.118   7.537  0.0700  0.4336 -0.5127
 5563SOL    HW119227   8.044   8.192   7.557 -0.0412  1.2511 -3.0359
 5563SOL    HW219228   7.898   8.155   7.536 -0.5738 -0.7967  3.2421
 5564SOL     OW19229   1.499   8.968   4.823 -0.0524 -0.5302 -0.5763
 5564SOL    HW119230   1.538   9.051   4.795 -1.0641  0.3278  0.4524
 5564SOL    HW219231   1.573   8.913   4.847  0.6795 -0.3156 -2.2775
 5565SOL     OW19232   3.300   1.569   5.748 -0.1232 -0.2973  0.2120
 5565SOL    HW119233   3.237   1.584   5.676 -0.1304  0.1173  0.3046
 5565SOL    HW219234   3.273   1.485   5.786 -0.9903  0.1668  0.6288
 5566SOL     OW19235   6.521   2.736   3.255  0.4860  0.0186 -0.4989
 5566SOL    HW119236   6.526   2.677   3.180 -0.4266 -0.0902 -0.4845
 5566SOL    HW219237   6.471   2.811   3.223  0.0929 -0.0272 -0.0070
 5567SOL     OW19238  10.032   2.748   6.807 -0.0889 -0.5022 -0.3101
 5567SOL    HW119239  10.037   2.832   6.761 -0.1863 -0.4136 -0.1590
 5567SOL    HW219240  10.050   2.682   6.739 -0.5947 -0.3935 -0.5519
 5568SOL     OW19241   6.281   7.896   1.017 -0.4738 -0.1317 -0.6131
 5568SOL    HW119242   6.341   7.827   0.990 -1.8238 -0.6168 -2.5495
 5568SOL    HW219243   6.316   7.975   0.977 -1.7248 -0.6198 -2.7787
 5569SOL     OW19244   1.917   8.900   0.076 -0.0478 -0.2919  0.0735
 5569SOL    HW119245   1.892   8.973   0.019 -3.2538 -0.9826  0.4936
 5569SOL    HW219246   1.904   8.933   0.165 -2.1764 -1.5323  0.2572
 5570SOL     OW19247  10.123   3.186   9.238  0.3699  0.0655 -0.2959
 5570SOL    HW119248  10.082   3.127   9.302  1.5934  1.0165  1.3921
 5570SOL    HW219249  10.199   3.137   9.206  1.2518  0.5940  0.9348
 5571SOL     OW19250   8.062   5.227   5.069 -0.1232 -0.5569 -0.2757
 5571SOL    HW119251   8.070   5.270   5.154 -0.4750 -0.4781 -0.2827
 5571SOL    HW219252   7.971   5.196   5.066  0.1464 -1.3703 -0.2312
 5572SOL     OW19253   4.348   8.740   7.292 -0.6378 -0.0257  0.0683
 5572SOL    HW119254   4.312   8.783   7.214 -2.0140  0.6441  1.0582
 5572SOL    HW219255   4.391   8.811   7.340 -1.0680 -0.1538  0.6433
 5573SOL     OW19256   8.257   9.031   6.967  0.2628 -0.3589  0.1845
 5573SOL    HW119257   8.215   9.114   6.990  0.1388 -0.2790 -0.3192
 5573SOL    HW219258   8.185   8.973   6.944  0.5015  0.5256 -3.1149
 5574SOL     OW19259   7.709   7.983   8.694 -0.3501  0.8599 -0.2628
 5574SOL    HW119260   7.636   8.016   8.642 -0.5256  1.1300  0.1528
 5574SOL    HW219261   7.742   8.061   8.740 -2.7888 -0.0429  3.2340
 5575SOL     OW19262   7.495   6.744   7.996 -0.5437  0.1976  0.1843
 5575SOL    HW119263   7.404   6.717   8.011 -0.6140  1.6346  2.6048
 5575SOL    HW219264   7.488   6.824   7.945 -0.6455  0.3314  0.4066
 5576SOL     OW19265   5.558   3.581   1.800  0.0794  0.5992  0.2274
 5576SOL    HW119266   5.497   3.653   1.813  0.2688  0.5781  1.3038
 5576SOL    HW219267   5.503   3.505   1.782 -0.2097  0.6425  0.8969
 5577SOL     OW19268   3.690   8.892   0.901 -0.6567  0.3386  0.0139
 5577SOL    HW119269   3.761   8.955   0.887 -1.6975  1.7963  1.3136
 5577SOL    HW219270   3.718   8.814   0.851  2.0897  0.7039  0.9108
 5578SOL     OW19271   3.835   2.102   8.625  0.0972  0.4034  0.1669
 5578SOL    HW119272   3.749   2.059   8.628  1.1385 -1.7072  0.1564
 5578SOL    HW219273   3.850   2.129   8.716 -0.3028  0.2256  0.2904
 5579SOL     OW19274   9.047   8.157   8.295  0.3108  0.5977  0.2185
 5579SOL    HW119275   9.008   8.157   8.382 -2.0027 -0.3264 -0.7557
 5579SOL    HW219276   9.052   8.064   8.271  0.7689  0.8497 -0.6821
 5580SOL     OW19277   9.985   8.651   2.958  0.4563 -0.1539 -0.3196
 5580SOL    HW119278  10.019   8.725   3.009  0.3221 -0.6294  0.4780
 5580SOL    HW219279   9.909   8.622   3.008 -0.3853  0.1100 -1.4299
 5581SOL     OW19280   0.341   0.821   5.669 -0.5685  0.0123  0.2146
 5581SOL    HW119281   0.389   0.742   5.640  2.7138  1.0762  2.4118
 5581SOL    HW219282   0.294   0.792   5.747  3.0183  0.8142  2.8041
 5582SOL     OW19283   5.388   6.548   1.640 -0.6544 -0.7553  0.0046
 5582SOL    HW119284   5.380   6.635   1.601 -0.8679 -1.1672 -0.8869
 5582SOL    HW219285   5.479   6.543   1.668 -0.9378  0.1867  1.1011
 5583SOL     OW19286   8.935   1.582   7.110 -0.5182 -0.0143 -0.1528
 5583SOL    HW119287   9.027   1.561   7.127 -0.5877 -0.6394 -0.5358
 5583SOL    HW219288   8.898   1.501   7.073 -1.2127  0.2412 -0.0268
 5584SOL     OW19289   1.260   9.159   5.248 -0.1767  0.6538  0.1813
 5584SOL    HW119290   1.351   9.177   5.226  0.5056 -2.4488  0.3182
 5584SOL    HW219291   1.218   9.141   5.164  0.2007 -1.5055  0.4273
 5585SOL     OW19292   2.272   4.325   4.646  0.0701 -0.0408  0.4415
 5585SOL    HW119293   2.306   4.405   4.686  0.4113 -1.3173  2.7631
 5585SOL    HW219294   2.197   4.301   4.700 -1.1026 -0.3415 -1.2962
 5586SOL     OW19295   9.678   5.925   6.047  0.0548 -0.4147  0.9396
 5586SOL    HW119296   9.677   5.840   6.090  1.6624 -1.0606 -0.2169
 5586SOL    HW219297   9.683   5.904   5.954 -0.9543  0.9495  0.5739
 5587SOL     OW19298   1.619   8.799   8.884  0.6768  0.2530 -0.2469
 5587SOL    HW119299   1.546   8.806   8.822 -0.2288  0.0931  0.7882
 5587SOL    HW219300   1.580   8.816   8.969  1.7467 -0.3956  0.3896
 5588SOL     OW19301   2.187   2.476   2.059 -0.5044  0.0927 -0.0906
 5588SOL    HW119302   2.238   2.400   2.085  2.2039  1.9083  0.1149
 5588SOL    HW219303   2.163   2.519   2.141  0.5125  1.0510 -0.2817
 5589SOL     OW19304  10.137   0.358   3.102  0.0924  0.6258  0.1006
 5589SOL    HW119305  10.100   0.423   3.043 -0.2742 -1.2539 -1.8020
 5589SOL    HW219306  10.197   0.407   3.158  0.5552  2.4284 -1.9412
 5590SOL     OW19307   0.463   8.724   6.133 -0.3085 -0.1068  0.5721
 5590SOL    HW119308   0.547   8.729   6.179  0.4845 -2.1837 -0.5985
 5590SOL    HW219309   0.401   8.695   6.200  0.2979 -0.4822  0.9765
 5591SOL     OW19310   9.071  10.151   6.489  0.0139  0.3536 -0.2793
 5591SOL    HW119311   8.993  10.204   6.474 -0.0435  0.6255  0.9732
 5591SOL    HW219312   9.071  10.133   6.583  1.1716 -0.0921 -0.3521
 5592SOL     OW19313   5.840   7.499   3.158  0.0806 -0.4505 -0.0224
 5592SOL    HW119314   5.917   7.500   3.101 -0.3099 -0.9476 -0.5659
 5592SOL    HW219315   5.831   7.407   3.183 -0.2683 -0.3702  0.1335
 5593SOL     OW19316   0.180   0.195   6.171 -0.4185  0.2167 -0.3084
 5593SOL    HW119317   0.181   0.150   6.086  0.8859  0.3892 -0.3989
 5593SOL    HW219318   0.182   0.288   6.149  1.2717  0.2441 -0.0880
 5594SOL     OW19319   0.074   3.604   2.865  0.1730 -0.4227  0.1738
 5594SOL    HW119320   0.062   3.544   2.792 -0.4258  1.6691 -1.4785
 5594SOL    HW219321   0.111   3.549   2.935 -0.4848 -2.7248 -1.2295
 5595SOL     OW19322   2.970   5.153   3.966  0.7916  0.2579 -0.2116
 5595SOL    HW119323   2.974   5.118   4.055 -0.2651 -1.6180 -0.8729
 5595SOL    HW219324   3.056   5.135   3.929  0.6232 -0.6536 -0.1712
 5596SOL     OW19325   6.932   1.390   2.925 -0.1840  0.2334  0.1142
 5596SOL    HW119326   6.884   1.447   2.986  1.0465  0.3769  0.9640
 5596SOL    HW219327   6.972   1.323   2.981 -0.8123 -0.9130 -0.7743
 5597SOL     OW19328   2.065   7.415   7.881 -0.2853  0.3425  0.1720
 5597SOL    HW119329   1.975   7.424   7.849 -0.5148 -0.2339  0.6403
 5597SOL    HW219330   2.109   7.360   7.816 -0.3093  0.5125  0.0124
 5598SOL     OW19331   8.253   4.361   9.528  0.1715  0.0820 -0.6994
 5598SOL    HW119332   8.190   4.377   9.458 -0.6791 -0.5810 -0.0961
 5598SOL    HW219333   8.283   4.271   9.514  1.0109  0.3955 -0.9915
 5599SOL     OW19334   4.935   9.123   6.952  0.7418 -0.2113  0.3711
 5599SOL    HW119335   4.869   9.098   7.017 -0.6460  2.0680 -0.0630
 5599SOL    HW219336   4.908   9.078   6.872  0.3394 -0.1742  0.4827
 5600SOL     OW19337   8.073   8.600   8.206 -0.5053  0.2849 -0.5997
 5600SOL    HW119338   8.145   8.632   8.152 -1.2775  2.2782 -0.4902
 5600SOL    HW219339   8.033   8.531   8.154  0.1166  0.6795 -1.6136
 5601SOL     OW19340   5.740   8.482   9.805  0.2219  0.6816 -0.4068
 5601SOL    HW119341   5.736   8.476   9.900  0.9519  0.1094 -0.4014
 5601SOL    HW219342   5.789   8.403   9.779  0.4323  1.0760 -1.2136
 5602SOL     OW19343   6.873   1.817   4.848 -0.2274 -0.2969 -0.5249
 5602SOL    HW119344   6.948   1.875   4.857 -1.4929  1.0881  1.6650
 5602SOL    HW219345   6.838   1.837   4.761  0.3738  0.9788 -0.4883
 5603SOL     OW19346   6.807   6.704   8.423  0.0271 -0.1520  0.6248
 5603SOL    HW119347   6.778   6.736   8.337  0.0625 -1.1978  0.2082
 5603SOL    HW219348   6.862   6.774   8.457  1.3972 -0.4345 -0.9551
 5604SOL     OW19349   0.750   3.570   3.643 -0.6365  0.1854 -0.0190
 5604SOL    HW119350   0.689   3.603   3.709  0.6737  0.5200  1.0417
 5604SOL    HW219351   0.695   3.552   3.567 -2.1974 -0.3977  1.2174
 5605SOL     OW19352   1.609   3.525   8.560 -0.0081 -0.6607  0.2791
 5605SOL    HW119353   1.597   3.616   8.532  1.0039 -0.5378  0.2128
 5605SOL    HW219354   1.529   3.504   8.608 -1.1959 -0.4341 -1.5426
 5606SOL     OW19355   1.036   3.566   9.209 -0.2296  0.0533 -0.5092
 5606SOL    HW119356   1.113   3.601   9.254 -0.0352 -0.8069 -0.1461
 5606SOL    HW219357   1.025   3.621   9.132  0.8778  0.0554 -0.6744
 5607SOL     OW19358   5.559   7.044   7.812 -0.7294 -0.5329  0.4398
 5607SOL    HW119359   5.565   7.105   7.885 -2.0230 -0.3187  0.3768
 5607SOL    HW219360   5.481   6.991   7.831 -2.4770  1.0678 -1.9088
 5608SOL     OW19361   4.541   7.582   0.685  0.3541  0.0289  0.2016
 5608SOL    HW119362   4.557   7.491   0.661 -1.0680 -0.8077  2.2338
 5608SOL    HW219363   4.457   7.603   0.645  1.2535  0.8541 -1.2781
 5609SOL     OW19364   7.357   5.481   4.685  0.0148 -0.3428  0.1395
 5609SOL    HW119365   7.368   5.529   4.767  0.9065 -0.6286  0.1980
 5609SOL    HW219366   7.275   5.434   4.695  0.6449 -1.2175  1.3132
 5610SOL     OW19367   2.123   7.546   4.628  0.3753 -0.2585 -0.2378
 5610SOL    HW119368   2.048   7.542   4.687 -0.7795  1.9324 -1.4853
 5610SOL    HW219369   2.154   7.637   4.635  1.5527 -0.5543 -1.3777
 5611SOL     OW19370   0.331   4.925   9.254 -0.0647  0.0766  0.2895
 5611SOL    HW119371   0.378   4.859   9.203  0.1780 -0.9192  1.7674
 5611SOL    HW219372   0.396   4.993   9.271  0.3902 -0.5139  0.9249
 5612SOL     OW19373   6.712   9.038   4.631  0.2066  0.0497 -0.4598
 5612SOL    HW119374   6.737   8.970   4.693 -1.5480 -0.7857 -0.6486
 5612SOL    HW219375   6.728   9.120   4.677  1.9929 -0.4793 -0.1049
 5613SOL     OW19376   7.215   0.309   2.833 -0.0276  0.5495  0.4348
 5613SOL    HW119377   7.154   0.245   2.869  0.0313  0.2031 -0.0673
 5613SOL    HW219378   7.238   0.365   2.907 -0.4184  0.2560  0.7796
 5614SOL     OW19379   3.470   8.336  10.061  0.2602 -0.2959 -0.1049
 5614SOL    HW119380   3.382   8.331  10.024  0.4161 -1.5703 -0.3126
 5614SOL    HW219381   3.526   8.292   9.997  1.1956  1.2887 -0.3998
 5615SOL     OW19382   6.550   1.856   2.891 -0.2564  0.1561  0.0512
 5615SOL    HW119383   6.507   1.933   2.854 -2.1148 -1.4770 -1.2976
 5615SOL    HW219384   6.643   1.869   2.873 -0.8028  0.8820 -2.4638
 5616SOL     OW19385   2.710   1.560   4.204 -0.0766  0.1020 -0.8272
 5616SOL    HW119386   2.736   1.539   4.115  0.2386 -2.0346 -0.2704
 5616SOL    HW219387   2.790   1.593   4.245  0.7948 -2.4724 -0.3189
 5617SOL     OW19388   9.079   0.343   9.031 -0.0593  0.1157 -0.1160
 5617SOL    HW119389   9.067   0.427   9.074 -2.0215 -0.0640 -0.2723
 5617SOL    HW219390   9.117   0.286   9.099  0.3315  0.8402  0.2743
 5618SOL     OW19391   6.071   5.744   1.688 -0.4095 -0.2399 -0.3527
 5618SOL    HW119392   6.156   5.711   1.718 -0.9182  0.1058  1.5480
 5618SOL    HW219393   6.008   5.676   1.714 -1.0613  0.7637  0.7204
 5619SOL     OW19394   3.499   0.893   6.100  0.0330  0.8180  0.2255
 5619SOL    HW119395   3.554   0.931   6.169 -0.3214 -0.7334  1.3854
 5619SOL    HW219396   3.561   0.860   6.035  0.4508 -0.0047  1.0387
 5620SOL     OW19397   8.025   4.620   3.583 -0.6603  0.2259 -0.6548
 5620SOL    HW119398   8.087   4.691   3.603  0.2075 -0.2332 -1.6968
 5620SOL    HW219399   7.949   4.639   3.638  1.2291 -0.4114  2.3007
 5621SOL     OW19400   5.786   6.963   6.281 -0.3965  0.1048 -0.0808
 5621SOL    HW119401   5.804   6.991   6.371 -0.7903 -0.5889  0.2231
 5621SOL    HW219402   5.712   6.902   6.290 -0.0935 -0.3725 -0.8185
 5622SOL     OW19403   5.669   6.293   9.830  0.1695  0.3021 -0.0061
 5622SOL    HW119404   5.746   6.237   9.838  0.5216  0.9626  1.2613
 5622SOL    HW219405   5.647   6.289   9.737 -0.6906 -3.0780  0.2834
 5623SOL     OW19406   7.578   7.746   6.627 -0.0039  0.2384 -0.5793
 5623SOL    HW119407   7.569   7.707   6.714 -0.4147 -0.6846 -1.0281
 5623SOL    HW219408   7.651   7.699   6.587  0.2449  0.7255 -0.7061
 5624SOL     OW19409   9.926   5.891   0.542 -0.0466 -0.2277 -0.3100
 5624SOL    HW119410   9.934   5.907   0.448 -0.6677  1.8698 -0.0104
 5624SOL    HW219411   9.883   5.805   0.548  0.1274 -0.4332 -1.9392
 5625SOL     OW19412   6.896   2.913   8.518 -1.0530  0.4110 -0.2551
 5625SOL    HW119413   6.971   2.904   8.576 -1.2191  0.3143 -0.0564
 5625SOL    HW219414   6.855   2.826   8.518 -2.0206  0.8660  0.7949
 5626SOL     OW19415   5.974   0.437   7.473  0.2215 -0.6846 -0.1702
 5626SOL    HW119416   5.993   0.366   7.534 -0.0114 -0.6512 -0.0579
 5626SOL    HW219417   5.975   0.516   7.526  1.6670 -0.4640 -0.5116
 5627SOL     OW19418   6.029   6.549   8.947  0.3752 -0.5050  0.2529
 5627SOL    HW119419   6.097   6.613   8.964  1.1025 -1.1688 -0.1133
 5627SOL    HW219420   5.962   6.566   9.013  1.2697 -0.3709  1.1323
 5628SOL     OW19421   1.620   6.466   4.550  0.5755 -0.2747  0.2765
 5628SOL    HW119422   1.534   6.484   4.588  0.4510 -0.8963  0.2867
 5628SOL    HW219423   1.626   6.526   4.476 -0.0111 -0.4734  0.0639
 5629SOL     OW19424   4.580   9.404   6.351 -0.1999 -0.6184  0.2718
 5629SOL    HW119425   4.674   9.421   6.353 -0.3673  0.3277  0.0022
 5629SOL    HW219426   4.546   9.448   6.429 -0.4285 -0.9866  0.3854
 5630SOL     OW19427   0.372   4.667   3.025  0.1038  0.5089 -0.2891
 5630SOL    HW119428   0.430   4.623   3.088  0.9520 -0.7057 -1.8955
 5630SOL    HW219429   0.283   4.647   3.057  0.5104 -0.8539  0.0397
 5631SOL     OW19430  10.065   3.027   3.595 -0.0901  0.2189  0.0695
 5631SOL    HW119431   9.976   2.994   3.607 -0.4539  0.4121 -1.9251
 5631SOL    HW219432  10.117   2.948   3.577 -0.1797  0.2792 -0.4653
 5632SOL     OW19433   2.829   9.234   3.674 -0.5695 -0.1675  0.3060
 5632SOL    HW119434   2.830   9.164   3.609  1.4689 -0.5747  0.7534
 5632SOL    HW219435   2.851   9.313   3.625  1.9354 -0.6244  0.6245
 5633SOL     OW19436   7.269   7.362   3.735  0.4486 -0.5121 -0.3216
 5633SOL    HW119437   7.215   7.303   3.787  0.6553 -0.1393  0.3129
 5633SOL    HW219438   7.301   7.308   3.663 -1.0131 -0.6740 -0.8736
 5634SOL     OW19439   2.147   5.271   5.878 -0.1405  0.2995  0.1405
 5634SOL    HW119440   2.099   5.311   5.950 -0.3059  0.5749 -0.1248
 5634SOL    HW219441   2.159   5.341   5.815  0.9055  0.3222  0.3514
 5635SOL     OW19442   3.339   3.110   4.503 -0.3361  0.1424 -0.4203
 5635SOL    HW119443   3.308   3.155   4.581 -0.6332 -1.5067  0.4304
 5635SOL    HW219444   3.402   3.170   4.463 -0.1127  0.9490  1.1438
 5636SOL     OW19445   1.888   7.314   8.488 -0.2490  0.0904 -0.3139
 5636SOL    HW119446   1.859   7.282   8.402 -0.4828 -0.7454  0.0695
 5636SOL    HW219447   1.809   7.352   8.527  0.1197  1.5235 -0.9349
 5637SOL     OW19448   0.051   1.267   7.298  0.2208  0.2875 -0.0330
 5637SOL    HW119449   0.001   1.189   7.274 -0.5572  0.4491  1.0725
 5637SOL    HW219450  -0.000   1.310   7.366  1.8543  0.4568  1.1257
 5638SOL     OW19451   2.670   5.809   6.168 -0.2656  0.1370  0.5477
 5638SOL    HW119452   2.609   5.803   6.094  1.1329 -0.7896 -0.5519
 5638SOL    HW219453   2.754   5.828   6.128  0.5389 -0.4897  1.9072
 5639SOL     OW19454   9.957  10.115   9.023 -0.6102 -0.2050  0.2632
 5639SOL    HW119455   9.944  10.210   9.030  0.1981 -0.1215  0.7495
 5639SOL    HW219456  10.007  10.092   9.101  0.7611 -0.7455 -0.7480
 5640SOL     OW19457  10.077   0.054   6.594  0.2868  0.5462  0.0435
 5640SOL    HW119458  10.038   0.105   6.665  0.4898  0.6675  0.0685
 5640SOL    HW219459  10.002   0.015   6.548  0.2560 -1.8947  2.0587
 5641SOL     OW19460   2.426   6.473   0.519  0.5592  0.1947 -0.3296
 5641SOL    HW119461   2.390   6.518   0.443 -0.0461 -0.2466 -0.3118
 5641SOL    HW219462   2.405   6.380   0.504 -2.5239  0.4330  1.9537
 5642SOL     OW19463   9.669   9.286   5.407  0.1347  0.1366  0.2378
 5642SOL    HW119464   9.598   9.282   5.343 -0.1993  2.3967  0.4025
 5642SOL    HW219465   9.647   9.362   5.461  2.0327  0.0986  1.0803
 5643SOL     OW19466   2.463   9.107   0.777  0.0747 -0.5115 -0.0409
 5643SOL    HW119467   2.412   9.178   0.738 -1.1983 -0.6173  1.3919
 5643SOL    HW219468   2.487   9.051   0.703  2.8793  2.4683 -1.4969
 5644SOL     OW19469   9.878   6.297   8.444 -0.5736 -0.0769  0.0599
 5644SOL    HW119470   9.794   6.339   8.429 -0.6620 -0.2469  0.0821
 5644SOL    HW219471   9.858   6.204   8.451 -0.4636 -0.0595  0.6476
 5645SOL     OW19472   9.105   8.262   6.046 -0.4171  0.5513 -0.3972
 5645SOL    HW119473   9.046   8.294   6.114 -0.0822  1.1079 -0.3676
 5645SOL    HW219474   9.052   8.198   5.998 -0.3560 -0.5237  0.9496
 5646SOL     OW19475   4.630   9.864   2.066  0.5795 -0.0287  0.1347
 5646SOL    HW119476   4.636   9.857   2.162 -1.0534 -1.0748  0.1946
 5646SOL    HW219477   4.720   9.857   2.036  1.0863 -0.0093  1.5834
 5647SOL     OW19478   9.622   9.580   4.354 -0.0997 -0.3832  0.0821
 5647SOL    HW119479   9.597   9.547   4.440 -1.1507  0.6627  0.1971
 5647SOL    HW219480   9.666   9.663   4.372 -0.7282  0.0663 -0.4075
 5648SOL     OW19481   0.395   6.645   9.066  0.4687 -0.2821  0.3859
 5648SOL    HW119482   0.466   6.697   9.103 -2.1107  2.3286  1.9013
 5648SOL    HW219483   0.391   6.671   8.974  1.8126 -0.8540  0.1645
 5649SOL     OW19484   4.233   9.246   2.860  0.3841  0.1680  0.3517
 5649SOL    HW119485   4.281   9.261   2.941  0.6053  1.0899  0.0543
 5649SOL    HW219486   4.278   9.172   2.819  1.6723  1.1220 -0.0005
 5650SOL     OW19487   8.836   3.213   3.507  0.3041 -0.3566  0.5148
 5650SOL    HW119488   8.892   3.239   3.433 -1.1208 -0.0672 -0.4809
 5650SOL    HW219489   8.845   3.118   3.511  0.3730 -0.3764 -0.0539
 5651SOL     OW19490   8.585  10.147   5.583  0.1752  0.1788  0.0090
 5651SOL    HW119491   8.512  10.089   5.564  0.6329 -0.2164 -0.5544
 5651SOL    HW219492   8.590  10.205   5.507 -0.7289  1.4180  0.8899
 5652SOL     OW19493   9.590   9.777   7.456 -0.0230 -0.1814  0.1191
 5652SOL    HW119494   9.670   9.752   7.503 -0.5506 -1.2465  0.4613
 5652SOL    HW219495   9.528   9.707   7.476 -0.8582  0.3496 -0.6151
 5653SOL     OW19496   2.153   2.360   3.649  0.3282 -0.0336  0.3552
 5653SOL    HW119497   2.167   2.423   3.720  1.0166  0.8277 -0.5364
 5653SOL    HW219498   2.088   2.401   3.593  0.2509 -0.4353  0.1504
 5654SOL     OW19499   1.782   8.183   7.778  0.2658 -0.1306  0.3191
 5654SOL    HW119500   1.701   8.142   7.809  0.2217 -1.6302 -1.7094
 5654SOL    HW219501   1.753   8.240   7.707  0.4957  2.5397  2.2673
 5655SOL     OW19502   8.910   8.282   8.097 -0.3137  0.1574  0.3793
 5655SOL    HW119503   8.872   8.353   8.149 -0.6571 -0.2629  0.7073
 5655SOL    HW219504   8.957   8.228   8.160  1.0448  0.8116 -0.0670
 5656SOL     OW19505   7.941   6.416   9.872  0.3569  0.9136 -0.5221
 5656SOL    HW119506   7.871   6.373   9.823  0.5895  2.3194 -2.1795
 5656SOL    HW219507   8.013   6.353   9.872  0.3988  0.9353 -2.1641
 5657SOL     OW19508   0.466   2.501   8.408 -0.1292 -0.3076 -0.2926
 5657SOL    HW119509   0.392   2.542   8.364  0.7441  2.1778  0.4313
 5657SOL    HW219510   0.435   2.485   8.497  0.2266  0.9007  0.0626
 5658SOL     OW19511   0.834   3.199   8.222 -0.8083 -0.1099 -0.3002
 5658SOL    HW119512   0.747   3.230   8.194 -0.3270  0.9842 -0.6035
 5658SOL    HW219513   0.816   3.143   8.297 -1.7197  0.7681  0.1522
 5659SOL     OW19514   9.070   6.810   8.032  0.1714 -0.2124  0.5991
 5659SOL    HW119515   9.001   6.753   8.000  1.7618 -1.5079 -0.6509
 5659SOL    HW219516   9.026   6.873   8.089 -2.2607 -0.0353 -1.3980
 5660SOL     OW19517   3.327   6.561   0.168 -0.0463 -0.2581  0.2073
 5660SOL    HW119518   3.299   6.577   0.258 -0.5945 -1.6166  0.2866
 5660SOL    HW219519   3.247   6.573   0.116  0.4732  1.4866 -0.2279
 5661SOL     OW19520   1.371   8.813  10.043 -0.6749 -0.1542  0.5377
 5661SOL    HW119521   1.416   8.882  10.091  0.4507 -0.3217 -0.2636
 5661SOL    HW219522   1.435   8.742  10.038 -0.1580  0.4741 -2.6611
 5662SOL     OW19523   5.026   5.774   2.347 -0.0163 -0.1007  0.0398
 5662SOL    HW119524   4.936   5.743   2.351 -0.2087  0.4074 -0.2383
 5662SOL    HW219525   5.062   5.735   2.268 -0.1923  0.2169 -0.1970
 5663SOL     OW19526   4.980   4.257   0.505 -0.3565 -0.2770 -0.4968
 5663SOL    HW119527   5.018   4.204   0.575 -0.1259  1.0520  0.3968
 5663SOL    HW219528   4.918   4.314   0.549 -0.7150  0.0961 -1.4741
 5664SOL     OW19529   4.017   8.322   2.419 -0.0231 -0.0556  0.0461
 5664SOL    HW119530   4.016   8.235   2.381 -2.1822  0.6061 -1.5085
 5664SOL    HW219531   3.954   8.318   2.490  3.6507 -1.1532  3.4545
 5665SOL     OW19532   0.731   2.790   5.362  0.1780 -0.2061  0.2128
 5665SOL    HW119533   0.813   2.742   5.374  0.8483  1.0776  0.9783
 5665SOL    HW219534   0.760   2.879   5.338 -0.9208  0.8085  2.4743
 5666SOL     OW19535   8.449   0.397   0.092 -0.4701  0.0730  0.2473
 5666SOL    HW119536   8.476   0.308   0.115 -0.8620 -0.6135 -1.7859
 5666SOL    HW219537   8.528   0.450   0.101  0.0073 -0.6761  0.4787
 5667SOL     OW19538   1.778   4.517   8.380  0.2544  0.0741 -0.0958
 5667SOL    HW119539   1.799   4.427   8.356 -0.6484 -0.5832  1.5275
 5667SOL    HW219540   1.693   4.533   8.338  1.0438  0.6631 -1.5303
 5668SOL     OW19541   9.305   2.284   2.453  0.2677  0.4868 -0.2690
 5668SOL    HW119542   9.313   2.189   2.469  2.3175  0.3150 -2.0252
 5668SOL    HW219543   9.223   2.293   2.406  0.8181 -0.6510 -1.4979
 5669SOL     OW19544   4.971   0.301   0.795  0.6028  0.4418 -0.6103
 5669SOL    HW119545   5.038   0.257   0.847 -0.1440  0.4577  0.3789
 5669SOL    HW219546   4.975   0.259   0.709  1.5039  0.0704 -0.3891
 5670SOL     OW19547   0.627   0.372   6.026 -0.0257  0.4578 -0.2802
 5670SOL    HW119548   0.673   0.407   6.102 -0.0122  1.0949 -0.5778
 5670SOL    HW219549   0.556   0.434   6.010  0.5118  0.8066 -1.3398
 5671SOL     OW19550   8.782   7.867   8.734 -0.2344 -0.3992  0.0353
 5671SOL    HW119551   8.794   7.839   8.643  0.3456 -3.1487  0.9218
 5671SOL    HW219552   8.837   7.808   8.785 -1.6785  0.1759  2.3231
 5672SOL     OW19553   3.023   0.891   1.579 -0.4321 -0.4591  0.5499
 5672SOL    HW119554   2.969   0.929   1.510  0.6955 -0.4352 -0.3316
 5672SOL    HW219555   3.032   0.960   1.644  1.7944  0.8843 -1.1466
 5673SOL     OW19556   3.129   4.131   8.018  0.1208 -0.8174 -0.2609
 5673SOL    HW119557   3.216   4.155   7.986  0.1033  1.2308  1.1443
 5673SOL    HW219558   3.074   4.207   8.000 -1.7009 -2.4608 -2.0799
 5674SOL     OW19559   0.497   7.969   0.195 -0.5493 -0.3083 -0.1405
 5674SOL    HW119560   0.512   7.965   0.289  0.1114 -1.1068 -0.2728
 5674SOL    HW219561   0.580   7.943   0.156 -0.7900  0.1081 -0.9496
 5675SOL     OW19562   3.550   4.329   4.429 -0.5733 -0.1639 -0.1360
 5675SOL    HW119563   3.611   4.370   4.366 -0.3617 -0.8870 -0.4111
 5675SOL    HW219564   3.503   4.402   4.468  0.9811  0.4744  0.6011
 5676SOL     OW19565   9.525   0.600   0.049 -0.0288  0.2471  0.4670
 5676SOL    HW119566   9.434   0.605   0.079  0.2271  0.9356  1.1273
 5676SOL    HW219567   9.554   0.513   0.076 -1.0429 -0.6869 -1.3421
 5677SOL     OW19568   6.866   0.069   0.408 -0.3949  0.2299 -0.2443
 5677SOL    HW119569   6.820   0.124   0.472  0.7618  1.3219 -0.3243
 5677SOL    HW219570   6.869   0.122   0.329 -0.5919 -0.5622 -0.7874
 5678SOL     OW19571   2.128   1.584   7.344 -0.5106  0.0090  0.0856
 5678SOL    HW119572   2.182   1.508   7.367  1.0729  1.0116 -0.2603
 5678SOL    HW219573   2.136   1.591   7.249 -1.3351  0.1258  0.0184
 5679SOL     OW19574   5.739   2.591   2.760 -0.9639  0.3337  0.1954
 5679SOL    HW119575   5.644   2.585   2.764 -0.9284  0.2206  0.9757
 5679SOL    HW219576   5.758   2.683   2.777 -1.0155  0.7193 -1.7407
 5680SOL     OW19577   8.702   4.118   5.295  0.0516 -0.1637  0.3688
 5680SOL    HW119578   8.616   4.078   5.305 -0.2005  0.3197  0.0998
 5680SOL    HW219579   8.685   4.211   5.285  0.7267  0.2282  2.5416
 5681SOL     OW19580   9.885   7.226  10.016 -0.1250  0.3958  0.5048
 5681SOL    HW119581   9.865   7.313  10.052  0.4388  0.5401  0.4774
 5681SOL    HW219582   9.848   7.227   9.928  1.7399  1.3902 -0.3128
 5682SOL     OW19583   5.811   5.244   1.742  0.1676  0.6019 -0.3326
 5682SOL    HW119584   5.820   5.247   1.837  0.7114  2.3577 -0.4061
 5682SOL    HW219585   5.776   5.157   1.723  0.6316  0.0131  1.4199
 5683SOL     OW19586   4.161   0.843   1.581 -0.0744  0.1058  0.2298
 5683SOL    HW119587   4.067   0.844   1.595  0.0268  0.4747  0.9232
 5683SOL    HW219588   4.179   0.759   1.541 -0.7806  0.2886 -0.4737
 5684SOL     OW19589   2.151   4.241   9.545  0.2601 -0.4337 -0.2399
 5684SOL    HW119590   2.077   4.287   9.585  0.2049  0.4342 -1.3031
 5684SOL    HW219591   2.111   4.163   9.505  0.1608 -0.7744  0.5240
 5685SOL     OW19592   6.095   7.953  10.161 -0.3719  0.2000 -0.5100
 5685SOL    HW119593   6.015   7.930  10.113 -1.6553 -0.6383  1.9502
 5685SOL    HW219594   6.115   7.875  10.213  1.4511  0.7936 -0.3047
 5686SOL     OW19595   6.362   6.840   7.657  0.0198  0.0207  0.0673
 5686SOL    HW119596   6.291   6.904   7.653 -0.3428 -0.3607  0.3970
 5686SOL    HW219597   6.426   6.879   7.717 -0.1252  0.1491  0.1390
 5687SOL     OW19598  10.196   9.393   6.912 -0.0016  0.3680 -0.7631
 5687SOL    HW119599  10.246   9.362   6.836 -0.7304  1.7234 -1.8280
 5687SOL    HW219600  10.160   9.314   6.951  1.7046 -0.4953 -0.8736
 5688SOL     OW19601   2.200   5.338   3.244  0.3577  0.0819  0.3640
 5688SOL    HW119602   2.286   5.317   3.280  0.7078 -0.9154 -0.9846
 5688SOL    HW219603   2.157   5.253   3.233 -0.7011  0.5539  0.7725
 5689SOL     OW19604   3.878   6.193   7.737 -0.1841  0.4330  0.0108
 5689SOL    HW119605   3.804   6.254   7.741 -0.9077 -0.5215  1.3651
 5689SOL    HW219606   3.843   6.110   7.768  1.3108 -0.1901  0.0743
 5690SOL     OW19607   6.920   2.096   1.094 -0.6474 -0.4898  0.3987
 5690SOL    HW119608   6.903   2.071   1.003 -1.0690  1.2132 -0.0164
 5690SOL    HW219609   6.974   2.175   1.087  0.2544 -0.9823  1.6423
 5691SOL     OW19610   3.735   5.901   5.194  0.0458 -0.0452 -0.0598
 5691SOL    HW119611   3.706   5.843   5.264  0.3501 -0.8347 -0.5752
 5691SOL    HW219612   3.765   5.980   5.239  1.8988 -1.2228  0.8547
 5692SOL     OW19613  10.149   4.521   2.581  0.7901 -0.0127 -0.7021
 5692SOL    HW119614  10.140   4.567   2.498 -1.3602 -0.4533 -0.7411
 5692SOL    HW219615  10.173   4.590   2.643 -1.4237  1.0494 -0.9506
 5693SOL     OW19616   2.276   7.059   6.848  0.2269 -0.0458 -0.4501
 5693SOL    HW119617   2.328   6.992   6.893  0.7408 -0.3336 -1.4502
 5693SOL    HW219618   2.187   7.025   6.847  0.4021 -0.4965 -0.5459
 5694SOL     OW19619   2.267   8.193   9.741  0.2055  0.1518 -0.4035
 5694SOL    HW119620   2.244   8.125   9.804  1.8081 -1.3483 -1.3911
 5694SOL    HW219621   2.350   8.229   9.772 -0.4531  1.4519 -0.0808
 5695SOL     OW19622   6.460   1.081   6.962  0.2095  0.0553  0.4109
 5695SOL    HW119623   6.509   1.006   6.930  0.2865 -0.1674  1.0360
 5695SOL    HW219624   6.420   1.119   6.884 -0.3678 -1.0314  0.1658
 5696SOL     OW19625   9.725   0.493   5.283 -0.0987 -0.7596  0.1251
 5696SOL    HW119626   9.805   0.458   5.322 -0.8964 -1.3847  1.2613
 5696SOL    HW219627   9.755   0.548   5.211  1.3455 -1.0208  0.5047
 5697SOL     OW19628   8.881   4.193   3.594  0.1388  0.3973  0.5351
 5697SOL    HW119629   8.938   4.190   3.670 -0.1969  0.5672  0.7942
 5697SOL    HW219630   8.861   4.101   3.574  2.3777  0.2025 -0.9688
 5698SOL     OW19631   9.173   4.194   4.023  0.5510 -0.1514 -0.3372
 5698SOL    HW119632   9.215   4.108   4.017  0.0419 -0.5315  1.1370
 5698SOL    HW219633   9.112   4.197   3.949  2.0249 -0.2298 -1.5724
 5699SOL     OW19634   7.260   7.116   6.435  0.1847 -0.1640 -0.2370
 5699SOL    HW119635   7.243   7.204   6.402 -0.0541  0.6370  1.8941
 5699SOL    HW219636   7.267   7.128   6.530  0.3126 -2.4175  0.0555
 5700SOL     OW19637   8.419   4.914   1.532  0.2013  0.2135  0.2752
 5700SOL    HW119638   8.417   4.824   1.500  0.1103 -0.3564  1.8448
 5700SOL    HW219639   8.511   4.940   1.525 -0.1903  0.9790 -2.7685
 5701SOL     OW19640   3.828   8.387   8.715 -0.4103 -0.6031 -0.0243
 5701SOL    HW119641   3.746   8.339   8.711  0.1166 -1.5675  0.5787
 5701SOL    HW219642   3.880   8.341   8.781  1.2531 -1.0137 -1.5675
 5702SOL     OW19643  10.126   0.539   8.865  0.1949 -0.1281  0.3550
 5702SOL    HW119644  10.219   0.523   8.853  0.2328 -0.6976  1.3773
 5702SOL    HW219645  10.083   0.464   8.824  0.2185 -0.3572  0.7490
 5703SOL     OW19646   7.610   9.490   5.769  0.1604  0.3765 -0.4064
 5703SOL    HW119647   7.598   9.451   5.855  0.9205  2.1060  0.5166
 5703SOL    HW219648   7.657   9.424   5.718  0.4377 -0.3372  0.7720
 5704SOL     OW19649   2.875   8.192   8.742 -0.1933  0.4217 -0.2451
 5704SOL    HW119650   2.837   8.221   8.825  2.9040 -0.2039  1.4688
 5704SOL    HW219651   2.911   8.272   8.703  1.3801  0.2228  0.7219
 5705SOL     OW19652   6.578   8.415   2.483 -0.5230 -0.3524  0.2978
 5705SOL    HW119653   6.525   8.389   2.407 -1.0961 -1.2686  0.9933
 5705SOL    HW219654   6.653   8.356   2.481  0.1817  0.5453 -0.3373
 5706SOL     OW19655   7.526   1.860   0.630  0.0459 -0.6034  0.2956
 5706SOL    HW119656   7.447   1.909   0.654 -0.9703 -2.0771 -0.0184
 5706SOL    HW219657   7.583   1.867   0.706  0.0068  1.2203  0.2005
 5707SOL     OW19658   3.059   9.673   5.841 -0.1828 -0.2885 -0.2228
 5707SOL    HW119659   3.124   9.737   5.869 -1.1359  1.1677 -1.2511
 5707SOL    HW219660   3.063   9.675   5.746 -2.7105  0.9292 -0.3629
 5708SOL     OW19661   8.164   0.990   4.402 -0.1799 -0.8010  0.2964
 5708SOL    HW119662   8.092   1.014   4.344  0.9940 -0.4219 -1.0125
 5708SOL    HW219663   8.228   0.947   4.346  1.4520  0.5439  1.0910
 5709SOL     OW19664   3.219   4.813   1.226 -0.3236  0.1819  0.1807
 5709SOL    HW119665   3.234   4.805   1.132  0.7110 -0.1157  0.3666
 5709SOL    HW219666   3.290   4.762   1.266 -0.6137  0.5115  1.1246
 5710SOL     OW19667   0.823   2.841   5.881  0.7815 -0.2857 -0.3270
 5710SOL    HW119668   0.888   2.832   5.951 -0.7099  1.2438  1.3248
 5710SOL    HW219669   0.874   2.858   5.802  2.4012  0.6720  0.8986
 5711SOL     OW19670   4.088   2.955   6.568  0.1728 -0.0103 -0.3736
 5711SOL    HW119671   4.178   2.948   6.536 -0.0918 -3.2543 -0.5762
 5711SOL    HW219672   4.098   2.980   6.660  1.2573  0.0019 -0.4838
 5712SOL     OW19673   4.783   6.621   3.498  0.3565  0.2696 -0.3190
 5712SOL    HW119674   4.834   6.641   3.577  0.3494 -0.1822 -0.2014
 5712SOL    HW219675   4.834   6.556   3.451  0.0293  0.0321 -0.3489
 5713SOL     OW19676   3.067   8.522   5.624 -0.1693 -0.2154 -0.2972
 5713SOL    HW119677   3.058   8.556   5.713  1.3091  0.7724 -0.5077
 5713SOL    HW219678   3.060   8.599   5.568  1.4504 -0.4755 -0.8780
 5714SOL     OW19679   9.753   9.542   1.203 -0.4276 -0.1502 -0.3712
 5714SOL    HW119680   9.756   9.589   1.120 -0.8863 -0.5230 -0.5995
 5714SOL    HW219681   9.683   9.477   1.192  0.4295 -1.1217 -0.1964
 5715SOL     OW19682   3.230   6.985   8.676  0.1168  0.2242 -0.1458
 5715SOL    HW119683   3.324   6.976   8.692 -0.0799 -1.3808  0.2023
 5715SOL    HW219684   3.223   6.992   8.580  0.5774  0.0509 -0.1954
 5716SOL     OW19685   5.172   7.709   8.277 -0.5192 -0.5282  0.1196
 5716SOL    HW119686   5.133   7.764   8.345 -3.5814 -0.8344 -1.2777
 5716SOL    HW219687   5.170   7.621   8.315  2.6740 -0.0406  1.6249
 5717SOL     OW19688   3.967   9.541   3.301 -0.2810 -0.6458  0.3465
 5717SOL    HW119689   4.047   9.494   3.323  0.1525 -0.5657 -0.9945
 5717SOL    HW219690   3.912   9.476   3.257  0.1204 -0.0514 -1.0747
 5718SOL     OW19691   2.506  10.034   6.523  0.1881 -0.2719  0.6264
 5718SOL    HW119692   2.583  10.084   6.551 -0.3048  0.6512  0.3644
 5718SOL    HW219693   2.487  10.066   6.435  1.1681 -2.5006 -0.4447
 5719SOL     OW19694   9.916   8.396   9.903  0.2621 -0.5737 -0.0827
 5719SOL    HW119695   9.887   8.448   9.978 -2.4439 -0.3705 -1.1823
 5719SOL    HW219696   9.939   8.461   9.836  0.0861 -0.7644 -0.3290
 5720SOL     OW19697   1.027   8.376   6.745 -0.1736  0.1691 -0.0184
 5720SOL    HW119698   0.992   8.293   6.777  1.3030 -0.1607  0.8165
 5720SOL    HW219699   1.045   8.427   6.825 -1.1663  1.3428 -0.5226
 5721SOL     OW19700   6.820   9.052   7.077  0.3123 -0.0211 -0.2282
 5721SOL    HW119701   6.902   9.022   7.037  0.0604 -0.0448 -0.7319
 5721SOL    HW219702   6.781   9.109   7.011 -0.6501 -0.9508 -0.4869
 5722SOL     OW19703   7.306   4.480   9.137  0.0457  0.2850  0.2000
 5722SOL    HW119704   7.295   4.414   9.068 -0.9752  0.8637 -0.2046
 5722SOL    HW219705   7.218   4.492   9.173  0.3731  0.8302  0.8283
 5723SOL     OW19706   4.602   5.903   1.696  0.5279  0.3480  0.0427
 5723SOL    HW119707   4.622   5.812   1.674 -0.6682 -0.0049  0.3680
 5723SOL    HW219708   4.672   5.954   1.656  1.7563 -0.8036  0.7122
 5724SOL     OW19709   1.809   8.302   6.806 -0.7239 -0.1585 -0.3088
 5724SOL    HW119710   1.788   8.220   6.760  0.4959  0.3714 -1.8271
 5724SOL    HW219711   1.797   8.370   6.740 -1.9795  0.9490  1.0184
 5725SOL     OW19712   2.287   3.820   0.411  0.1110  0.0178  0.1633
 5725SOL    HW119713   2.285   3.908   0.450 -1.0172  0.5916 -1.1398
 5725SOL    HW219714   2.365   3.819   0.356  0.4307  0.0033  0.6124
 5726SOL     OW19715   8.115   6.989  10.022  0.0254 -0.0453 -1.0717
 5726SOL    HW119716   8.027   6.957  10.001 -0.4702  0.2661  0.4251
 5726SOL    HW219717   8.159   6.996   9.938 -0.2757 -3.4016 -1.5585
 5727SOL     OW19718   2.178   1.535   4.799  0.2533  0.2703  0.2993
 5727SOL    HW119719   2.221   1.457   4.765 -0.1429  0.6889 -1.2171
 5727SOL    HW219720   2.089   1.531   4.763 -0.2216  0.6881  1.3758
 5728SOL     OW19721   7.065   2.159   0.279  0.0265 -0.4416 -0.2713
 5728SOL    HW119722   7.002   2.121   0.340 -1.0462 -0.7744 -1.5631
 5728SOL    HW219723   7.066   2.253   0.301  0.6596 -0.7619  1.1269
 5729SOL     OW19724   3.509   2.776   1.822 -0.3350 -0.5150 -1.0805
 5729SOL    HW119725   3.513   2.691   1.865  0.9991 -0.6289 -1.4115
 5729SOL    HW219726   3.558   2.765   1.741  1.2041  0.9726 -0.3870
 5730SOL     OW19727   9.325   1.330   8.398 -0.1011 -0.7425 -0.2435
 5730SOL    HW119728   9.240   1.336   8.355 -0.3716 -0.1984  0.3551
 5730SOL    HW219729   9.321   1.249   8.449 -0.3801 -0.5402  0.0510
 5731SOL     OW19730   7.534   8.589   0.336 -0.3083 -0.4356  0.0841
 5731SOL    HW119731   7.499   8.641   0.409  1.4136  0.7712  0.0757
 5731SOL    HW219732   7.582   8.652   0.283  1.3003 -1.9235 -0.2586
 5732SOL     OW19733   2.857   0.103   6.368 -0.3504  0.2630 -0.2276
 5732SOL    HW119734   2.836   0.181   6.317 -1.1135  1.2897  1.5970
 5732SOL    HW219735   2.780   0.088   6.423  0.2462 -1.1033  0.2810
 5733SOL     OW19736   9.287   7.566   4.001  0.5614  0.3359 -0.2708
 5733SOL    HW119737   9.237   7.614   4.067 -1.1718  1.3455 -2.2919
 5733SOL    HW219738   9.242   7.482   3.991  0.9410  0.1007 -0.0454
 5734SOL     OW19739   7.450   4.965   1.024 -0.5173  0.9086  0.5336
 5734SOL    HW119740   7.498   4.976   1.106 -0.4899 -1.5665  0.8925
 5734SOL    HW219741   7.460   4.872   1.003 -2.5698  1.0122 -1.0090
 5735SOL     OW19742   5.463   0.488   0.011 -0.1317 -0.2340 -0.5243
 5735SOL    HW119743   5.449   0.549   0.083 -0.8948  0.8639 -1.5889
 5735SOL    HW219744   5.556   0.464   0.018  0.3945  1.6768 -0.5602
 5736SOL     OW19745   4.018   5.702   3.850 -0.4313 -0.2330 -0.0524
 5736SOL    HW119746   4.049   5.729   3.937 -0.1879  0.9274 -0.4833
 5736SOL    HW219747   3.996   5.784   3.806 -1.4732 -0.8698 -0.7528
 5737SOL     OW19748   6.466   3.953   4.549  0.0928  0.1875 -0.2904
 5737SOL    HW119749   6.503   4.019   4.608 -0.2157  0.5627 -0.5115
 5737SOL    HW219750   6.499   3.977   4.462 -0.8915  0.6926 -0.5293
 5738SOL     OW19751   1.237   3.358   0.784  0.1553  0.2741  0.3282
 5738SOL    HW119752   1.326   3.325   0.772  0.3557  1.2613 -0.9647
 5738SOL    HW219753   1.181   3.291   0.745  0.3535 -0.1663  0.7999
 5739SOL     OW19754   8.556   0.556   4.152 -0.1184  0.1318  0.2558
 5739SOL    HW119755   8.600   0.476   4.124  1.5778  0.9155  0.5971
 5739SOL    HW219756   8.515   0.591   4.073  0.9363  0.0467 -0.3316
 5740SOL     OW19757   2.639   1.981   1.082 -0.5040  0.0954  0.0054
 5740SOL    HW119758   2.575   1.910   1.084 -1.8612  1.3157  1.8414
 5740SOL    HW219759   2.612   2.040   1.153  2.2681  0.9761  0.4091
 5741SOL     OW19760   7.847   6.529   4.403  0.5705  0.0642 -0.4366
 5741SOL    HW119761   7.788   6.595   4.367  0.6792  0.4855  0.1456
 5741SOL    HW219762   7.838   6.539   4.498 -1.8933 -2.8948 -0.2572
 5742SOL     OW19763   2.385   4.523   7.994 -0.2369  0.0580  0.4528
 5742SOL    HW119764   2.378   4.428   7.991  1.7419 -0.1298  0.7046
 5742SOL    HW219765   2.295   4.554   8.004 -0.7172 -1.8711  2.5377
 5743SOL     OW19766   0.300   3.502   8.844 -0.1393 -0.1650 -0.1541
 5743SOL    HW119767   0.361   3.560   8.799  1.0900 -0.2965  1.3390
 5743SOL    HW219768   0.254   3.558   8.906  0.5524 -0.6365  0.7945
 5744SOL     OW19769   7.023   6.199   7.934 -0.1046  0.5144 -0.4047
 5744SOL    HW119770   7.027   6.251   7.854  2.2658  0.3174 -0.4537
 5744SOL    HW219771   7.085   6.128   7.920  0.9957  0.9611  1.9188
 5745SOL     OW19772   9.215   4.553   7.438 -0.0499 -0.0230  0.2497
 5745SOL    HW119773   9.306   4.525   7.430  0.4390  0.8966  2.3893
 5745SOL    HW219774   9.218   4.628   7.498 -2.0922  0.6892 -0.4897
 5746SOL     OW19775   6.473   3.068   9.090 -0.4254  0.3138 -0.0460
 5746SOL    HW119776   6.512   3.136   9.035  0.2367  0.4613  0.5953
 5746SOL    HW219777   6.408   3.115   9.143 -0.2068  0.3954  0.1541
 5747SOL     OW19778   8.156   7.224   9.518 -0.3749  0.2082 -0.2457
 5747SOL    HW119779   8.234   7.175   9.543 -1.8000 -1.3490  1.2821
 5747SOL    HW219780   8.160   7.304   9.570  0.2783  0.2074 -0.2938
 5748SOL     OW19781   1.839   1.718   5.170  0.1630 -0.2219 -0.0577
 5748SOL    HW119782   1.884   1.776   5.109  1.4845  0.1134  1.1972
 5748SOL    HW219783   1.881   1.736   5.255 -0.0611 -2.3101  0.5167
 5749SOL     OW19784   4.004   1.043   5.807  0.1495  0.2343  0.4659
 5749SOL    HW119785   3.937   1.084   5.861  1.4356 -0.3061  2.5237
 5749SOL    HW219786   4.087   1.073   5.844  1.0689  0.0198 -1.3416
 5750SOL     OW19787   9.254   7.587   8.900  0.1455 -0.2044  0.3602
 5750SOL    HW119788   9.335   7.542   8.925  1.9363  3.5075  1.6721
 5750SOL    HW219789   9.280   7.679   8.892 -3.3768  0.6637 -1.9754
 5751SOL     OW19790   4.445   7.584   2.945 -0.1872  0.0012 -0.0419
 5751SOL    HW119791   4.414   7.544   2.864  2.5760 -2.8662  0.1960
 5751SOL    HW219792   4.537   7.602   2.929 -0.2015  1.6944  1.6465
 5752SOL     OW19793   1.728   8.782   4.902  0.1033  0.2748 -0.1866
 5752SOL    HW119794   1.712   8.741   4.817 -0.2964  0.5546 -0.2477
 5752SOL    HW219795   1.812   8.747   4.930 -1.5093 -2.7855  1.0423
 5753SOL     OW19796   8.513   0.870   8.907  0.3921  0.1024  0.4549
 5753SOL    HW119797   8.571   0.887   8.981  1.6178  0.8521 -0.6730
 5753SOL    HW219798   8.544   0.927   8.838 -0.8150 -0.5167 -0.6223
 5754SOL     OW19799   0.608   1.209   4.544  0.4481  0.2223  0.2432
 5754SOL    HW119800   0.555   1.154   4.602 -1.7224  1.4819 -0.4691
 5754SOL    HW219801   0.656   1.267   4.604  0.3226 -0.3294  0.8876
 5755SOL     OW19802   0.167   5.385   3.132  0.6843 -0.4909  0.4297
 5755SOL    HW119803   0.113   5.332   3.191  0.8771 -1.0366  0.1255
 5755SOL    HW219804   0.251   5.394   3.177 -0.1868  1.7892  1.6698
 5756SOL     OW19805   9.786   8.404   9.033  0.2961  0.2258  0.3026
 5756SOL    HW119806   9.746   8.375   8.951 -1.7344  1.9904  0.6210
 5756SOL    HW219807   9.880   8.395   9.018 -0.0910 -0.8574 -1.6833
 5757SOL     OW19808   2.988   3.601   4.954  0.7414  0.1219  0.1343
 5757SOL    HW119809   2.899   3.580   4.925  0.3179  1.5553  0.3359
 5757SOL    HW219810   2.990   3.576   5.046  0.8820 -0.8894 -0.1408
 5758SOL     OW19811   4.399   9.506   0.520 -0.0363 -0.2924 -0.3406
 5758SOL    HW119812   4.483   9.552   0.528  0.2284 -0.9089  0.4358
 5758SOL    HW219813   4.377   9.480   0.609 -1.6463  0.9050 -0.3792
 5759SOL     OW19814   1.021   3.839   4.766 -0.4484  0.4388 -0.4514
 5759SOL    HW119815   1.098   3.783   4.755 -1.3373 -0.6167 -1.3813
 5759SOL    HW219816   0.997   3.865   4.677 -2.9817 -1.7606 -0.4990
 5760SOL     OW19817   9.277   3.353   3.783 -0.0078  0.0948  0.1630
 5760SOL    HW119818   9.257   3.423   3.845  0.9699 -0.0568  0.6612
 5760SOL    HW219819   9.191   3.320   3.756 -0.4558  0.2592  1.3348
 5761SOL     OW19820   5.966  10.127   6.212 -0.9594  0.2830 -0.2286
 5761SOL    HW119821   5.929  10.178   6.285 -1.9006 -0.2400 -0.3273
 5761SOL    HW219822   6.045  10.087   6.248 -2.2103 -1.1651  0.9608
 5762SOL     OW19823   0.402   1.862   9.463  0.0238  0.1452 -0.3119
 5762SOL    HW119824   0.388   1.874   9.368  0.5326 -1.8407 -0.6567
 5762SOL    HW219825   0.454   1.782   9.469  0.3452  0.5001  1.6442
 5763SOL     OW19826   1.380   0.558   5.576 -1.0524 -0.3710 -0.0137
 5763SOL    HW119827   1.361   0.496   5.505 -0.1398 -1.3177  0.5634
 5763SOL    HW219828   1.375   0.505   5.656 -0.0336  0.2469  0.4650
 5764SOL     OW19829   7.970   7.240   6.194  0.3131  0.4724  0.5841
 5764SOL    HW119830   7.937   7.324   6.227 -0.1467  1.1362 -1.4845
 5764SOL    HW219831   7.988   7.189   6.272 -0.8997  1.9400  1.8537
 5765SOL     OW19832   2.747   8.562   1.337  0.0016 -0.0944  0.7446
 5765SOL    HW119833   2.755   8.619   1.414  2.7414 -1.3293  1.4209
 5765SOL    HW219834   2.665   8.515   1.351  0.2411  0.0174  2.6952
 5766SOL     OW19835   8.534   0.426   1.135  0.0985 -0.5584  0.0216
 5766SOL    HW119836   8.496   0.406   1.221 -2.2981 -1.0379 -1.1130
 5766SOL    HW219837   8.530   0.521   1.128 -0.3206 -0.5621  0.1789
 5767SOL     OW19838   7.935   4.100   4.984  0.1455 -0.4025  0.2541
 5767SOL    HW119839   7.921   4.008   4.962  1.2054 -1.4521  3.6705
 5767SOL    HW219840   8.023   4.104   5.020 -0.0994  1.8291  0.7069
 5768SOL     OW19841   5.423  10.165   8.291 -0.4099  0.5736 -0.0898
 5768SOL    HW119842   5.449  10.230   8.356 -0.7451 -0.8855  1.5392
 5768SOL    HW219843   5.473  10.187   8.213 -0.1660  2.4856  0.5860
 5769SOL     OW19844   6.270   8.977   1.586  0.1459 -0.8898 -0.5235
 5769SOL    HW119845   6.225   9.012   1.663  0.3651  0.4096 -0.9868
 5769SOL    HW219846   6.320   8.902   1.620  0.6868  0.0123  0.7092
 5770SOL     OW19847   1.920  10.053   6.475  0.0974 -0.0276  0.1426
 5770SOL    HW119848   1.921  10.148   6.467  0.0196 -0.1557 -1.6880
 5770SOL    HW219849   1.870  10.023   6.399  2.1479 -1.6235 -0.6419
 5771SOL     OW19850   9.066   3.144   7.045 -0.7635 -0.0424  0.6215
 5771SOL    HW119851   9.000   3.203   7.082 -0.8509  0.5441 -0.4387
 5771SOL    HW219852   9.018   3.092   6.980  0.0169  1.1033 -0.8995
 5772SOL     OW19853   6.927   4.317  10.148 -0.7632  0.6052 -0.0731
 5772SOL    HW119854   6.904   4.323  10.241  1.4524 -1.9795  0.7030
 5772SOL    HW219855   6.854   4.268  10.109  0.0862 -1.6475  1.0699
 5773SOL     OW19856   0.845   9.430   7.427  0.1265 -0.2370  0.3324
 5773SOL    HW119857   0.765   9.385   7.399  0.3858  0.1563 -1.1022
 5773SOL    HW219858   0.815   9.517   7.453 -0.3416 -1.1192  2.8722
 5774SOL     OW19859   0.502   3.652   1.344 -0.4102 -0.6093 -0.2932
 5774SOL    HW119860   0.417   3.659   1.387  1.1370  2.8977  2.4357
 5774SOL    HW219861   0.559   3.610   1.408 -0.0364 -2.9222 -2.0964
 5775SOL     OW19862   2.457   6.100   8.362  0.4679 -0.7188 -0.1122
 5775SOL    HW119863   2.553   6.095   8.367  0.5814  2.2162  1.4866
 5775SOL    HW219864   2.429   6.121   8.451 -1.5913 -0.3028 -0.8281
 5776SOL     OW19865   1.997   3.954   4.079  0.0578 -0.0335  0.1202
 5776SOL    HW119866   1.955   3.891   4.020 -3.6664  2.4313 -0.0585
 5776SOL    HW219867   2.000   3.909   4.164 -2.1959 -0.6479 -0.0885
 5777SOL     OW19868   7.542   5.379   9.696 -0.3961 -0.4210 -0.4441
 5777SOL    HW119869   7.461   5.341   9.662 -2.9089  2.6248  1.8603
 5777SOL    HW219870   7.559   5.454   9.639  0.1010 -0.3084 -0.1493
 5778SOL     OW19871   4.615   8.024   0.921 -0.0615 -0.3692  0.3059
 5778SOL    HW119872   4.554   8.036   0.994 -0.9366  0.5463 -0.5621
 5778SOL    HW219873   4.567   7.971   0.858 -0.5926  1.6956 -1.0889
 5779SOL     OW19874   4.355   6.084   0.551 -0.1010  0.4685 -0.1211
 5779SOL    HW119875   4.341   6.072   0.645 -0.8393  1.1420 -0.1349
 5779SOL    HW219876   4.400   6.004   0.522  0.6975  0.5426  0.9157
 5780SOL     OW19877   1.318   1.605   3.170  0.4240 -0.3668 -0.1757
 5780SOL    HW119878   1.301   1.513   3.147 -0.7793 -0.0315 -0.6498
 5780SOL    HW219879   1.255   1.625   3.238 -0.4800  0.6126 -1.2906
 5781SOL     OW19880   5.819   1.320   4.850  0.0065  0.3437  0.5304
 5781SOL    HW119881   5.900   1.270   4.844  0.1006  0.6261 -0.7182
 5781SOL    HW219882   5.847   1.410   4.869  0.2623  1.1736 -3.2631
 5782SOL     OW19883   3.827   3.029   5.290 -0.3078 -0.2229 -0.0505
 5782SOL    HW119884   3.798   3.048   5.379  1.7530 -0.4063  0.6745
 5782SOL    HW219885   3.785   3.096   5.236  0.1945  1.2354  1.3546
 5783SOL     OW19886   6.526   6.696   7.485 -0.5526  0.0840 -0.4585
 5783SOL    HW119887   6.491   6.763   7.543 -0.4891 -0.2038 -0.0854
 5783SOL    HW219888   6.589   6.742   7.429 -2.3928  0.8568 -1.9587
 5784SOL     OW19889   0.960   5.925   1.542  0.4650  0.0413 -0.1677
 5784SOL    HW119890   0.993   5.857   1.483  0.5036 -0.7117  0.7190
 5784SOL    HW219891   1.035   5.983   1.556  1.6567 -2.0204  2.3531
 5785SOL     OW19892   8.747   0.682   5.353  0.0563  0.2341  0.1651
 5785SOL    HW119893   8.715   0.772   5.361  0.3952  0.1867  2.4114
 5785SOL    HW219894   8.781   0.677   5.264 -2.3599  1.5202 -0.8787
 5786SOL     OW19895   8.597   1.651   8.438 -0.1721 -0.2374  0.9300
 5786SOL    HW119896   8.627   1.738   8.412  0.3770 -1.0347 -1.1995
 5786SOL    HW219897   8.507   1.647   8.406 -0.3843 -0.2413  1.5300
 5787SOL     OW19898   1.132   4.370   5.562 -0.0552 -0.1909 -0.0766
 5787SOL    HW119899   1.066   4.436   5.539  2.0263  1.8686 -0.3005
 5787SOL    HW219900   1.192   4.369   5.488  0.5510 -1.6006  0.4111
 5788SOL     OW19901   2.491   9.613   3.308 -0.1644 -0.1328 -0.2097
 5788SOL    HW119902   2.418   9.553   3.321 -0.7378  0.2387 -1.5501
 5788SOL    HW219903   2.569   9.558   3.312 -0.5178 -0.5426  1.1636
 5789SOL     OW19904   3.536   9.256   9.797  0.7221 -0.2860 -0.6878
 5789SOL    HW119905   3.440   9.254   9.796  0.7039  0.5441 -1.1290
 5789SOL    HW219906   3.557   9.349   9.802  1.4672 -0.5660  4.1532
 5790SOL     OW19907   5.395   1.815   3.639  0.2849  0.2941 -0.1748
 5790SOL    HW119908   5.325   1.768   3.593  0.4576 -0.3333  0.1952
 5790SOL    HW219909   5.367   1.817   3.730  0.6852  0.1608 -0.0490
 5791SOL     OW19910   9.384  10.189   0.602  0.8312 -0.4818  0.2388
 5791SOL    HW119911   9.407  10.182   0.509 -0.2547 -2.3098  0.0889
 5791SOL    HW219912   9.411  10.106   0.640 -1.1531 -0.7934  1.0198
 5792SOL     OW19913   1.090   7.401   4.014  0.3561 -0.1540 -0.4303
 5792SOL    HW119914   1.049   7.420   4.098  0.3926 -0.4333 -0.3471
 5792SOL    HW219915   1.102   7.486   3.973  1.4723  0.0725  0.3765
 5793SOL     OW19916   9.580   7.388   6.589 -0.3260 -0.2948  0.1512
 5793SOL    HW119917   9.627   7.469   6.571 -2.2470  0.7312 -0.4189
 5793SOL    HW219918   9.534   7.405   6.672 -0.4688 -0.9371  0.2107
 5794SOL     OW19919   0.093   5.436   4.742  0.0063 -0.5137 -0.3309
 5794SOL    HW119920   0.168   5.377   4.747  1.1976  0.8843 -1.4044
 5794SOL    HW219921   0.120   5.504   4.680 -0.6478  2.1233  2.1587
 5795SOL     OW19922   2.457   2.600   1.168 -0.3347 -0.6730  0.3212
 5795SOL    HW119923   2.449   2.543   1.091 -1.5749 -2.8279  1.9715
 5795SOL    HW219924   2.524   2.557   1.222  0.1255  0.5180  0.7069
 5796SOL     OW19925   2.466   1.479   2.191  0.6457 -0.0480  0.1877
 5796SOL    HW119926   2.440   1.525   2.111 -1.5938 -1.9146 -0.2325
 5796SOL    HW219927   2.453   1.542   2.261 -0.1565  0.7067 -0.6324
 5797SOL     OW19928   2.735   7.626   2.250  0.2968  0.3916  0.1528
 5797SOL    HW119929   2.795   7.699   2.231 -0.5044  1.3452  1.2198
 5797SOL    HW219930   2.787   7.548   2.235  1.0920  1.1709 -1.3322
 5798SOL     OW19931   0.647   0.777   8.899 -0.0040  0.3883 -0.0508
 5798SOL    HW119932   0.649   0.869   8.875  2.2556  0.4252  0.1605
 5798SOL    HW219933   0.598   0.774   8.981  1.9871  1.7402  1.2169
 5799SOL     OW19934   4.049   4.722   2.780 -0.6331  0.4001  0.1400
 5799SOL    HW119935   4.031   4.636   2.818  0.0176  0.1655 -0.0865
 5799SOL    HW219936   3.997   4.783   2.834 -2.0155 -0.2482 -0.4294
 5800SOL     OW19937   0.266   6.383   6.285 -0.3709 -0.1962 -0.8340
 5800SOL    HW119938   0.214   6.376   6.366 -0.6832  0.6920 -0.9491
 5800SOL    HW219939   0.352   6.413   6.314 -0.7896  1.1210 -0.9248
 5801SOL     OW19940   0.474   8.010   8.380 -0.1686 -0.0202  0.1001
 5801SOL    HW119941   0.534   8.066   8.331 -0.0425  0.3603  0.6904
 5801SOL    HW219942   0.387   8.042   8.357 -0.1018  0.3098  0.3009
 5802SOL     OW19943   2.503   5.130   8.645  0.1674 -0.3432  0.3272
 5802SOL    HW119944   2.527   5.047   8.602 -2.0744 -1.4235  1.0582
 5802SOL    HW219945   2.471   5.185   8.573 -2.6829 -1.8094  0.3968
 5803SOL     OW19946   8.554   8.387   2.862  0.1265 -0.0361 -0.3139
 5803SOL    HW119947   8.493   8.370   2.790  0.3616  0.3830 -0.6111
 5803SOL    HW219948   8.598   8.469   2.839  0.1631  0.1337  0.3330
 5804SOL     OW19949   2.939   3.175   6.684  0.2966  0.6363 -0.3895
 5804SOL    HW119950   3.025   3.215   6.674  0.6367  0.3927  1.4691
 5804SOL    HW219951   2.955   3.095   6.733 -0.8970  0.1901 -0.7098
 5805SOL     OW19952   7.753   1.616   1.802  0.0913 -0.0563 -0.6136
 5805SOL    HW119953   7.660   1.632   1.811  0.2044 -0.9948  2.5712
 5805SOL    HW219954   7.759   1.523   1.781  0.3262 -0.0834 -0.4296
 5806SOL     OW19955   5.787   7.704   7.013  0.1148  0.5385  0.1656
 5806SOL    HW119956   5.758   7.743   7.095  1.6237 -0.7746  1.3656
 5806SOL    HW219957   5.771   7.771   6.947  0.1309  2.1266  1.7478
 5807SOL     OW19958   9.072   4.589   7.898 -0.8175  0.6622  0.6767
 5807SOL    HW119959   9.105   4.506   7.931  1.4745  1.3553  0.2272
 5807SOL    HW219960   9.066   4.645   7.976  1.8438  1.3987  0.4138
 5808SOL     OW19961   3.286   9.061   9.770 -0.2608  0.1947  0.2624
 5808SOL    HW119962   3.314   8.971   9.786  1.9021  0.5438 -1.2667
 5808SOL    HW219963   3.307   9.107   9.851  0.8004 -0.2074  0.2285
 5809SOL     OW19964   7.526   4.713   1.651 -0.1042  0.4013 -0.1541
 5809SOL    HW119965   7.444   4.763   1.656 -0.7977 -0.7330 -0.0252
 5809SOL    HW219966   7.514   4.641   1.712  0.9133  0.1028 -0.2971
 5810SOL     OW19967   4.518   1.007   0.936 -0.0758 -0.1979 -0.1537
 5810SOL    HW119968   4.483   1.089   0.971  2.4565  0.5994  0.6682
 5810SOL    HW219969   4.572   1.035   0.862  1.7525 -0.9667  0.8496
 5811SOL     OW19970   4.468   2.722   1.860  0.1661  0.0263 -0.0395
 5811SOL    HW119971   4.534   2.790   1.864  0.0104  0.1949 -0.3509
 5811SOL    HW219972   4.447   2.714   1.767 -1.1909  0.8841  0.1742
 5812SOL     OW19973   7.363   4.356   0.876  0.5155 -0.6245  0.0147
 5812SOL    HW119974   7.280   4.347   0.922  0.9466 -1.8550  0.5652
 5812SOL    HW219975   7.427   4.374   0.944  1.0142 -1.6038 -0.1805
 5813SOL     OW19976   1.473   5.696   1.782 -0.5741  0.5046 -0.3543
 5813SOL    HW119977   1.516   5.671   1.700  0.4750  1.7010 -0.1865
 5813SOL    HW219978   1.527   5.767   1.816 -2.5235  1.8047  0.0442
 5814SOL     OW19979   2.719   5.981   7.756  0.2095  0.4008 -0.0309
 5814SOL    HW119980   2.699   6.001   7.848  0.7872  1.1910 -0.0681
 5814SOL    HW219981   2.641   6.007   7.708 -0.1938 -0.2510  0.2608
 5815SOL     OW19982   8.916   3.588   8.219 -0.9514  0.2615  0.0636
 5815SOL    HW119983   8.884   3.595   8.309  0.7575  2.5631  0.5640
 5815SOL    HW219984   8.839   3.567   8.167 -1.9559 -1.1175  2.0762
 5816SOL     OW19985   1.541   1.967   4.545 -0.1063 -0.4512 -0.3438
 5816SOL    HW119986   1.531   1.882   4.503  0.1921  0.0439 -1.4305
 5816SOL    HW219987   1.510   1.953   4.635 -0.3065 -1.6320 -0.5883
 5817SOL     OW19988   3.838   0.509   3.780 -0.0577  0.6241 -0.2263
 5817SOL    HW119989   3.812   0.431   3.730 -0.6679  1.0876 -0.6321
 5817SOL    HW219990   3.925   0.488   3.813 -0.1819 -0.2018 -0.4086
 5818SOL     OW19991   1.366   4.472   4.608 -0.2218 -0.0055  0.5260
 5818SOL    HW119992   1.367   4.451   4.702  0.6883  0.4434  0.6281
 5818SOL    HW219993   1.458   4.465   4.581 -0.6551 -1.3251 -0.6147
 5819SOL     OW19994   1.467   3.036   1.505 -0.8610 -0.0903 -0.2371
 5819SOL    HW119995   1.496   2.949   1.533  1.6273  0.8088  0.0686
 5819SOL    HW219996   1.373   3.036   1.524 -0.4833 -1.8976  1.9714
 5820SOL     OW19997   2.608   7.934   3.521 -0.2994 -0.0448 -0.0854
 5820SOL    HW119998   2.598   7.840   3.537 -1.9200  0.4269  1.9314
 5820SOL    HW219999   2.691   7.957   3.562 -1.3169 -0.0852  2.0793
 5821SOL     OW20000   2.445   7.625   8.339 -0.8260  0.0319  0.3685
 5821SOL    HW120001   2.517   7.656   8.284 -2.2080  0.0860 -1.4354
 5821SOL    HW220002   2.412   7.704   8.382  0.0431  0.0383  1.0338
 5822SOL     OW20003   3.070   1.142   2.047  0.5621  0.6110 -0.0469
 5822SOL    HW120004   2.978   1.131   2.022  0.0056  2.5177  1.0344
 5822SOL    HW220005   3.118   1.141   1.965 -0.3722 -0.8823 -0.5877
 5823SOL     OW20006   4.494   8.719   1.765  0.1306  0.0577 -0.3182
 5823SOL    HW120007   4.477   8.813   1.757 -0.0186  0.1584  1.0735
 5823SOL    HW220008   4.469   8.683   1.679 -1.7548  1.0059 -0.2032
 5824SOL     OW20009   9.150   3.269   1.760  0.3396 -0.0533  0.3700
 5824SOL    HW120010   9.120   3.214   1.832 -1.2292  0.3877  0.0696
 5824SOL    HW220011   9.182   3.349   1.802  1.3652 -0.6366  0.7121
 5825SOL     OW20012   2.626   0.771   4.477 -0.1086  0.1011 -0.2463
 5825SOL    HW120013   2.702   0.782   4.536 -1.1657 -0.4664  1.2587
 5825SOL    HW220014   2.629   0.679   4.451 -1.3957 -0.4556  1.4410
 5826SOL     OW20015   1.621   4.257   1.997  0.2919 -0.2574  0.5181
 5826SOL    HW120016   1.653   4.346   2.006 -1.5418  0.5089 -0.3352
 5826SOL    HW220017   1.695   4.208   1.961  1.1170  1.0453  0.4172
 5827SOL     OW20018   9.042   6.170   9.265  0.0532 -0.2318 -0.1089
 5827SOL    HW120019   8.994   6.219   9.332  0.0706  0.6084 -0.7065
 5827SOL    HW220020   8.976   6.140   9.204 -0.2856 -3.1372  1.5605
 5828SOL     OW20021   6.814   6.598   3.855 -0.3957 -0.4510  0.4402
 5828SOL    HW120022   6.777   6.535   3.916  0.9625 -1.2483  0.4820
 5828SOL    HW220023   6.820   6.679   3.905  1.5680 -1.3262  1.7195
 5829SOL     OW20024   5.463   6.350   0.964  0.4142  0.0561 -0.3004
 5829SOL    HW120025   5.397   6.340   1.032  2.4773  2.2206  2.0878
 5829SOL    HW220026   5.543   6.313   1.002  1.1689 -0.3690 -2.2398
 5830SOL     OW20027   3.526   4.520   3.295  0.7435 -0.1759  0.4446
 5830SOL    HW120028   3.609   4.557   3.323  0.6762 -0.5085  1.0807
 5830SOL    HW220029   3.532   4.426   3.315  0.7555 -0.4528 -0.7849
 5831SOL     OW20030   9.791   1.124   1.912  0.1593  0.4733  0.2000
 5831SOL    HW120031   9.726   1.098   1.978 -1.4698  2.1812 -0.6856
 5831SOL    HW220032   9.795   1.220   1.919  0.3763  0.6238 -1.7848
 5832SOL     OW20033   6.136   4.566   5.816  0.2859  0.3732  0.3858
 5832SOL    HW120034   6.173   4.578   5.729  1.7312  0.0359  0.9448
 5832SOL    HW220035   6.097   4.651   5.837  0.7503  0.7380 -0.2148
 5833SOL     OW20036   5.160   4.187   5.155  0.2112 -0.0467 -0.4883
 5833SOL    HW120037   5.087   4.245   5.133 -0.2864 -0.2735  0.5515
 5833SOL    HW220038   5.153   4.115   5.092 -0.5483 -0.1366 -0.3076
 5834SOL     OW20039   4.167   9.317   1.585  0.1116  0.0893 -0.2475
 5834SOL    HW120040   4.180   9.381   1.655  1.3141  1.0920 -1.3514
 5834SOL    HW220041   4.256   9.290   1.561 -0.3170 -0.6693 -1.0186
 5835SOL     OW20042   5.896   5.191   8.367 -0.0931 -0.1165 -0.0671
 5835SOL    HW120043   5.967   5.208   8.429 -0.8501 -0.7546  0.9787
 5835SOL    HW220044   5.860   5.106   8.394  0.1055 -0.8058 -1.8761
 5836SOL     OW20045   8.081   5.624   2.667  0.2650 -0.6636  0.5869
 5836SOL    HW120046   8.061   5.536   2.635  1.8924 -1.0633  0.6526
 5836SOL    HW220047   8.039   5.683   2.603 -2.8943 -1.4522  1.8420
 5837SOL     OW20048   7.264   9.655   6.952 -0.2339 -0.0598 -0.2809
 5837SOL    HW120049   7.289   9.585   6.892  0.8543  0.3783 -0.3637
 5837SOL    HW220050   7.319   9.729   6.927  0.3273  0.0959  1.3131
 5838SOL     OW20051   4.994   1.020   4.820  0.4586 -0.3623  0.3186
 5838SOL    HW120052   4.963   1.015   4.729 -0.8156  0.4432  0.6881
 5838SOL    HW220053   5.072   1.074   4.816  1.6090 -2.0583 -0.5833
 5839SOL     OW20054   1.365   3.583   2.790  0.1266 -0.1474 -0.2326
 5839SOL    HW120055   1.276   3.619   2.798 -0.0950 -0.4461 -1.2369
 5839SOL    HW220056   1.381   3.580   2.695  0.1883 -2.5792 -0.1655
 5840SOL     OW20057   3.152   0.878   2.665 -0.9951 -0.6932  0.0271
 5840SOL    HW120058   3.244   0.902   2.675 -1.2396  0.6278 -0.7971
 5840SOL    HW220059   3.130   0.831   2.746  0.0412  0.1144  0.7814
 5841SOL     OW20060   0.657   4.455   5.254 -0.0679  0.0584  0.2129
 5841SOL    HW120061   0.689   4.405   5.329  0.3425  0.1623  0.1054
 5841SOL    HW220062   0.643   4.543   5.289  0.5568  0.2199  0.0554
 5842SOL     OW20063   1.870   9.449   8.253 -0.4025  0.4327 -0.7071
 5842SOL    HW120064   1.861   9.508   8.178 -1.5438  1.6422  0.3496
 5842SOL    HW220065   1.875   9.507   8.329  2.2944 -0.7022  0.0774
 5843SOL     OW20066   4.011   9.705   4.306 -0.3345  0.4246 -0.3270
 5843SOL    HW120067   3.934   9.691   4.251 -0.5958  1.2231 -0.1699
 5843SOL    HW220068   4.001   9.642   4.377 -2.1357  2.1564  1.0323
 5844SOL     OW20069   4.974   2.397   7.729 -0.4552 -0.5610  0.6114
 5844SOL    HW120070   5.039   2.393   7.799  0.8294 -0.5449 -0.5812
 5844SOL    HW220071   4.941   2.487   7.732 -1.6821 -1.0291  2.3232
 5845SOL     OW20072   6.665   5.234   1.340  0.0641  0.0757  0.1826
 5845SOL    HW120073   6.740   5.251   1.397  0.0820 -1.9311  0.8202
 5845SOL    HW220074   6.602   5.302   1.362  0.7895  0.3902  1.3354
 5846SOL     OW20075   0.856   4.997   7.799 -0.2493 -0.6069 -0.4156
 5846SOL    HW120076   0.871   4.903   7.806  0.5467 -0.3663  1.3275
 5846SOL    HW220077   0.783   5.005   7.737  0.3023 -2.3109 -1.3183
 5847SOL     OW20078   5.396   2.311   1.443 -0.0901  0.6022 -0.0650
 5847SOL    HW120079   5.357   2.356   1.368 -1.5283 -0.0196  0.3064
 5847SOL    HW220080   5.322   2.280   1.494  0.8622  1.7087  2.0539
 5848SOL     OW20081   0.802   7.326   5.628  0.8296 -0.0777  0.0809
 5848SOL    HW120082   0.713   7.307   5.658  0.3899  0.8856 -0.6045
 5848SOL    HW220083   0.824   7.410   5.668 -0.2843  1.9252 -3.3099
 5849SOL     OW20084   3.965   4.129   7.434 -0.4668 -0.3448  0.4299
 5849SOL    HW120085   3.935   4.189   7.365 -0.1629 -1.7608 -0.9637
 5849SOL    HW220086   3.891   4.070   7.449 -0.6656  0.1787  1.5974
 5850SOL     OW20087   6.144   6.603   2.639  0.4992  0.3718  0.0764
 5850SOL    HW120088   6.151   6.685   2.688  1.7498  0.5032 -0.3213
 5850SOL    HW220089   6.154   6.628   2.548  1.5237 -0.3020 -0.0043
 5851SOL     OW20090   5.715   9.290   9.799 -0.3039 -0.1679 -0.4166
 5851SOL    HW120091   5.761   9.218   9.757 -0.7567 -2.7624  3.3075
 5851SOL    HW220092   5.785   9.349   9.829  0.2377 -0.6807 -0.6715
 5852SOL     OW20093   1.476   2.532   8.945 -0.3474 -0.1618 -0.7000
 5852SOL    HW120094   1.420   2.477   8.891  0.1838 -1.0908 -0.3146
 5852SOL    HW220095   1.555   2.545   8.892 -2.4186  4.4235 -2.9496
 5853SOL     OW20096   8.719   9.647   5.480 -0.1498 -0.0006  0.0795
 5853SOL    HW120097   8.709   9.742   5.472  1.4401  0.2377  0.7258
 5853SOL    HW220098   8.797   9.636   5.533  0.7162 -1.7035 -1.5167
 5854SOL     OW20099   3.593   7.393   2.072  0.1447  0.4735  0.2791
 5854SOL    HW120100   3.657   7.455   2.106  1.2652  0.3696 -1.5594
 5854SOL    HW220101   3.646   7.320   2.039 -0.8803  0.5414 -1.5843
 5855SOL     OW20102   9.879   1.630   3.042  0.4083  0.4953 -0.5128
 5855SOL    HW120103   9.838   1.545   3.027 -0.3663  0.8250 -0.3138
 5855SOL    HW220104   9.920   1.622   3.128  0.8093  0.1490 -0.7328
 5856SOL     OW20105   3.209   1.349   8.029 -0.0768  0.4974 -0.3676
 5856SOL    HW120106   3.228   1.281   8.093  3.9670  1.3468 -0.5766
 5856SOL    HW220107   3.235   1.311   7.945  1.8136  2.0793 -0.5388
 5857SOL     OW20108   9.585   4.989   9.847  0.9490 -0.3234  0.0685
 5857SOL    HW120109   9.527   5.062   9.826  1.5674  0.5140  1.2334
 5857SOL    HW220110   9.528   4.926   9.891  0.7884  0.2162  0.6377
 5858SOL     OW20111   1.445   7.277   9.171 -0.1476  0.1813 -0.2788
 5858SOL    HW120112   1.400   7.196   9.197 -1.8939  0.5762 -1.9825
 5858SOL    HW220113   1.419   7.341   9.238 -0.1181 -0.2339  0.1326
 5859SOL     OW20114   2.098   6.632   0.504  0.3773 -0.1225 -0.4768
 5859SOL    HW120115   2.019   6.681   0.482 -0.2167 -2.1866 -3.3369
 5859SOL    HW220116   2.159   6.651   0.432  0.7804 -2.1448 -0.6923
 5860SOL     OW20117   9.458   6.759   5.714  0.2069 -0.4117 -0.1544
 5860SOL    HW120118   9.510   6.832   5.750  0.0243  0.1144 -0.9489
 5860SOL    HW220119   9.425   6.713   5.791  0.7379  0.0507  0.3556
 5861SOL     OW20120   8.158   0.471   6.227 -0.0293  0.9622 -0.1902
 5861SOL    HW120121   8.108   0.391   6.245 -0.2217  1.0865 -0.1628
 5861SOL    HW220122   8.152   0.521   6.308  0.3612  0.8618 -0.1009
 5862SOL     OW20123   8.303   3.522   4.441 -0.0221 -0.1583 -0.4862
 5862SOL    HW120124   8.363   3.592   4.414 -0.6687  0.8662  0.6439
 5862SOL    HW220125   8.344   3.484   4.518  0.3967 -1.1184 -1.1845
 5863SOL     OW20126   3.564   7.815   1.040 -0.1362  0.4136 -0.0350
 5863SOL    HW120127   3.605   7.800   0.954  0.9212  1.8928  0.1909
 5863SOL    HW220128   3.554   7.910   1.045 -0.0939  0.3450  1.5250
 5864SOL     OW20129   5.460   6.145   3.535 -0.2079 -0.2002 -0.0557
 5864SOL    HW120130   5.410   6.206   3.588  0.1899  0.1871 -0.1199
 5864SOL    HW220131   5.394   6.095   3.487 -0.5580 -0.4603  0.7055
 5865SOL     OW20132   8.957   8.851   2.229  0.2786 -0.0609  0.4812
 5865SOL    HW120133   8.897   8.836   2.302  2.6714  0.0159  2.5050
 5865SOL    HW220134   8.964   8.946   2.222 -0.2850 -0.0554 -0.1840
 5866SOL     OW20135   9.095   8.860   3.110  0.1157  0.1585  0.2732
 5866SOL    HW120136   9.105   8.953   3.091 -0.0572  0.1958  0.3608
 5866SOL    HW220137   9.151   8.816   3.047  0.4790  0.3402  0.4715
 5867SOL     OW20138   9.564   4.279   6.274  0.5233 -0.3287 -0.4251
 5867SOL    HW120139   9.507   4.241   6.208  1.4915  0.4497 -1.7394
 5867SOL    HW220140   9.650   4.239   6.258  0.9628  0.5054 -0.2186
 5868SOL     OW20141   1.852   8.644   1.860 -0.1236  0.0020  0.6573
 5868SOL    HW120142   1.935   8.597   1.873 -1.2783 -1.7632  1.7051
 5868SOL    HW220143   1.825   8.621   1.771  1.0798  1.5288 -0.1330
 5869SOL     OW20144   1.777   6.892   5.572 -0.3243  0.4282 -0.2208
 5869SOL    HW120145   1.803   6.932   5.489  0.2822 -0.3391 -0.4046
 5869SOL    HW220146   1.738   6.808   5.547 -0.2518  0.2526  0.2593
 5870SOL     OW20147   1.667   2.521   0.225 -0.0364  0.3244  0.4921
 5870SOL    HW120148   1.708   2.505   0.140  2.3468 -0.1128  1.6777
 5870SOL    HW220149   1.673   2.616   0.236 -1.0347  0.4729 -0.1316
 5871SOL     OW20150   0.920   9.691   5.209 -0.2883  0.1442  0.3863
 5871SOL    HW120151   0.938   9.600   5.232  0.3881 -0.5955 -2.8452
 5871SOL    HW220152   0.824   9.696   5.205 -0.3041 -0.9536 -1.2280
 5872SOL     OW20153   2.227   2.109   2.017 -0.6105  0.3294 -0.2290
 5872SOL    HW120154   2.316   2.084   1.991 -1.2087 -2.3762  0.1057
 5872SOL    HW220155   2.238   2.146   2.105  0.3461  1.2340 -0.7244
 5873SOL     OW20156   6.603   6.582   5.130 -0.5312  0.4239 -0.1445
 5873SOL    HW120157   6.616   6.487   5.125 -0.1672  0.3206  1.9929
 5873SOL    HW220158   6.514   6.592   5.165 -1.7008  0.9362 -3.1704
 5874SOL     OW20159   2.312   5.401   6.315 -0.1400 -0.2036 -0.5963
 5874SOL    HW120160   2.383   5.460   6.291 -0.6414 -0.1035 -1.8789
 5874SOL    HW220161   2.232   5.452   6.301 -0.6250 -1.4599 -2.6493
 5875SOL     OW20162   8.141   9.298   4.345 -1.0968  0.1531 -0.1145
 5875SOL    HW120163   8.056   9.323   4.310 -0.2048  1.2274 -1.5869
 5875SOL    HW220164   8.204   9.337   4.285  0.4279 -2.1831 -0.1120
 5876SOL     OW20165   9.590   6.415   1.796 -0.0258 -0.6498 -0.3663
 5876SOL    HW120166   9.595   6.502   1.756  1.1662  0.3639  1.8941
 5876SOL    HW220167   9.660   6.366   1.753  0.7109  0.1782 -0.1477
 5877SOL     OW20168   2.908   2.531   7.299  0.6288 -0.9211 -0.3198
 5877SOL    HW120169   2.825   2.490   7.272 -0.1502  0.4174 -0.0099
 5877SOL    HW220170   2.899   2.623   7.273  0.9435 -0.1950  2.0316
 5878SOL     OW20171   9.846   1.335   6.921 -0.6269  0.0576  0.0043
 5878SOL    HW120172   9.818   1.324   7.012  0.1040  2.4689  0.5501
 5878SOL    HW220173   9.902   1.260   6.903 -2.0529 -1.2786  1.0275
 5879SOL     OW20174   2.165   6.553   4.195  0.4349  0.2184  0.5668
 5879SOL    HW120175   2.134   6.642   4.210  0.2229  0.3366 -0.5061
 5879SOL    HW220176   2.189   6.551   4.102  2.4196 -0.2486  1.0558
 5880SOL     OW20177   2.270   0.748   3.685 -0.0020  0.2988 -0.6059
 5880SOL    HW120178   2.185   0.788   3.704  0.3346  1.6792 -1.8880
 5880SOL    HW220179   2.334   0.811   3.719  0.5294 -0.8817  0.6480
 5881SOL     OW20180   8.860   9.150   7.868 -0.1740 -0.2999  0.2148
 5881SOL    HW120181   8.943   9.172   7.910 -0.8951  0.8538  1.0872
 5881SOL    HW220182   8.834   9.230   7.822 -1.1635 -0.3949  0.5896
 5882SOL     OW20183   6.422   9.421   3.945  0.7496 -0.4170  0.0110
 5882SOL    HW120184   6.489   9.470   3.992 -0.8297  2.3791 -0.5132
 5882SOL    HW220185   6.341   9.467   3.964 -0.5595 -1.8464 -1.8988
 5883SOL     OW20186   6.725   5.328   9.912  0.3740 -0.8968 -0.0626
 5883SOL    HW120187   6.689   5.282   9.988  3.5589 -2.1247  0.8151
 5883SOL    HW220188   6.767   5.405   9.949  1.7631 -1.3976 -0.5515
 5884SOL     OW20189   6.039   1.951   3.201 -0.3616 -0.3242  0.0747
 5884SOL    HW120190   6.086   1.942   3.118  0.6099  1.0496  0.4462
 5884SOL    HW220191   6.022   1.861   3.229  1.1166 -0.8419 -0.6199
 5885SOL     OW20192   7.863   2.496   4.959 -0.4337  0.7199  0.2992
 5885SOL    HW120193   7.891   2.586   4.944  0.2990  0.3140 -0.8486
 5885SOL    HW220194   7.772   2.494   4.931  0.5913  0.2425 -3.2265
 5886SOL     OW20195   9.299   6.372   1.419  0.1161 -0.5245 -0.0254
 5886SOL    HW120196   9.365   6.441   1.411 -0.8796  0.4109 -0.2900
 5886SOL    HW220197   9.296   6.353   1.513  2.5706 -2.3900 -0.2680
 5887SOL     OW20198   2.891   3.993   8.694 -0.4582  0.0274 -0.3390
 5887SOL    HW120199   2.900   3.898   8.686  0.7397  0.0521  0.5837
 5887SOL    HW220200   2.856   4.021   8.610 -2.2111 -1.4062 -0.1145
 5888SOL     OW20201   0.775   5.928   1.903 -0.5169  0.0572  0.3639
 5888SOL    HW120202   0.777   5.872   1.825  1.5699 -0.1282  0.5097
 5888SOL    HW220203   0.695   5.980   1.893 -1.4525 -1.5636 -0.7565
 5889SOL     OW20204   0.581   9.026   4.780 -0.1787  0.1559 -0.2118
 5889SOL    HW120205   0.636   8.951   4.756 -0.1226 -0.8171  2.7241
 5889SOL    HW220206   0.510   9.026   4.716  2.0678  0.1723 -2.8081
 5890SOL     OW20207   8.562   8.003   0.699  0.0038 -0.0622 -0.1869
 5890SOL    HW120208   8.654   8.030   0.702 -0.4623  1.4381  0.6837
 5890SOL    HW220209   8.517   8.074   0.655 -1.3593  1.0431  2.8826
 5891SOL     OW20210   7.784   3.490   8.747 -0.3284 -0.2438  0.1110
 5891SOL    HW120211   7.873   3.458   8.763  0.0604 -0.2657 -1.9518
 5891SOL    HW220212   7.777   3.568   8.801  0.5302 -0.9094  1.2043
 5892SOL     OW20213   2.242   7.689   0.605 -0.6849  0.2157  0.4128
 5892SOL    HW120214   2.234   7.597   0.630  0.6546  0.0701  0.3355
 5892SOL    HW220215   2.227   7.738   0.686 -0.4018 -0.1108  0.6615
 5893SOL     OW20216   7.764   4.696   8.253 -0.0383  0.2494  0.0069
 5893SOL    HW120217   7.702   4.683   8.325 -0.8593  0.5361 -0.6405
 5893SOL    HW220218   7.823   4.764   8.284 -1.0153  1.0971  0.0177
 5894SOL     OW20219   9.761   8.162   6.603  0.2112  0.3837  0.7466
 5894SOL    HW120220   9.735   8.237   6.657  2.4460  1.2755  0.6167
 5894SOL    HW220221   9.724   8.181   6.516  1.1545  1.5596  0.5951
 5895SOL     OW20222   3.922   7.271   7.340 -0.2881 -0.0108  0.5835
 5895SOL    HW120223   3.922   7.290   7.246 -0.6599 -0.3952  0.5002
 5895SOL    HW220224   4.014   7.269   7.364 -0.1293 -1.1919 -0.0505
 5896SOL     OW20225   6.806   7.545   6.545 -0.0401  0.2472  0.5112
 5896SOL    HW120226   6.710   7.542   6.546 -0.0483  0.6420  1.0220
 5896SOL    HW220227   6.828   7.574   6.457 -0.4599  2.0920  0.9823
 5897SOL     OW20228   7.352   9.705   4.866 -0.2443  0.4743 -0.0616
 5897SOL    HW120229   7.317   9.717   4.954 -0.8652 -0.4186 -0.1756
 5897SOL    HW220230   7.445   9.684   4.880 -0.6213 -0.9406  0.4704
 5898SOL     OW20231   9.044   3.535   9.730 -0.6815 -0.6825  0.3346
 5898SOL    HW120232   9.110   3.550   9.662 -1.2074 -1.1314 -0.2847
 5898SOL    HW220233   9.008   3.449   9.710  0.6816 -1.7770  2.4816
 5899SOL     OW20234   6.442   8.436   8.992 -0.4171 -0.8278  0.4401
 5899SOL    HW120235   6.444   8.443   8.897 -1.7920  2.1491  0.5734
 5899SOL    HW220236   6.514   8.376   9.013  0.7230 -0.5243 -2.3645
 5900SOL     OW20237   7.592   2.523   5.760 -0.0275  0.7005 -0.0693
 5900SOL    HW120238   7.508   2.540   5.802  0.0326  0.6120  0.0836
 5900SOL    HW220239   7.605   2.428   5.769 -0.3485  0.5698 -0.8962
 5901SOL     OW20240   3.052   2.009   7.847  0.5385 -0.0724  0.0439
 5901SOL    HW120241   3.125   1.953   7.822  0.3990 -1.6604  2.9526
 5901SOL    HW220242   2.974   1.963   7.815  0.5816 -0.3958  0.3922
 5902SOL     OW20243   7.738   6.355   9.737  0.3402  0.4581 -0.0518
 5902SOL    HW120244   7.682   6.285   9.702  0.6024  0.2600 -0.0805
 5902SOL    HW220245   7.679   6.409   9.790 -0.1567  0.9966 -1.1294
 5903SOL     OW20246   9.168   6.017   4.278 -0.3479  0.4059  0.2202
 5903SOL    HW120247   9.141   5.951   4.214 -1.5528 -1.9151  3.0272
 5903SOL    HW220248   9.097   6.082   4.278 -1.6508 -1.0001  1.1181
 5904SOL     OW20249   1.329   9.747   8.193  0.1658 -0.4231  0.0623
 5904SOL    HW120250   1.292   9.830   8.165  1.0475 -0.9710 -2.9147
 5904SOL    HW220251   1.273   9.681   8.150  1.0180 -1.3078  0.2984
 5905SOL     OW20252   3.974   2.027   9.439 -0.6614 -0.4064  0.7538
 5905SOL    HW120253   3.887   2.056   9.411 -0.5068 -1.0454 -0.4361
 5905SOL    HW220254   3.961   1.935   9.464 -0.0310 -0.9972 -0.9842
 5906SOL     OW20255   2.291   3.548   5.983 -0.2311  0.1597  0.0082
 5906SOL    HW120256   2.359   3.487   6.014 -0.0495  1.0973  1.5254
 5906SOL    HW220257   2.324   3.579   5.899  0.8474  0.0112  0.3634
 5907SOL     OW20258   5.915   6.512   1.919  0.7499 -0.0165  0.5905
 5907SOL    HW120259   5.971   6.463   1.980 -0.1871 -2.0900 -0.1760
 5907SOL    HW220260   5.843   6.544   1.972  0.6530 -0.6444  0.8385
 5908SOL     OW20261   9.351   9.322   8.479  0.0157  0.2139 -0.0745
 5908SOL    HW120262   9.370   9.339   8.386  0.3571 -0.6857 -0.1730
 5908SOL    HW220263   9.434   9.290   8.515 -0.4486 -0.6430  0.2471
 5909SOL     OW20264   7.134   9.732   1.472  0.8594 -0.7042  0.1072
 5909SOL    HW120265   7.051   9.742   1.518  0.3627 -0.8192 -0.7424
 5909SOL    HW220266   7.171   9.820   1.469 -0.1271 -0.3215 -1.1481
 5910SOL     OW20267   7.839   0.744   8.162  0.4129 -0.4103 -0.8480
 5910SOL    HW120268   7.755   0.788   8.176 -0.7479 -0.7934 -5.6582
 5910SOL    HW220269   7.904   0.806   8.194 -1.4008  2.8761 -3.2608
 5911SOL     OW20270   8.985   9.365   3.612 -0.2869  0.1983 -0.3958
 5911SOL    HW120271   9.029   9.349   3.528 -0.6412 -1.3543 -0.2846
 5911SOL    HW220272   9.017   9.452   3.639 -0.7747  1.0719 -2.5153
 5912SOL     OW20273   6.855   5.590   0.558  0.1247 -0.2021  0.5587
 5912SOL    HW120274   6.796   5.563   0.628  2.6131  1.2460  3.3647
 5912SOL    HW220275   6.876   5.682   0.578 -0.6580  0.9051 -3.2695
 5913SOL     OW20276   0.637   4.957   1.184 -0.0389 -0.5154 -0.2886
 5913SOL    HW120277   0.607   5.015   1.114 -0.5425 -1.1840 -0.6316
 5913SOL    HW220278   0.709   4.908   1.145 -0.8466 -1.4638 -0.5969
 5914SOL     OW20279   2.236   9.863   9.843 -0.2720  0.1656 -0.3384
 5914SOL    HW120280   2.307   9.922   9.868  0.3314 -0.1591 -1.2794
 5914SOL    HW220281   2.194   9.839   9.925 -0.3799  1.7289  0.0867
 5915SOL     OW20282   0.750   3.239   0.737 -0.3538  0.0521  0.2416
 5915SOL    HW120283   0.833   3.281   0.713 -0.0879 -0.7370 -0.2526
 5915SOL    HW220284   0.714   3.208   0.654 -1.1123  0.3223  0.4656
 5916SOL     OW20285   6.981   4.086   6.169 -0.7335  0.0691  0.6184
 5916SOL    HW120286   7.030   4.133   6.102 -1.0370  0.1883  0.4768
 5916SOL    HW220287   7.005   4.128   6.251  0.1330 -0.4928  0.6559
 5917SOL     OW20288   5.474   2.102   3.646  0.3118  0.1242  0.5027
 5917SOL    HW120289   5.522   2.184   3.660  1.2354 -0.4750  0.8872
 5917SOL    HW220290   5.424   2.089   3.727  0.6254  0.0012  0.6754
 5918SOL     OW20291   4.894   0.203   0.325  0.3577  0.0367 -0.1677
 5918SOL    HW120292   4.838   0.126   0.332  1.4559 -0.5817  2.0549
 5918SOL    HW220293   4.832   0.277   0.323 -0.6097 -0.7604 -0.0947
 5919SOL     OW20294   7.179   6.947   4.694 -0.0878 -0.3899  0.1532
 5919SOL    HW120295   7.270   6.960   4.665 -0.1034 -1.7536 -0.5163
 5919SOL    HW220296   7.171   7.003   4.771  0.9026  0.8250 -0.6073
 5920SOL     OW20297   1.075   4.960   5.972 -0.5690  0.2804 -0.5424
 5920SOL    HW120298   1.154   4.908   5.984 -0.4916  0.7691  1.3248
 5920SOL    HW220299   1.105   5.051   5.980 -1.1958  0.4893 -0.5237
 5921SOL     OW20300   9.376   1.427   7.621  0.3331 -0.3739  0.5656
 5921SOL    HW120301   9.300   1.432   7.563 -0.7503 -0.0928  1.9823
 5921SOL    HW220302   9.391   1.518   7.648  1.1612 -0.4324  0.3182
 5922SOL     OW20303   5.794   5.230   7.111  0.3571 -0.0022  0.2383
 5922SOL    HW120304   5.716   5.209   7.060  1.8616 -0.8343 -1.7974
 5922SOL    HW220305   5.854   5.157   7.094  1.4559  0.4257  2.0723
 5923SOL     OW20306   9.298   7.620   7.139  0.0675  0.0826 -0.5517
 5923SOL    HW120307   9.360   7.691   7.153  0.0694  0.0824 -0.5579
 5923SOL    HW220308   9.270   7.630   7.048  1.7024 -1.2214 -1.2378
 5924SOL     OW20309   1.736   8.381   6.070  0.0779  0.2531  0.6716
 5924SOL    HW120310   1.724   8.405   6.162 -0.4334  0.1689  0.6323
 5924SOL    HW220311   1.817   8.425   6.044  0.2096  0.3051  1.1526
 5925SOL     OW20312   4.777   2.115   9.564 -0.6159  0.2847  0.1859
 5925SOL    HW120313   4.776   2.091   9.657 -0.4137 -2.4452 -0.4745
 5925SOL    HW220314   4.696   2.079   9.529  1.1678 -2.3487 -1.4849
 5926SOL     OW20315   3.458   6.762  10.044  0.0413 -0.1266 -0.7792
 5926SOL    HW120316   3.405   6.713   9.980  1.1643  0.6970 -2.3619
 5926SOL    HW220317   3.531   6.703  10.063 -1.0859 -1.0089  0.9442
 5927SOL     OW20318   4.775   3.533   0.099  0.1557  0.4957 -0.3630
 5927SOL    HW120319   4.869   3.524   0.089  0.1272 -0.2904  0.0250
 5927SOL    HW220320   4.746   3.447   0.129 -0.3804  1.4352  1.8788
 5928SOL     OW20321   4.001   0.235   5.524 -0.3493 -0.0517  0.5037
 5928SOL    HW120322   4.037   0.286   5.451 -0.3227  3.0651  2.5855
 5928SOL    HW220323   3.907   0.250   5.520 -0.5451 -1.3823  0.0244
 5929SOL     OW20324   0.920   4.749   7.775  0.1829  0.2464  0.0354
 5929SOL    HW120325   0.975   4.726   7.850 -0.2750 -0.1596  0.2529
 5929SOL    HW220326   0.912   4.667   7.726  0.4917  0.5157 -0.4612
 5930SOL     OW20327   9.965   8.170   2.998 -0.0594  0.3040 -0.7616
 5930SOL    HW120328  10.019   8.212   3.065 -1.6967  0.8276  0.2641
 5930SOL    HW220329  10.028   8.129   2.939  1.4439  0.5146  0.6459
 5931SOL     OW20330   2.257   7.232   1.661 -0.2978  0.3076 -0.0564
 5931SOL    HW120331   2.313   7.181   1.602 -0.3234 -1.1648  1.1621
 5931SOL    HW220332   2.193   7.169   1.693 -1.1507  1.4272  0.4467
 5932SOL     OW20333   4.147   0.395   6.225  0.1676 -0.0977 -0.2530
 5932SOL    HW120334   4.180   0.323   6.172  0.0632 -0.1987 -0.1808
 5932SOL    HW220335   4.145   0.361   6.314 -0.2919 -0.1502 -0.2816
 5933SOL     OW20336   6.298   0.747   2.894 -0.4460  0.0858  0.4435
 5933SOL    HW120337   6.333   0.692   2.964  0.9655  2.8220  2.0077
 5933SOL    HW220338   6.340   0.714   2.815 -0.1825 -1.5258  1.2325
 5934SOL     OW20339   9.084   2.851   3.779 -0.5641 -0.1717 -0.2815
 5934SOL    HW120340   9.014   2.898   3.824 -1.7570 -1.8043 -0.3780
 5934SOL    HW220341   9.068   2.868   3.686  0.1430  0.7578 -0.2491
 5935SOL     OW20342   1.132   8.071   4.264 -0.1424 -0.1587 -0.3551
 5935SOL    HW120343   1.068   8.123   4.312 -0.2264  1.8744 -2.5519
 5935SOL    HW220344   1.085   8.040   4.186  0.9851 -0.2943 -1.0089
 5936SOL     OW20345   9.733   0.849   1.452 -0.0207 -0.2547 -0.1223
 5936SOL    HW120346   9.714   0.777   1.392 -2.0251  0.6435 -0.6285
 5936SOL    HW220347   9.682   0.922   1.418  0.9846  1.0439  1.1102
 5937SOL     OW20348   8.170   6.124   3.921  0.0478  0.2829 -0.1458
 5937SOL    HW120349   8.089   6.088   3.884 -0.2825  0.0081  0.8224
 5937SOL    HW220350   8.220   6.152   3.845 -0.3189 -0.9051 -0.8477
 5938SOL     OW20351   7.245   5.441   5.414  0.1742 -0.0806  0.2424
 5938SOL    HW120352   7.314   5.425   5.350 -0.6144 -0.7371 -0.4583
 5938SOL    HW220353   7.283   5.414   5.497  0.9271  0.0207 -0.0665
 5939SOL     OW20354   5.984   4.825   2.597 -0.4746  0.4744  0.0827
 5939SOL    HW120355   5.940   4.907   2.621 -2.0281 -0.6178  1.0839
 5939SOL    HW220356   6.030   4.846   2.515 -1.0871  2.2554  0.1588
 5940SOL     OW20357   6.264   6.161   4.760  0.1056  0.1923 -0.8602
 5940SOL    HW120358   6.251   6.210   4.841 -0.1380 -0.7586 -0.3238
 5940SOL    HW220359   6.354   6.129   4.766  0.0337 -0.0142 -0.8904
 5941SOL     OW20360   1.464   5.290   2.434 -0.0818  0.0569 -0.1551
 5941SOL    HW120361   1.476   5.196   2.448 -1.2049 -0.0556  0.0338
 5941SOL    HW220362   1.381   5.310   2.475 -1.4881  0.4813 -3.0738
 5942SOL     OW20363   8.601   7.595   7.327 -0.1878 -0.2264  0.0088
 5942SOL    HW120364   8.585   7.501   7.320  2.3038 -0.6062 -0.9778
 5942SOL    HW220365   8.532   7.635   7.274 -0.2696 -1.5866 -0.9391
 5943SOL     OW20366   3.494   9.600   1.898 -0.6700  0.1722 -0.2073
 5943SOL    HW120367   3.567   9.541   1.881 -0.2740  0.1573  1.4088
 5943SOL    HW220368   3.534   9.687   1.900 -0.5136  0.0897  1.5187
 5944SOL     OW20369   7.082   2.054   3.259 -0.0647  0.5069 -0.9471
 5944SOL    HW120370   7.136   1.981   3.288 -0.0546 -0.0206 -2.2870
 5944SOL    HW220371   7.130   2.132   3.286  1.0301  0.0370 -1.5459
 5945SOL     OW20372   2.855   4.075   4.152  0.0017 -0.2448  0.2920
 5945SOL    HW120373   2.802   4.027   4.089  0.7436 -0.9953  0.2392
 5945SOL    HW220374   2.821   4.165   4.148 -0.4814 -0.4631 -0.5801
 5946SOL     OW20375   9.550   9.228   2.502  0.2055  0.6170 -0.0072
 5946SOL    HW120376   9.617   9.163   2.525 -0.5119 -0.1540 -0.0484
 5946SOL    HW220377   9.596   9.311   2.503  2.0125 -0.2466 -3.4419
 5947SOL     OW20378   8.309   7.310   5.483 -0.1649  0.1491  0.7248
 5947SOL    HW120379   8.269   7.261   5.411 -2.8020  3.0551  0.1357
 5947SOL    HW220380   8.268   7.275   5.562 -2.1241  1.4216  0.2986
 5948SOL     OW20381   4.616   9.782   8.680 -0.7588 -0.1847  0.0107
 5948SOL    HW120382   4.687   9.846   8.672 -0.1879 -0.8601 -0.4081
 5948SOL    HW220383   4.631   9.720   8.608 -1.5904 -0.5126  0.1081
 5949SOL     OW20384   7.459   0.192   4.673  0.7651  0.5587  0.0615
 5949SOL    HW120385   7.377   0.177   4.721  0.7162  2.1289  0.4926
 5949SOL    HW220386   7.431   0.219   4.586  0.8345  0.2106 -0.0686
 5950SOL     OW20387   3.224   4.826   9.882  0.6060 -0.2369 -0.1144
 5950SOL    HW120388   3.161   4.802   9.950  0.5798  0.8901  0.2773
 5950SOL    HW220389   3.306   4.839   9.930  0.2212  2.1651 -0.0152
 5951SOL     OW20390   8.113   0.083   4.947 -0.2445 -0.1035 -0.2547
 5951SOL    HW120391   8.190   0.097   4.892 -0.2158 -1.4011 -0.5644
 5951SOL    HW220392   8.078  -0.002   4.917 -1.9090  0.5723 -0.2822
 5952SOL     OW20393   1.383   2.082   5.960  0.0556 -0.3681  0.5584
 5952SOL    HW120394   1.299   2.101   5.918 -0.7137 -1.4243  1.5588
 5952SOL    HW220395   1.426   2.019   5.902 -0.2615 -0.5290  0.4939
 5953SOL     OW20396   7.124   9.404   1.588 -0.5463  0.2097 -0.8775
 5953SOL    HW120397   7.204   9.456   1.600 -0.3905  0.0089 -1.0434
 5953SOL    HW220398   7.078   9.410   1.672 -0.3699  0.3483 -0.7914
 5954SOL     OW20399   6.790   8.705   1.176 -0.0747  0.1092  0.0699
 5954SOL    HW120400   6.762   8.775   1.117  0.0154 -0.1705 -0.3060
 5954SOL    HW220401   6.808   8.631   1.119  0.5026 -0.0099  0.3958
 5955SOL     OW20402   9.697   7.899   6.547 -0.3829 -0.7513  0.1249
 5955SOL    HW120403   9.721   7.991   6.558 -2.2602 -0.3861  1.2607
 5955SOL    HW220404   9.626   7.900   6.483 -0.5021 -1.4143  0.2406
 5956SOL     OW20405   6.340   7.101   3.335 -0.3969  0.1943 -0.0462
 5956SOL    HW120406   6.390   7.127   3.412  0.2183  2.1949 -1.1019
 5956SOL    HW220407   6.404   7.103   3.263 -1.1578 -0.8154 -0.7692
 5957SOL     OW20408   2.934   2.384   7.875  0.3080 -0.3381 -0.1401
 5957SOL    HW120409   2.967   2.447   7.811 -1.6591  1.1110  0.2250
 5957SOL    HW220410   2.895   2.437   7.944  1.2370 -1.9113  1.6507
 5958SOL     OW20411   0.023   9.262   9.658  0.1952 -0.5275 -0.3109
 5958SOL    HW120412   0.086   9.313   9.710 -0.4762  1.1671 -1.1334
 5958SOL    HW220413   0.027   9.175   9.696  1.5527  0.0607  0.9789
 5959SOL     OW20414   3.691   0.655   8.608 -0.0335  0.4629  0.1663
 5959SOL    HW120415   3.772   0.686   8.567 -0.2095  0.0016 -0.5553
 5959SOL    HW220416   3.643   0.614   8.536 -0.9137  0.7476  0.5810
 5960SOL     OW20417   8.898   8.617   6.965  0.3193  0.1083  0.7293
 5960SOL    HW120418   8.886   8.626   7.059 -2.6332  1.1287  0.3030
 5960SOL    HW220419   8.890   8.706   6.930  0.1177 -0.4083 -0.6056
 5961SOL     OW20420   9.144   4.882   0.622 -0.0075  1.1525  0.1524
 5961SOL    HW120421   9.206   4.827   0.670  0.6120  0.1876 -1.7291
 5961SOL    HW220422   9.058   4.853   0.652  0.3736  1.0192  1.1498
 5962SOL     OW20423   6.602   7.375   6.073 -0.0923 -0.5542  0.7800
 5962SOL    HW120424   6.662   7.369   5.999 -0.3708 -0.9547  0.5936
 5962SOL    HW220425   6.575   7.467   6.074 -0.0169 -0.5285  0.4444
 5963SOL     OW20426   1.773   5.178   1.655  0.3775  0.1784 -0.9123
 5963SOL    HW120427   1.854   5.145   1.695  1.0134 -0.2619 -2.5132
 5963SOL    HW220428   1.802   5.218   1.573 -1.2131 -1.3615 -2.2616
 5964SOL     OW20429   4.366   1.933   9.914  0.0767 -0.1203 -0.1912
 5964SOL    HW120430   4.285   1.889   9.937 -0.1457 -0.3007 -1.2683
 5964SOL    HW220431   4.367   2.012   9.967  0.5054 -1.4355  1.7857
 5965SOL     OW20432   4.386   6.672  10.056  0.2686  0.3294 -0.2606
 5965SOL    HW120433   4.348   6.760  10.044 -0.4006  0.0721 -0.0855
 5965SOL    HW220434   4.333   6.633  10.126  0.2462 -0.3920 -0.6763
 5966SOL     OW20435   1.958   0.847   3.113 -0.4825  0.0116 -0.0414
 5966SOL    HW120436   1.967   0.930   3.159  1.7207  0.7568 -1.7656
 5966SOL    HW220437   1.878   0.857   3.061 -1.1943  0.3653  1.1015
 5967SOL     OW20438   4.236   9.194   5.058  0.2110 -0.4018  0.5369
 5967SOL    HW120439   4.324   9.176   5.093  0.4410 -1.2199 -0.4329
 5967SOL    HW220440   4.237   9.154   4.971 -1.0310 -0.1453  0.4054
 5968SOL     OW20441   1.587   6.613   8.702  0.1195 -0.6474 -0.0383
 5968SOL    HW120442   1.677   6.634   8.728 -0.5310  1.2693  0.7158
 5968SOL    HW220443   1.546   6.580   8.782  0.8495 -4.0906 -0.9742
 5969SOL     OW20444   0.915   8.264   1.187  0.2435 -0.8322 -0.1713
 5969SOL    HW120445   0.971   8.292   1.115 -0.2521 -0.1347 -0.2986
 5969SOL    HW220446   0.835   8.315   1.175  0.0858 -0.8587  0.7522
 5970SOL     OW20447   1.071   8.456   8.519  0.1850 -0.4750  0.1420
 5970SOL    HW120448   1.112   8.501   8.445  2.1661 -1.3493  0.6597
 5970SOL    HW220449   1.117   8.372   8.524 -0.5624 -0.8020  1.7863
 5971SOL     OW20450   2.629   5.898   3.249  0.1476  0.6222  0.2250
 5971SOL    HW120451   2.657   5.860   3.332 -0.3248 -0.1893  0.0287
 5971SOL    HW220452   2.694   5.965   3.229  0.5011  0.5217  1.0387
 5972SOL     OW20453   5.251   4.701   2.312 -0.0102  0.1396  0.4032
 5972SOL    HW120454   5.327   4.759   2.316  1.1487 -1.3583  0.4916
 5972SOL    HW220455   5.176   4.760   2.318  1.0876  1.8172 -1.9077
 5973SOL     OW20456   9.015   6.787   2.161 -0.2577  0.3129 -0.0613
 5973SOL    HW120457   9.009   6.727   2.235  0.0291  0.3180 -0.0349
 5973SOL    HW220458   9.091   6.841   2.180 -1.0169  1.2615  0.3447
 5974SOL     OW20459   1.024   4.896   1.876  0.6829  0.2094 -0.5511
 5974SOL    HW120460   1.005   4.851   1.794 -2.0992  0.0896  0.0945
 5974SOL    HW220461   0.944   4.886   1.928  1.5041  2.3539  1.2280
 5975SOL     OW20462   9.420   7.616   8.579  0.1776 -0.5237 -0.2635
 5975SOL    HW120463   9.397   7.666   8.658 -0.5427 -0.3477 -0.5847
 5975SOL    HW220464   9.372   7.534   8.588  0.9035 -0.9253 -0.0221
 5976SOL     OW20465   8.989   9.648   7.803 -0.0116  0.0260 -0.3609
 5976SOL    HW120466   9.063   9.602   7.842  0.6262 -0.4744 -2.0809
 5976SOL    HW220467   8.962   9.711   7.869  0.4564 -1.3810  1.1963
 5977SOL     OW20468   4.291   3.819   1.434 -0.0609  0.3242  0.0094
 5977SOL    HW120469   4.373   3.843   1.477  0.7067  0.9293 -1.7432
 5977SOL    HW220470   4.223   3.844   1.496  1.0168  1.4557  0.7601
 5978SOL     OW20471   5.812   4.473   3.658  0.3643 -0.5950 -0.3320
 5978SOL    HW120472   5.873   4.546   3.671  0.5568 -0.9856  1.0721
 5978SOL    HW220473   5.812   4.458   3.563  0.7895  0.8227 -0.5641
 5979SOL     OW20474   9.374   0.866   6.611 -0.1349 -0.1473 -0.3057
 5979SOL    HW120475   9.430   0.919   6.669  0.4252 -0.2148 -0.7799
 5979SOL    HW220476   9.329   0.931   6.557  1.7893 -0.1719 -2.0339
 5980SOL     OW20477   5.384   4.578   3.184 -0.6162 -0.2472  0.5589
 5980SOL    HW120478   5.304   4.596   3.235  0.2540  0.9886  1.5322
 5980SOL    HW220479   5.436   4.658   3.194  0.8500 -1.1456  0.1351
 5981SOL     OW20480   5.959   5.415   4.070 -0.1085  0.2830 -0.0130
 5981SOL    HW120481   5.975   5.346   4.006 -0.0006  0.3614 -0.0704
 5981SOL    HW220482   5.974   5.374   4.155  0.4578  0.3750 -0.0693
 5982SOL     OW20483   4.398   5.174   5.208  0.2643 -1.4050  0.1629
 5982SOL    HW120484   4.327   5.113   5.229 -0.1711  0.2940  3.9857
 5982SOL    HW220485   4.468   5.151   5.269  1.4317 -0.3872 -0.7770
 5983SOL     OW20486   4.033   1.789   6.504  0.0874 -0.2765  0.7946
 5983SOL    HW120487   3.972   1.860   6.483  0.6825 -0.8945 -3.3031
 5983SOL    HW220488   3.981   1.709   6.494  0.0530 -0.5744  3.0778
 5984SOL     OW20489   5.038   9.688  10.194  0.5672 -0.2596  0.5860
 5984SOL    HW120490   5.134   9.683  10.188  0.6081 -0.3588  1.1820
 5984SOL    HW220491   5.016   9.621  10.260 -0.2697 -3.0050 -2.3735
 5985SOL     OW20492   4.583   0.596   6.106 -0.5744  0.3773 -0.0161
 5985SOL    HW120493   4.656   0.647   6.070  0.2025 -0.2026  0.7311
 5985SOL    HW220494   4.604   0.505   6.085 -0.7427  0.1494  0.7723
 5986SOL     OW20495   4.249   8.778   0.419 -0.0510 -0.5945 -0.1510
 5986SOL    HW120496   4.212   8.796   0.332  1.2866 -1.7812 -0.9864
 5986SOL    HW220497   4.317   8.712   0.403  0.8284 -0.1532  1.6795
 5987SOL     OW20498   2.568   6.964   4.402 -0.1728  0.0152  0.4829
 5987SOL    HW120499   2.587   7.052   4.368 -2.1445  0.4401  0.4103
 5987SOL    HW220500   2.522   6.921   4.330  0.4347 -0.9453  0.6701
 5988SOL     OW20501   0.738   6.767   3.753 -0.4452 -0.3932  0.2539
 5988SOL    HW120502   0.807   6.774   3.686 -1.1593  0.1583 -0.4325
 5988SOL    HW220503   0.667   6.721   3.709 -2.0748  2.5375 -0.3176
 5989SOL     OW20504   0.244   3.743   9.145 -0.7756 -0.0657  0.0535
 5989SOL    HW120505   0.189   3.808   9.190 -0.3197  1.2994 -1.3328
 5989SOL    HW220506   0.304   3.795   9.092  1.4774 -1.5575  1.0844
 5990SOL     OW20507   7.312   7.753   6.544  0.2016  0.6206  0.0631
 5990SOL    HW120508   7.322   7.658   6.535  0.7357  0.6279  0.5494
 5990SOL    HW220509   7.401   7.785   6.557 -0.1265  1.0157  1.4717
 5991SOL     OW20510   2.309   5.151   6.445  0.2592 -0.0887  0.0167
 5991SOL    HW120511   2.215   5.152   6.460 -0.2186 -1.9911 -2.4677
 5991SOL    HW220512   2.328   5.236   6.406 -0.5361  0.1091  0.0606
 5992SOL     OW20513  10.195   2.099   3.230 -0.4227 -0.2828 -0.2101
 5992SOL    HW120514  10.210   2.109   3.136  3.0098  1.2952  0.4060
 5992SOL    HW220515  10.228   2.012   3.250  0.7283  0.1375 -0.1925
 5993SOL     OW20516   6.744   9.208   3.578  0.3104  0.1865 -0.2728
 5993SOL    HW120517   6.678   9.224   3.646 -1.0137 -0.1415 -1.4555
 5993SOL    HW220518   6.785   9.126   3.603  2.0563  1.6354  1.8408
 5994SOL     OW20519   6.285   8.810   1.861  0.5961  0.8571 -0.6813
 5994SOL    HW120520   6.318   8.769   1.781  1.6208 -1.4530  0.8977
 5994SOL    HW220521   6.362   8.825   1.915 -0.4999 -1.7268  1.7343
 5995SOL     OW20522   9.285  10.068   5.090 -0.7214 -0.5405 -0.7263
 5995SOL    HW120523   9.330   9.985   5.105 -1.3953 -0.8130 -0.1833
 5995SOL    HW220524   9.342  10.134   5.128 -0.9954 -0.9261  0.3760
 5996SOL     OW20525   5.275   8.111   9.964 -0.3271 -0.0891 -0.3614
 5996SOL    HW120526   5.328   8.187   9.939 -0.2269  0.3919  1.2804
 5996SOL    HW220527   5.339   8.040   9.971 -0.2060  0.0104 -0.4326
 5997SOL     OW20528   0.047   4.523   0.335 -0.0229 -0.7747  0.2400
 5997SOL    HW120529   0.123   4.545   0.388 -0.0688 -1.1014  0.4436
 5997SOL    HW220530   0.083   4.477   0.259  0.1042  0.3323 -0.3709
 5998SOL     OW20531   4.124   1.779   5.825 -0.5648 -0.0553 -0.0086
 5998SOL    HW120532   4.164   1.825   5.899 -0.1656 -2.2822  1.2334
 5998SOL    HW220533   4.182   1.794   5.751 -0.2889  1.1519  0.4511
 5999SOL     OW20534   1.375   1.981   5.676  0.3379 -0.2501  0.6976
 5999SOL    HW120535   1.373   1.942   5.589 -0.9353  0.7458  0.2697
 5999SOL    HW220536   1.284   1.983   5.705  0.4448  1.6844  1.0086
 6000SOL     OW20537   2.746   7.429   6.880 -0.4460 -0.0793 -0.2067
 6000SOL    HW120538   2.778   7.457   6.794 -0.8612 -0.2726 -0.4269
 6000SOL    HW220539   2.660   7.470   6.888 -1.0342 -1.2398 -0.5082
 6001SOL     OW20540   1.013   3.071   5.608  0.2202  0.5436  0.0925
 6001SOL    HW120541   0.941   3.126   5.640  0.8772  1.3315  0.2094
 6001SOL    HW220542   1.078   3.132   5.575 -0.0020 -0.2273 -1.8355
 6002SOL     OW20543   9.282   8.208   0.702  0.5014  0.6255 -0.0344
 6002SOL    HW120544   9.254   8.296   0.678  0.8571  1.2228  1.6750
 6002SOL    HW220545   9.201   8.163   0.726  0.1698  0.0923 -2.0137
 6003SOL     OW20546   3.830   1.412   5.744 -0.5378 -0.2416 -0.0772
 6003SOL    HW120547   3.850   1.342   5.683  2.9007  0.3932  0.2188
 6003SOL    HW220548   3.735   1.409   5.754 -1.1900 -0.7526 -4.9642
 6004SOL     OW20549   4.028   6.996   4.106  0.1405 -0.3106  0.0030
 6004SOL    HW120550   4.032   7.055   4.181 -1.4026  0.0131 -0.1705
 6004SOL    HW220551   3.974   6.923   4.135  0.0884 -0.5077 -0.5792
 6005SOL     OW20552   0.351   6.214   9.327  0.3992 -0.1074  0.5822
 6005SOL    HW120553   0.381   6.148   9.265 -1.8219 -0.7766  0.1560
 6005SOL    HW220554   0.368   6.297   9.284 -1.0950 -0.5656 -0.9433
 6006SOL     OW20555   8.085   5.082   2.035  0.5788 -0.1344  0.4903
 6006SOL    HW120556   8.166   5.043   2.068  1.0732 -1.0077 -1.6649
 6006SOL    HW220557   8.110   5.171   2.010  0.5438  0.0477  1.0996
 6007SOL     OW20558   0.663   8.917   0.446 -0.1339 -0.1044 -0.4626
 6007SOL    HW120559   0.586   8.947   0.397 -0.2655 -0.7517 -0.6637
 6007SOL    HW220560   0.696   8.995   0.489 -1.9582 -0.1022  1.0506
 6008SOL     OW20561   5.062   2.683   7.524 -0.4641  0.5724 -0.0173
 6008SOL    HW120562   5.117   2.626   7.578  0.5195  0.2898 -1.2938
 6008SOL    HW220563   5.047   2.760   7.578  0.1935  0.1268  0.8142
 6009SOL     OW20564   5.781   6.995   9.473  0.4465  0.1376 -0.2087
 6009SOL    HW120565   5.746   7.058   9.409 -0.4228 -0.1882 -0.0549
 6009SOL    HW220566   5.842   7.047   9.526  0.4028  0.6433 -0.6452
 6010SOL     OW20567   8.667   0.211   3.266  0.0786 -0.0948 -0.1767
 6010SOL    HW120568   8.758   0.183   3.258 -0.1105 -0.4038 -1.4218
 6010SOL    HW220569   8.671   0.296   3.309  0.9621 -0.1229 -0.2061
 6011SOL     OW20570   1.164  10.036   7.139 -0.3077 -0.0058  0.0449
 6011SOL    HW120571   1.172   9.955   7.088 -0.4866 -1.2469  1.8993
 6011SOL    HW220572   1.185  10.009   7.229 -3.4388  1.3413  1.2378
 6012SOL     OW20573   9.965   3.148   6.879 -0.1212 -0.2052 -0.0928
 6012SOL    HW120574   9.965   3.108   6.966 -2.1429  0.2251  0.1383
 6012SOL    HW220575   9.873   3.171   6.864  0.6884  2.5683 -1.0461
 6013SOL     OW20576   3.872   0.553   5.726  0.2974  0.0099 -0.3840
 6013SOL    HW120577   3.808   0.485   5.706  1.2858 -0.4952 -1.8855
 6013SOL    HW220578   3.819   0.631   5.744 -0.8302 -1.0625  1.0726
 6014SOL     OW20579   7.340   8.373   7.709  0.1894  0.4087  0.1340
 6014SOL    HW120580   7.295   8.359   7.792  0.3333  0.8451  0.2882
 6014SOL    HW220581   7.384   8.458   7.720 -1.0431  1.2017 -0.9330
 6015SOL     OW20582   9.274   9.346   1.907  0.2705  0.0015 -0.5429
 6015SOL    HW120583   9.226   9.296   1.974  0.7196 -1.3539 -1.2196
 6015SOL    HW220584   9.334   9.283   1.868 -1.3128  0.2698 -3.5402
 6016SOL     OW20585   0.810   4.271   9.267 -0.7758 -0.3248  0.3113
 6016SOL    HW120586   0.824   4.187   9.311  0.0508 -0.3646 -0.0105
 6016SOL    HW220587   0.776   4.247   9.181 -0.3642 -0.3475  0.1507
 6017SOL     OW20588   3.572   8.777   9.925  0.2556  0.4561  0.2968
 6017SOL    HW120589   3.492   8.796   9.875 -1.2523 -0.0052  2.4530
 6017SOL    HW220590   3.633   8.741   9.860 -1.0532  1.4249 -1.5102
 6018SOL     OW20591   2.041   5.521   7.423 -0.5487 -0.4048 -0.2625
 6018SOL    HW120592   2.108   5.474   7.374 -1.4007  0.1691 -2.0231
 6018SOL    HW220593   1.958   5.497   7.381 -1.3437 -0.2189  1.1509
 6019SOL     OW20594   0.831   5.554   7.296 -0.5437 -0.3288  0.0145
 6019SOL    HW120595   0.834   5.608   7.217 -0.3705  1.5864  1.2872
 6019SOL    HW220596   0.740   5.558   7.325 -0.5653 -0.8603  0.0273
 6020SOL     OW20597   9.060   6.773   0.744 -0.3133  0.1391 -0.2844
 6020SOL    HW120598   9.137   6.828   0.754  1.0593 -1.7072 -0.5664
 6020SOL    HW220599   9.007   6.792   0.822  0.6032  1.1350  0.1030
 6021SOL     OW20600   7.812   6.521   4.681 -0.2611 -0.1151 -0.1280
 6021SOL    HW120601   7.809   6.583   4.754  0.4892  0.3330 -0.4749
 6021SOL    HW220602   7.720   6.506   4.659 -0.4426  1.4289 -0.5039
 6022SOL     OW20603   8.708   3.241   3.177 -0.0724 -0.0243  0.2055
 6022SOL    HW120604   8.746   3.321   3.215 -1.0220  1.3551 -1.6859
 6022SOL    HW220605   8.630   3.271   3.132 -0.2057 -1.9854 -0.9023
 6023SOL     OW20606   9.901   6.834   8.596 -0.2278  0.1163  0.3029
 6023SOL    HW120607   9.905   6.759   8.655 -0.7970  0.4139  0.7267
 6023SOL    HW220608   9.945   6.904   8.644  0.0995  0.1200  0.0026
 6024SOL     OW20609   9.112  10.158   0.316  0.5073 -0.5542  0.3643
 6024SOL    HW120610   9.206  10.163   0.299  0.3499  0.0528 -0.3324
 6024SOL    HW220611   9.103  10.181   0.409  0.8941  0.9196  0.0358
 6025SOL     OW20612   3.905   4.495   1.034  0.1278 -0.0015 -0.1111
 6025SOL    HW120613   3.812   4.478   1.045 -0.3606  1.1711 -2.1455
 6025SOL    HW220614   3.928   4.448   0.953  1.9932 -2.7303  1.8981
 6026SOL     OW20615   6.169   8.034   5.528  0.0277  0.1246 -0.1165
 6026SOL    HW120616   6.255   8.054   5.565  1.5731 -1.2098 -2.8464
 6026SOL    HW220617   6.123   7.988   5.598  2.1435 -0.5790  0.8507
 6027SOL     OW20618   7.687   8.958   0.929 -0.3417 -0.5370 -0.2902
 6027SOL    HW120619   7.635   8.883   0.900 -1.5360  0.2177 -0.1061
 6027SOL    HW220620   7.661   8.972   1.020  1.5147 -1.2852  0.3937
 6028SOL     OW20621   7.283   4.565   0.327 -0.1313 -0.4360 -0.3069
 6028SOL    HW120622   7.302   4.571   0.233  0.9234 -0.0042 -0.0715
 6028SOL    HW220623   7.308   4.476   0.351 -1.1448 -0.8105 -0.5834
 6029SOL     OW20624   2.031   9.721   6.340 -0.2096 -0.2772 -0.5080
 6029SOL    HW120625   1.964   9.654   6.357 -0.6883  0.4476  0.4893
 6029SOL    HW220626   2.059   9.704   6.250 -0.2539 -1.8880 -0.2431
 6030SOL     OW20627   9.272   6.636   5.534  0.3008  0.0695 -0.0279
 6030SOL    HW120628   9.287   6.547   5.565  0.6485 -0.5548 -1.9313
 6030SOL    HW220629   9.341   6.687   5.576  1.8487 -1.0732 -1.1241
 6031SOL     OW20630   3.271   9.786   3.996  0.3266 -0.0838 -0.9307
 6031SOL    HW120631   3.279   9.706   3.944 -0.8179 -0.6670 -0.2352
 6031SOL    HW220632   3.298   9.760   4.084 -0.9283  0.0547 -0.4971
 6032SOL     OW20633   3.379   8.511   3.814 -0.0796  0.8629 -0.3071
 6032SOL    HW120634   3.307   8.448   3.809  0.1982  0.4454  0.7048
 6032SOL    HW220635   3.450   8.462   3.856 -0.2284  2.1584  1.4937
 6033SOL     OW20636   9.551   4.176   8.196  0.0877  0.2017  0.4194
 6033SOL    HW120637   9.525   4.126   8.119  0.4862 -0.3640  0.6438
 6033SOL    HW220638   9.527   4.266   8.176  1.1773  0.2339 -0.8281
 6034SOL     OW20639   9.057   4.310   7.003  0.1797  0.1545 -0.5129
 6034SOL    HW120640   9.015   4.384   6.961 -0.3782 -0.7530 -1.5903
 6034SOL    HW220641   9.015   4.233   6.964 -1.0204 -0.7225  2.3885
 6035SOL     OW20642   0.923  10.180   9.401 -0.1622 -0.1164 -0.5643
 6035SOL    HW120643   0.906  10.274   9.410 -2.5923 -0.6743  1.0934
 6035SOL    HW220644   0.877  10.155   9.320 -0.2520 -0.0404 -0.5378
 6036SOL     OW20645   4.927   1.467   5.810 -0.3020 -0.2757 -0.5913
 6036SOL    HW120646   4.907   1.553   5.774 -0.5892  0.1580  0.5858
 6036SOL    HW220647   4.949   1.414   5.734  2.0803  1.4105 -1.1191
 6037SOL     OW20648   5.387   1.077   5.543 -0.2625 -0.2880 -0.0649
 6037SOL    HW120649   5.437   1.040   5.616 -0.2157 -1.1730 -0.5344
 6037SOL    HW220650   5.324   1.135   5.584 -1.0108 -1.6716  0.7777
 6038SOL     OW20651   5.901   0.074   1.133 -0.5945 -0.4438 -0.0967
 6038SOL    HW120652   5.931   0.051   1.221  3.2852  0.4869 -1.0400
 6038SOL    HW220653   5.925  -0.001   1.079 -2.1368 -0.6433 -0.5219
 6039SOL     OW20654   4.682   0.766   2.613  0.5106  0.0249  0.2499
 6039SOL    HW120655   4.725   0.720   2.541 -0.3432 -1.5726  0.7496
 6039SOL    HW220656   4.617   0.822   2.571  1.1152  0.3254 -0.3052
 6040SOL     OW20657   9.724   6.108   0.560 -0.1255 -0.1811 -0.2481
 6040SOL    HW120658   9.656   6.123   0.625 -1.2298 -0.8794 -1.2204
 6040SOL    HW220659   9.779   6.039   0.597 -1.2030 -1.1199 -0.3841
 6041SOL     OW20660   5.918   7.393   2.588  0.4176 -0.1459  0.3690
 6041SOL    HW120661   6.000   7.442   2.579  1.1975 -0.7904  3.3649
 6041SOL    HW220662   5.944   7.311   2.629 -1.6841 -0.5791  0.8716
 6042SOL     OW20663   4.061   5.909   8.413 -0.2643  0.3420 -0.2082
 6042SOL    HW120664   4.136   5.955   8.375 -0.1370 -2.1467 -3.2420
 6042SOL    HW220665   3.985   5.959   8.383 -0.0027  0.1306 -1.2798
 6043SOL     OW20666   1.194   3.008   1.581  0.1221  0.4198 -0.5502
 6043SOL    HW120667   1.151   3.074   1.635  1.3451  1.6116 -1.0030
 6043SOL    HW220668   1.150   3.014   1.496 -0.0122  0.3889 -0.4831
 6044SOL     OW20669   8.605   3.623   5.288  0.2279  0.3971  0.2983
 6044SOL    HW120670   8.582   3.531   5.296 -0.0988  0.5139  0.6953
 6044SOL    HW220671   8.614   3.637   5.193  2.7195 -0.6229  0.3530
 6045SOL     OW20672   8.994   6.622   2.784 -0.1247 -0.2209  0.3588
 6045SOL    HW120673   9.065   6.559   2.772  0.0468 -0.6268  3.1066
 6045SOL    HW220674   8.916   6.568   2.799 -0.3180  0.2024  0.9178
 6046SOL     OW20675   5.043   3.287   4.036  0.0308 -0.0420  0.1545
 6046SOL    HW120676   5.092   3.355   4.083  1.4864 -0.5882 -0.5426
 6046SOL    HW220677   5.034   3.322   3.947  0.0305 -0.3802  0.0221
 6047SOL     OW20678   4.577   4.285   2.994  0.0361  0.1622 -0.5437
 6047SOL    HW120679   4.510   4.288   2.926  0.0043  0.0475 -0.5175
 6047SOL    HW220680   4.568   4.198   3.033  0.0567  0.2272 -0.3944
 6048SOL     OW20681   1.306   9.054   3.430  0.1058 -0.9294 -0.4020
 6048SOL    HW120682   1.377   8.991   3.446 -1.1407 -2.0791  0.7708
 6048SOL    HW220683   1.350   9.134   3.401  1.7410 -2.2906 -1.7958
 6049SOL     OW20684   0.973   1.285   8.876 -0.1645  0.5088 -0.4825
 6049SOL    HW120685   1.003   1.375   8.888  0.9713  0.0295  0.4104
 6049SOL    HW220686   1.027   1.250   8.805  1.0333 -0.1796  0.7427
 6050SOL     OW20687   9.921   6.635   8.778  0.0359 -0.5755  0.0591
 6050SOL    HW120688   9.864   6.670   8.848 -1.0556 -2.8744  0.3615
 6050SOL    HW220689  10.010   6.647   8.812 -0.4624 -1.1932  1.6319
 6051SOL     OW20690   6.269   0.612   1.739 -0.7448  0.3903  0.3830
 6051SOL    HW120691   6.203   0.578   1.678 -1.3767  0.4242  1.0404
 6051SOL    HW220692   6.318   0.676   1.688 -0.5243 -0.4001 -0.4269
 6052SOL     OW20693   5.566   3.117   5.919 -0.2744 -0.0360 -0.1441
 6052SOL    HW120694   5.474   3.118   5.947 -0.4503  0.4596 -0.7392
 6052SOL    HW220695   5.603   3.196   5.958 -0.3541  0.3016 -0.7547
 6053SOL     OW20696   3.074   4.334   0.345  1.7638  1.0710  0.0334
 6053SOL    HW120697   3.057   4.429   0.339 -0.0391  0.6346 -3.2601
 6053SOL    HW220698   2.988   4.294   0.334  2.6333 -0.9698  0.5333
 6054SOL     OW20699   8.709   5.645   5.624  0.0850 -0.4344  0.5632
 6054SOL    HW120700   8.747   5.731   5.638  0.3870 -0.4629 -0.0809
 6054SOL    HW220701   8.632   5.643   5.682  0.0490  0.2766  0.5423
 6055SOL     OW20702   1.870   6.613   7.278  0.2910  0.0740 -0.5314
 6055SOL    HW120703   1.961   6.590   7.259  0.7675  0.8714  0.7372
 6055SOL    HW220704   1.819   6.545   7.233  1.4996 -0.4534 -1.1518
 6056SOL     OW20705   8.848   8.564   7.222  0.9035  0.5343 -0.3175
 6056SOL    HW120706   8.754   8.567   7.241  0.8979  0.4984 -0.3419
 6056SOL    HW220707   8.884   8.638   7.271  0.5263  2.0302 -2.2291
 6057SOL     OW20708   1.547   7.178   8.651 -0.3974 -0.1702 -0.1092
 6057SOL    HW120709   1.589   7.259   8.623  0.0116 -0.4404 -0.2806
 6057SOL    HW220710   1.608   7.139   8.714 -1.2908  0.4231  1.1666
 6058SOL     OW20711   4.029   9.660   2.033 -0.5041 -0.2563  0.1967
 6058SOL    HW120712   3.972   9.598   2.078 -0.2023  0.6379  1.8410
 6058SOL    HW220713   4.032   9.628   1.942 -1.2239 -2.0063  0.7608
 6059SOL     OW20714   2.248   6.340   9.380  0.3247  0.0518  0.1895
 6059SOL    HW120715   2.260   6.434   9.392  0.4845 -0.1713  1.8519
 6059SOL    HW220716   2.166   6.321   9.425  0.5078 -0.6755  0.2121
 6060SOL     OW20717   0.335   6.460   0.698 -0.0590 -0.0588 -0.9739
 6060SOL    HW120718   0.296   6.492   0.780  1.0599  0.1275 -0.5048
 6060SOL    HW220719   0.285   6.503   0.629 -0.1955  0.7550 -0.3713
 6061SOL     OW20720   8.002   9.976   1.542 -0.2757  0.6052 -0.2759
 6061SOL    HW120721   8.034   9.963   1.453  3.5180 -0.2092  1.0893
 6061SOL    HW220722   8.081   9.985   1.595 -2.4211  1.1980  3.0212
 6062SOL     OW20723   6.878   5.100   5.931 -0.2828  0.5638 -0.0264
 6062SOL    HW120724   6.872   5.123   6.024 -0.0530  1.1829 -0.1638
 6062SOL    HW220725   6.877   5.184   5.885 -1.8966  0.2167 -0.6768
 6063SOL     OW20726   3.203   6.571   0.429 -0.0714 -0.3977 -0.5489
 6063SOL    HW120727   3.208   6.524   0.512  0.6321  1.9055  0.7626
 6063SOL    HW220728   3.128   6.532   0.384 -0.1929 -1.9730  0.9678
 6064SOL     OW20729  10.167   2.933   1.394  0.8786  0.8513  0.0384
 6064SOL    HW120730  10.191   2.867   1.329  0.3554 -1.2053  1.8364
 6064SOL    HW220731  10.240   2.995   1.395  2.1107 -0.5580 -0.6261
 6065SOL     OW20732   5.936   4.045   1.000  0.2884  0.0256 -0.0716
 6065SOL    HW120733   5.865   4.049   0.936  0.0149  1.5728  0.2987
 6065SOL    HW220734   5.940   3.953   1.025 -2.8789  0.1821  1.2849
 6066SOL     OW20735   7.321   9.494   7.716  0.6948 -0.5461  0.4852
 6066SOL    HW120736   7.411   9.520   7.737  0.3645  0.6161  0.5079
 6066SOL    HW220737   7.314   9.506   7.622  0.3860 -0.0339  0.5682
 6067SOL     OW20738   8.644   7.948   6.937  0.4665  0.2068 -0.0468
 6067SOL    HW120739   8.554   7.977   6.922  0.3917  0.9472  1.7167
 6067SOL    HW220740   8.673   7.998   7.013  1.7131 -1.4505  0.5974
 6068SOL     OW20741   6.610   2.155   9.420  0.2237  0.6063 -0.0474
 6068SOL    HW120742   6.550   2.159   9.494  0.5891  3.6979  0.1179
 6068SOL    HW220743   6.692   2.124   9.457 -0.7826 -2.1941 -0.0090
 6069SOL     OW20744   8.196   8.991   4.999  0.0414 -0.8609 -0.0524
 6069SOL    HW120745   8.104   9.015   5.010  0.4866  1.1728 -0.4653
 6069SOL    HW220746   8.239   9.020   5.079  0.6017 -0.2971 -0.5500
 6070SOL     OW20747   4.866   0.261  10.139  0.4085 -0.0931 -0.6037
 6070SOL    HW120748   4.938   0.206  10.170  0.0498 -1.4834 -2.2029
 6070SOL    HW220749   4.902   0.308  10.064  0.5120  1.4356  0.3604
 6071SOL     OW20750   0.700   1.249   8.203  0.4153  0.1356 -0.1327
 6071SOL    HW120751   0.718   1.255   8.109  0.0775  0.2067 -0.1929
 6071SOL    HW220752   0.695   1.155   8.220 -0.0917  0.1339 -0.2926
 6072SOL     OW20753   4.520  10.014   8.482  0.0021  0.1250 -0.2418
 6072SOL    HW120754   4.443  10.058   8.446  0.4111  1.4596  0.4647
 6072SOL    HW220755   4.590  10.034   8.420  0.1093  0.1799 -0.1037
 6073SOL     OW20756   9.953   5.504   1.793 -0.0803  0.4474  0.4539
 6073SOL    HW120757   9.980   5.528   1.704 -0.3265 -2.7451 -0.5400
 6073SOL    HW220758  10.031   5.519   1.847  0.6511  0.6407 -0.6502
 6074SOL     OW20759   0.685   9.730   4.216  0.1070 -1.2289  0.1796
 6074SOL    HW120760   0.667   9.767   4.302  0.2439 -1.3312  0.2518
 6074SOL    HW220761   0.681   9.635   4.229 -0.4416 -1.2393 -0.0473
 6075SOL     OW20762   1.919   1.813   6.351 -0.2089 -0.4182 -0.1551
 6075SOL    HW120763   2.001   1.843   6.312 -0.5761  1.6566  0.5686
 6075SOL    HW220764   1.884   1.749   6.290  1.1959 -0.1844 -1.2179
 6076SOL     OW20765   8.991   3.091   2.831 -0.2425  0.3585 -0.0182
 6076SOL    HW120766   8.971   3.033   2.758 -1.8953  1.3650 -0.3898
 6076SOL    HW220767   8.938   3.169   2.815  3.0911  2.6655 -0.3619
 6077SOL     OW20768   4.553   5.048   6.336  0.3617 -0.1742 -0.2886
 6077SOL    HW120769   4.577   4.996   6.412  2.0503  0.3368 -0.4317
 6077SOL    HW220770   4.622   5.114   6.330  0.8897 -0.8925 -2.8930
 6078SOL     OW20771   7.265   5.593   1.289  0.0218  0.1443  0.4499
 6078SOL    HW120772   7.283   5.687   1.287 -0.9425  0.3846  2.5633
 6078SOL    HW220773   7.347   5.553   1.259  0.4985  1.6272 -0.3029
 6079SOL     OW20774   0.835   3.528   4.180  0.3068 -0.2863  0.4139
 6079SOL    HW120775   0.770   3.486   4.237 -0.4356  0.5805  0.2199
 6079SOL    HW220776   0.787   3.600   4.138  1.1454 -0.2180 -0.4465
 6080SOL     OW20777   8.678   3.456   3.630 -0.4674 -0.1999 -0.6855
 6080SOL    HW120778   8.743   3.415   3.574 -0.6224 -0.6472 -0.5401
 6080SOL    HW220779   8.605   3.394   3.632  0.5306 -1.3952  2.0240
 6081SOL     OW20780   9.369   6.054   2.346  0.3985 -0.1648  0.3311
 6081SOL    HW120781   9.449   6.065   2.295  0.7283 -0.9500  0.6648
 6081SOL    HW220782   9.344   5.963   2.330  1.2277 -0.8168  2.5820
 6082SOL     OW20783   4.824   8.463   7.914 -0.1650 -0.1864 -0.1717
 6082SOL    HW120784   4.794   8.516   7.987 -1.6501  1.1531 -1.7003
 6082SOL    HW220785   4.919   8.476   7.911 -0.0852 -0.2547  1.4813
 6083SOL     OW20786   7.007   7.739   7.491  0.0703 -0.1029 -0.1398
 6083SOL    HW120787   7.098   7.767   7.506  0.3359 -1.8224  1.7352
 6083SOL    HW220788   6.974   7.720   7.579 -2.1487  0.5953 -0.8087
 6084SOL     OW20789   0.779  10.113   5.808 -0.7559 -0.6342  0.1302
 6084SOL    HW120790   0.709  10.175   5.829 -0.1021  0.1084  0.1643
 6084SOL    HW220791   0.774  10.047   5.877 -0.0444  0.5859  1.3665
 6085SOL     OW20792   6.025   2.041   1.350 -0.2433 -0.0190  0.3996
 6085SOL    HW120793   5.992   2.112   1.295  0.2049 -0.8770 -0.9786
 6085SOL    HW220794   5.996   1.961   1.307  2.5112 -0.7792 -0.1592
 6086SOL     OW20795   1.727   0.228   1.778  0.4708  0.0224  0.2010
 6086SOL    HW120796   1.743   0.173   1.855 -2.2474 -0.3146  0.5708
 6086SOL    HW220797   1.728   0.317   1.812  2.0612  0.0590  0.1018
 6087SOL     OW20798   6.653   5.309   8.618  0.1407  0.0471  0.8268
 6087SOL    HW120799   6.595   5.349   8.553  0.3424 -1.1882 -0.1356
 6087SOL    HW220800   6.597   5.291   8.693 -0.8768 -1.6223 -0.2928
 6088SOL     OW20801   5.080   2.260   2.978  0.6895 -0.2409 -0.0958
 6088SOL    HW120802   5.066   2.221   2.891  2.0269 -2.4915  0.6508
 6088SOL    HW220803   5.145   2.329   2.963  0.8214 -0.5353 -0.9228
 6089SOL     OW20804   5.786   3.775   6.017 -0.3472  0.2661  0.0173
 6089SOL    HW120805   5.866   3.763   6.067  0.5288 -1.9943 -1.8693
 6089SOL    HW220806   5.815   3.808   5.932 -1.5567  0.9946 -0.1293
 6090SOL     OW20807  10.044   5.522   1.517  0.4844  0.3586  0.3594
 6090SOL    HW120808  10.116   5.486   1.568 -0.5488 -3.0003 -0.3727
 6090SOL    HW220809  10.067   5.503   1.426 -0.7885  0.2084  0.0522
 6091SOL     OW20810   2.021   1.147   2.875  0.2055  0.0233 -0.0818
 6091SOL    HW120811   1.957   1.215   2.894 -0.0835  0.2175 -1.6507
 6091SOL    HW220812   2.045   1.161   2.783  1.0733 -1.2227 -0.0714
 6092SOL     OW20813   9.518   8.972   7.578 -0.0235  0.0859  0.2514
 6092SOL    HW120814   9.551   8.899   7.527 -0.8582  1.4733 -2.3526
 6092SOL    HW220815   9.425   8.954   7.589 -0.1232  0.4750  0.0683
 6093SOL     OW20816   3.567   6.632   2.172 -0.5131  0.2052  0.3573
 6093SOL    HW120817   3.591   6.687   2.097  0.4104  1.8443  1.8450
 6093SOL    HW220818   3.481   6.663   2.198 -0.7402 -0.2249  0.1364
 6094SOL     OW20819   0.232   8.027   0.194 -0.4957  0.3217 -0.6587
 6094SOL    HW120820   0.234   8.122   0.193  1.0038  0.3547  1.4058
 6094SOL    HW220821   0.322   8.000   0.181 -0.3797 -0.7005  1.9092
 6095SOL     OW20822   2.441   0.969   4.568  0.2008 -0.3549 -0.1326
 6095SOL    HW120823   2.494   0.907   4.517 -0.3300 -0.9208 -0.0083
 6095SOL    HW220824   2.425   1.041   4.508 -0.9427 -1.3014 -0.9982
 6096SOL     OW20825   8.056   4.395   1.413  0.1155 -0.5529 -0.5525
 6096SOL    HW120826   8.083   4.408   1.504  0.4268  0.7568 -0.8269
 6096SOL    HW220827   8.103   4.316   1.385  1.4103  0.0449 -0.1156
 6097SOL     OW20828   6.362   3.296   4.580  0.1732  0.4551  0.4614
 6097SOL    HW120829   6.296   3.253   4.525  0.3470  1.2779 -0.4173
 6097SOL    HW220830   6.441   3.297   4.526  0.8911 -0.4212  1.4653
 6098SOL     OW20831   2.532   1.588   7.556 -0.2480  0.0125  0.3980
 6098SOL    HW120832   2.441   1.617   7.566 -0.0010  0.9096  0.1010
 6098SOL    HW220833   2.533   1.538   7.475 -0.2144  1.0775 -0.2610
 6099SOL     OW20834   3.633   6.901   2.331 -0.3344 -0.3770 -0.1520
 6099SOL    HW120835   3.642   6.848   2.410  0.7258 -0.6462 -0.4496
 6099SOL    HW220836   3.718   6.944   2.321  0.0085 -1.4026 -1.8990
 6100SOL     OW20837   4.033   3.749   2.647 -0.0634 -0.3401  0.2424
 6100SOL    HW120838   4.128   3.742   2.655  0.0603  0.9453  0.0140
 6100SOL    HW220839   4.001   3.745   2.737  0.1435 -1.5134  0.2709
 6101SOL     OW20840   4.278   7.994   2.296 -0.4062  0.4984 -0.1120
 6101SOL    HW120841   4.317   7.907   2.296  1.4560  1.3033 -0.7847
 6101SOL    HW220842   4.319   8.039   2.371 -1.2984  0.8246  0.1875
 6102SOL     OW20843   7.516   1.390   5.900 -0.9693  0.3672  0.0909
 6102SOL    HW120844   7.587   1.432   5.948 -1.4851  0.0223  1.1568
 6102SOL    HW220845   7.465   1.344   5.966 -1.8451  0.1117 -0.7437
 6103SOL     OW20846   2.777   9.688   5.200  0.2009 -0.4833  0.2249
 6103SOL    HW120847   2.696   9.677   5.151  0.5525  0.2546 -0.5234
 6103SOL    HW220848   2.830   9.611   5.176 -0.4432 -1.2085  1.0758
 6104SOL     OW20849   4.410   4.937   6.153  0.8770 -0.3864  0.4594
 6104SOL    HW120850   4.462   4.995   6.208 -0.4363  1.3827 -0.1236
 6104SOL    HW220851   4.333   4.916   6.206  1.1039 -1.1968  0.4756
 6105SOL     OW20852   0.206   9.110   9.319  0.7831 -0.1187  0.0519
 6105SOL    HW120853   0.119   9.141   9.297  1.4080  1.0222 -0.8708
 6105SOL    HW220854   0.260   9.190   9.321  1.6635 -0.7255  1.2579
 6106SOL     OW20855   9.289   5.503   6.555  0.7354 -0.1234  0.2484
 6106SOL    HW120856   9.219   5.439   6.545 -0.1120  0.9048 -0.5537
 6106SOL    HW220857   9.247   5.580   6.593  1.4641  0.4392 -0.0652
 6107SOL     OW20858   1.543   2.236   6.106 -0.7300 -0.2287  0.5613
 6107SOL    HW120859   1.503   2.172   6.047 -1.7515  1.2070 -0.3348
 6107SOL    HW220860   1.633   2.243   6.076 -0.6581 -1.1195  0.5610
 6108SOL     OW20861   7.782   9.751   6.048 -0.0266  0.6824 -0.0293
 6108SOL    HW120862   7.828   9.817   6.100 -0.2388  1.4436 -0.7979
 6108SOL    HW220863   7.812   9.766   5.959 -0.8445  0.4011 -0.3526
 6109SOL     OW20864   3.416   0.020   4.059 -0.2953  0.0137  0.2064
 6109SOL    HW120865   3.502   0.061   4.053 -0.9749  1.6899  1.4934
 6109SOL    HW220866   3.409  -0.034   3.981  2.8684 -2.0186  1.2333
 6110SOL     OW20867   4.440   8.607   6.532 -0.9662  0.0862 -0.0884
 6110SOL    HW120868   4.517   8.559   6.500  0.5780  1.3764  1.6104
 6110SOL    HW220869   4.405   8.651   6.454  0.5855  0.2631 -0.7073
 6111SOL     OW20870   2.998   0.434   3.621  0.6227 -0.0161  0.7721
 6111SOL    HW120871   3.006   0.442   3.716  1.3429 -0.3755  0.7425
 6111SOL    HW220872   2.909   0.402   3.607  1.3149 -2.3689  1.4805
 6112SOL     OW20873   3.669   4.396   1.815  0.4555  0.3746 -0.1563
 6112SOL    HW120874   3.646   4.307   1.841  0.8800  0.5002  0.6636
 6112SOL    HW220875   3.599   4.450   1.851  1.1353  0.5689  0.9097
 6113SOL     OW20876   8.595   0.410   2.178 -0.0464  0.5309 -0.4460
 6113SOL    HW120877   8.688   0.416   2.154  0.1178 -2.2343 -0.6281
 6113SOL    HW220878   8.564   0.332   2.133 -2.2340  0.8953  0.4096
 6114SOL     OW20879   1.376   1.768   2.658  0.1450 -0.1740  0.0132
 6114SOL    HW120880   1.459   1.758   2.612 -0.2565  1.0463 -1.0175
 6114SOL    HW220881   1.345   1.679   2.671  1.0035 -0.5897 -0.7311
 6115SOL     OW20882   3.885   8.097   9.162 -0.4272  0.2932 -0.6995
 6115SOL    HW120883   3.808   8.068   9.111 -0.3393  0.2736 -0.8206
 6115SOL    HW220884   3.905   8.184   9.126 -0.2081  0.1716 -0.8756
 6116SOL     OW20885   7.751   1.320   1.810 -0.4146 -0.1278  0.0133
 6116SOL    HW120886   7.772   1.306   1.718 -0.7085 -1.0102  0.0769
 6116SOL    HW220887   7.810   1.262   1.858 -0.2840  0.3055  0.3787
 6117SOL     OW20888   7.843   5.648   8.874  0.6981  0.4002  0.0659
 6117SOL    HW120889   7.891   5.731   8.873  0.6594  0.4230 -0.1161
 6117SOL    HW220890   7.779   5.658   8.803  2.5853 -0.8838 -1.8606
 6118SOL     OW20891   3.667   0.052   9.610  0.4581  0.3900  0.0825
 6118SOL    HW120892   3.694   0.143   9.624  0.0856  0.4811  0.2156
 6118SOL    HW220893   3.576   0.049   9.641 -1.4496  1.3125 -4.9416
 6119SOL     OW20894   8.496   2.753   8.109  0.6605 -0.6281  0.1282
 6119SOL    HW120895   8.511   2.829   8.054  0.3904 -0.8126 -0.2019
 6119SOL    HW220896   8.544   2.772   8.190 -0.4995  0.5004  0.5782
 6120SOL     OW20897   9.455   8.527   1.469  0.0870  0.4443  0.4690
 6120SOL    HW120898   9.488   8.497   1.555  0.3611  0.8341  0.4982
 6120SOL    HW220899   9.470   8.621   1.469 -1.5072  0.7051  0.6877
 6121SOL     OW20900   8.365   0.553   9.103  0.1527 -0.3657 -0.6193
 6121SOL    HW120901   8.351   0.517   9.015  0.9642 -0.1395 -0.8443
 6121SOL    HW220902   8.329   0.487   9.162 -1.9092  0.2196 -1.1770
 6122SOL     OW20903  10.025   1.925   7.910  0.6257 -0.0294  0.3630
 6122SOL    HW120904   9.961   1.956   7.974  0.1654  1.7540 -0.9179
 6122SOL    HW220905  10.098   1.894   7.963 -1.1759 -1.8659  1.8292
 6123SOL     OW20906   2.147   3.759   3.786  0.5736  0.5905 -0.1516
 6123SOL    HW120907   2.121   3.844   3.751  0.0244  0.5355  0.1196
 6123SOL    HW220908   2.241   3.754   3.769  0.5040  1.0072 -0.6830
 6124SOL     OW20909   4.430   9.423   9.025 -0.0774  0.0054 -0.0268
 6124SOL    HW120910   4.514   9.404   8.983  0.0676  0.9474 -0.1735
 6124SOL    HW220911   4.381   9.340   9.019  1.7767 -1.3150  2.3172
 6125SOL     OW20912   8.218   3.935   3.179 -0.1159  0.3840 -0.1992
 6125SOL    HW120913   8.128   3.906   3.190 -0.2777  0.6522 -0.8030
 6125SOL    HW220914   8.214   4.030   3.190  0.4786  0.1701  2.1714
 6126SOL     OW20915   0.724   6.775   9.322 -0.3496 -0.0534 -0.4835
 6126SOL    HW120916   0.701   6.827   9.245  0.5415  0.2313 -0.5691
 6126SOL    HW220917   0.816   6.752   9.309 -0.5186 -0.9777 -0.0551
 6127SOL     OW20918   8.882   7.997   5.528  0.6390  0.1368  0.1192
 6127SOL    HW120919   8.796   7.957   5.539  0.0820  1.5654  1.1542
 6127SOL    HW220920   8.943   7.933   5.565 -0.1125 -0.2756  0.6642
 6128SOL     OW20921   9.634   1.021   9.580 -0.0378  0.2272  0.2749
 6128SOL    HW120922   9.628   1.095   9.520  1.0088  0.4780  0.4712
 6128SOL    HW220923   9.651   1.061   9.666  1.0834 -0.2644  0.2835
 6129SOL     OW20924   1.279   7.753   1.445 -0.4754 -0.0223 -0.3320
 6129SOL    HW120925   1.331   7.786   1.518  1.1764 -0.9972 -1.0330
 6129SOL    HW220926   1.290   7.818   1.376 -0.3484 -0.1336 -0.4163
 6130SOL     OW20927   0.528   7.118   1.241  0.2074  0.1551 -0.5325
 6130SOL    HW120928   0.593   7.183   1.267 -0.2336  0.1895  0.4983
 6130SOL    HW220929   0.475   7.103   1.319 -0.7484 -0.2105 -1.2307
 6131SOL     OW20930   1.621   4.183   6.276  0.2487 -1.0637  0.4003
 6131SOL    HW120931   1.633   4.115   6.342 -1.7758 -0.6212  1.2446
 6131SOL    HW220932   1.691   4.246   6.293  0.8631 -1.8778  0.9245
 6132SOL     OW20933   7.085   2.581   9.393 -0.4234 -0.5385  0.4897
 6132SOL    HW120934   7.082   2.558   9.300 -1.2329  0.9772  0.1339
 6132SOL    HW220935   7.177   2.572   9.417 -0.6870 -4.2710  0.4203
 6133SOL     OW20936   3.819   8.178   1.096 -0.1382 -0.0431  0.4944
 6133SOL    HW120937   3.744   8.197   1.040  0.0209  0.2996  0.3974
 6133SOL    HW220938   3.871   8.259   1.096  0.4304 -0.4005  0.2494
 6134SOL     OW20939   9.920   1.641   7.742 -0.9803 -0.4157 -0.0360
 6134SOL    HW120940   9.925   1.553   7.780  4.0725  0.2213  1.1780
 6134SOL    HW220941   9.881   1.694   7.811 -3.0311 -1.4375 -0.3624
 6135SOL     OW20942   9.841   6.806   1.541  0.3782 -0.2867  0.6187
 6135SOL    HW120943   9.840   6.867   1.615 -1.4144 -0.2223  0.5755
 6135SOL    HW220944   9.915   6.834   1.488  0.2053  1.2272  1.1289
 6136SOL     OW20945   3.073   6.896   9.427  0.0321  0.0013  0.1111
 6136SOL    HW120946   3.045   6.984   9.403 -0.4011 -0.1988 -0.1213
 6136SOL    HW220947   3.087   6.852   9.344 -0.7921 -0.4759  0.2182
 6137SOL     OW20948   0.644   8.360   2.487  1.0006  0.1115  0.0709
 6137SOL    HW120949   0.678   8.382   2.574 -0.9318  0.6777  0.7055
 6137SOL    HW220950   0.706   8.401   2.427  1.2760  1.4055  1.1985
 6138SOL     OW20951   3.276   6.257   0.398  0.3121 -0.5191  0.3042
 6138SOL    HW120952   3.268   6.345   0.362  0.0568 -1.2296 -1.4152
 6138SOL    HW220953   3.217   6.204   0.346  0.2884 -1.6776  1.4807
 6139SOL     OW20954   1.559   5.723   0.739 -0.4484 -0.2040 -0.0951
 6139SOL    HW120955   1.474   5.728   0.695 -0.4750 -1.4277 -0.1866
 6139SOL    HW220956   1.623   5.729   0.668 -0.4102  2.1873  0.0924
 6140SOL     OW20957   8.977   9.051   1.134  0.2272  0.0831  0.2172
 6140SOL    HW120958   8.979   9.088   1.046  1.7947  1.6097  0.8673
 6140SOL    HW220959   8.928   8.970   1.125 -0.4602  0.7082 -1.8781
 6141SOL     OW20960   5.283   1.701   8.878  0.2211 -0.0797 -0.1528
 6141SOL    HW120961   5.295   1.759   8.953 -1.7267 -0.4236  0.4716
 6141SOL    HW220962   5.339   1.737   8.810 -0.0157  1.8144  0.6166
 6142SOL     OW20963   8.595   7.966   5.349 -0.0431  0.1038 -0.2573
 6142SOL    HW120964   8.578   7.898   5.414  0.3941  0.1215 -0.1210
 6142SOL    HW220965   8.638   8.036   5.398 -1.5708  1.0013 -0.1449
 6143SOL     OW20966   3.656   4.841   6.888  0.7722  0.1413 -0.7956
 6143SOL    HW120967   3.591   4.793   6.939  1.3774  1.2403  1.0520
 6143SOL    HW220968   3.727   4.778   6.875  2.4817  1.0313  3.3993
 6144SOL     OW20969   6.684   1.331   2.204 -0.1129  0.2733  0.0693
 6144SOL    HW120970   6.595   1.323   2.169 -0.4774 -0.7880  1.1624
 6144SOL    HW220971   6.694   1.424   2.223 -1.1331  0.3559  0.2514
 6145SOL     OW20972   9.248   4.270   3.464 -0.2865 -0.3487 -0.2157
 6145SOL    HW120973   9.189   4.324   3.412  1.5137  0.5496 -1.3796
 6145SOL    HW220974   9.218   4.180   3.449 -1.7454  0.1465 -0.2654
 6146SOL     OW20975   8.556   7.835   4.324  0.3295 -0.4640  0.3182
 6146SOL    HW120976   8.519   7.798   4.244 -0.6084  0.3974  0.3518
 6146SOL    HW220977   8.565   7.928   4.306  1.1812 -0.4447  0.8138
 6147SOL     OW20978   4.444   7.015   2.424  0.3539 -0.2177  0.0751
 6147SOL    HW120979   4.460   7.028   2.517 -0.6589 -2.8052  0.6517
 6147SOL    HW220980   4.493   6.936   2.402 -0.1478 -0.1308 -1.3933
 6148SOL     OW20981   8.600   5.528   1.727  0.5930  0.2194  0.1679
 6148SOL    HW120982   8.640   5.509   1.812 -0.7699  0.8891  0.9742
 6148SOL    HW220983   8.522   5.472   1.724 -0.6960  1.9742  0.4123
 6149SOL     OW20984   3.665   9.419   7.592  0.4123 -0.0365 -0.4438
 6149SOL    HW120985   3.757   9.426   7.616 -0.1963  0.1199  2.0080
 6149SOL    HW220986   3.643   9.327   7.604  0.0384  0.0919 -0.0758
 6150SOL     OW20987   1.438   8.448   4.508  0.3546 -0.4718 -0.2984
 6150SOL    HW120988   1.384   8.507   4.454 -0.1653  0.0866  0.8140
 6150SOL    HW220989   1.518   8.498   4.524  0.4005 -0.5347 -0.3326
 6151SOL     OW20990   0.293   7.003   6.747 -0.1491 -0.0960  0.2729
 6151SOL    HW120991   0.261   6.970   6.662  1.3792  2.7208 -1.4374
 6151SOL    HW220992   0.385   6.979   6.749  0.2018  1.2333  0.4251
 6152SOL     OW20993   6.837   1.055   4.391  0.4756 -0.4236 -0.0439
 6152SOL    HW120994   6.893   1.132   4.402  0.3194 -0.4387  0.9061
 6152SOL    HW220995   6.753   1.091   4.364  0.0504 -0.1417  1.5560
 6153SOL     OW20996   5.039   6.740   1.745 -0.0560 -0.4371 -0.4409
 6153SOL    HW120997   5.042   6.653   1.705 -0.5163 -0.2284 -0.9444
 6153SOL    HW220998   4.991   6.793   1.682 -0.5981 -0.0461  0.2940
 6154SOL     OW20999   5.090   7.938   9.150 -0.8268  0.0818 -0.2510
 6154SOL    HW121000   5.105   7.844   9.155  0.9028  0.3476 -0.0706
 6154SOL    HW221001   5.018   7.948   9.087 -1.2903 -1.3673  0.0418
 6155SOL     OW21002   4.862   1.679   4.204  0.5937  0.2789 -0.2353
 6155SOL    HW121003   4.952   1.648   4.201  0.5576  0.2127 -0.7212
 6155SOL    HW221004   4.821   1.628   4.273  0.5927 -0.5943 -0.8757
 6156SOL     OW21005   2.710   3.629   3.213 -0.4141  0.5032 -0.4662
 6156SOL    HW121006   2.747   3.636   3.125  1.6718 -0.1568  0.3377
 6156SOL    HW221007   2.708   3.535   3.231  1.9913  0.7481  1.3358
 6157SOL     OW21008   4.542   5.130   3.750 -0.5979 -0.2664  0.5532
 6157SOL    HW121009   4.504   5.216   3.735  0.6524  0.4104  1.2337
 6157SOL    HW221010   4.636   5.146   3.760 -0.3784 -1.6802  0.8886
 6158SOL     OW21011   8.788   4.065   4.471  0.3704 -0.3880 -0.3921
 6158SOL    HW121012   8.824   4.073   4.560 -0.7357 -0.8121  0.1003
 6158SOL    HW221013   8.760   4.153   4.448 -1.3798 -0.6876  0.5565
 6159SOL     OW21014   4.094   2.734   4.985 -0.4185  0.9188  0.0116
 6159SOL    HW121015   4.065   2.811   4.936  0.8350  1.7653  0.5780
 6159SOL    HW221016   4.049   2.661   4.943 -0.4091  1.7800 -1.5503
 6160SOL     OW21017   8.217   1.700   4.273  0.2056 -0.0027 -0.6651
 6160SOL    HW121018   8.240   1.791   4.292 -0.3781  0.0369 -0.1543
 6160SOL    HW221019   8.169   1.704   4.190 -0.0548  0.1836 -0.5054
 6161SOL     OW21020   3.733   1.104   7.913  0.2965  0.1456  0.7112
 6161SOL    HW121021   3.725   1.196   7.939  0.3434  0.2960  0.1965
 6161SOL    HW221022   3.679   1.056   7.977 -0.9567  0.6848  0.0717
 6162SOL     OW21023   1.880   7.687   6.130  0.2247 -0.4297 -0.1660
 6162SOL    HW121024   1.818   7.626   6.090 -0.6395 -0.2631  0.8908
 6162SOL    HW221025   1.911   7.642   6.208 -1.1536  0.8530  1.1517
 6163SOL     OW21026   5.648   9.323   5.229  0.4247  0.0394 -0.5281
 6163SOL    HW121027   5.637   9.403   5.279 -0.2788 -0.8376  0.7543
 6163SOL    HW221028   5.559   9.291   5.214  0.7441 -1.1823  0.1083
 6164SOL     OW21029   7.516   0.281   6.583 -0.5312 -0.8092 -0.4634
 6164SOL    HW121030   7.552   0.265   6.496 -0.5549 -2.2709 -0.2228
 6164SOL    HW221031   7.578   0.239   6.643 -0.8261 -0.3261  0.1898
 6165SOL     OW21032   8.729   9.301   0.089 -0.2063 -0.1544  0.3601
 6165SOL    HW121033   8.710   9.387   0.050  1.7571  1.1312  2.1316
 6165SOL    HW221034   8.698   9.309   0.179 -0.1907 -1.3864  0.4736
 6166SOL     OW21035   3.254   5.300   1.489 -0.0615  0.2763 -0.1615
 6166SOL    HW121036   3.165   5.334   1.496 -1.5386 -3.7017  2.0928
 6166SOL    HW221037   3.244   5.218   1.441  2.2732 -0.5977  0.8117
 6167SOL     OW21038   1.421   7.476   4.593 -0.5429 -0.4705  0.1454
 6167SOL    HW121039   1.462   7.407   4.644  0.0226  0.8442  1.5033
 6167SOL    HW221040   1.423   7.443   4.503 -1.6172 -2.8378  0.9423
 6168SOL     OW21041   9.912   3.878   6.967 -0.5611  0.1329  0.2676
 6168SOL    HW121042   9.886   3.863   7.058 -1.4029  2.6096  0.4787
 6168SOL    HW221043   9.996   3.923   6.973 -1.8876  2.7634 -0.0475
 6169SOL     OW21044   0.418   7.719   7.780 -0.7524 -0.0280 -0.3892
 6169SOL    HW121045   0.440   7.784   7.846  2.9816 -2.8439  1.2649
 6169SOL    HW221046   0.349   7.666   7.819 -1.2432  0.6822 -0.2967
 6170SOL     OW21047   8.844   1.456   5.798  0.2109  0.1146  0.3594
 6170SOL    HW121048   8.906   1.394   5.837 -0.1475  0.2000  1.0651
 6170SOL    HW221049   8.815   1.413   5.718  1.6961  0.3634 -0.3374
 6171SOL     OW21050   3.821   1.120   9.801  0.2372 -0.3091 -0.1944
 6171SOL    HW121051   3.752   1.184   9.818  1.3672  0.6882  0.8107
 6171SOL    HW221052   3.828   1.117   9.705 -0.5855  0.2425 -0.2755
 6172SOL     OW21053   2.532   0.946   9.046 -0.6733 -0.2584  0.0566
 6172SOL    HW121054   2.541   0.975   9.137 -3.0627 -0.6679  0.4444
 6172SOL    HW221055   2.622   0.941   9.014  0.0744  2.7678  1.4854
 6173SOL     OW21056   2.933   6.929   4.154 -0.0216  0.1847  0.7521
 6173SOL    HW121057   2.874   6.994   4.115  1.5732  2.6483  2.3756
 6173SOL    HW221058   2.963   6.877   4.079 -1.1237  1.4612 -0.6078
 6174SOL     OW21059   1.359   6.547   5.511 -0.2955  0.2824  0.0543
 6174SOL    HW121060   1.315   6.616   5.561  0.7578  0.3516  0.8879
 6174SOL    HW221061   1.312   6.467   5.536 -0.7295  0.5227  0.0186
 6175SOL     OW21062   6.832   8.406   8.424 -0.0605  0.0190  0.0302
 6175SOL    HW121063   6.851   8.348   8.497 -0.6020 -0.8110 -0.4664
 6175SOL    HW221064   6.763   8.463   8.456  1.2103  1.0980  0.8715
 6176SOL     OW21065   9.935   7.747   0.049  0.6622  0.7418  0.2054
 6176SOL    HW121066  10.018   7.716   0.087  1.2407  0.5215 -1.2129
 6176SOL    HW221067   9.958   7.831   0.009 -0.3446  1.8406  1.8612
 6177SOL     OW21068   4.780   5.207   5.592 -0.6502 -0.5170  0.1084
 6177SOL    HW121069   4.875   5.215   5.600 -0.3907 -4.4048  2.4523
 6177SOL    HW221070   4.750   5.293   5.564  3.1988  1.8464  2.8606
 6178SOL     OW21071   4.550   2.106   7.921 -0.2652 -0.0722 -0.4244
 6178SOL    HW121072   4.582   2.186   7.881 -0.9477  0.0165 -0.7996
 6178SOL    HW221073   4.628   2.064   7.958 -0.1015  1.4116  0.9415
 6179SOL     OW21074   2.360   2.926   6.713 -0.1450 -0.1703  0.1409
 6179SOL    HW121075   2.328   3.002   6.762 -0.9275 -0.5144  0.1830
 6179SOL    HW221076   2.286   2.902   6.657 -0.0405 -1.1200  0.3977
 6180SOL     OW21077   4.886   8.823   7.736 -0.1105  0.4596 -0.0304
 6180SOL    HW121078   4.861   8.840   7.827  2.0924  1.5709  0.4011
 6180SOL    HW221079   4.813   8.858   7.685 -1.3004 -0.0144  1.2779
 6181SOL     OW21080   7.029   1.540   3.804 -0.0147  0.4495 -0.1633
 6181SOL    HW121081   7.118   1.508   3.794  0.0366  0.4043  0.4389
 6181SOL    HW221082   6.980   1.496   3.734  0.4063  0.3792 -0.4149
 6182SOL     OW21083   3.939   8.148   3.498  0.1908  0.0571  0.1796
 6182SOL    HW121084   3.909   8.131   3.408  0.6183 -1.7005  0.3570
 6182SOL    HW221085   4.003   8.218   3.488  0.7179 -0.5674 -0.9773
 6183SOL     OW21086   4.949   3.398   1.555  0.1624 -0.1824  0.6843
 6183SOL    HW121087   4.979   3.484   1.584  0.1213  0.4409 -1.0562
 6183SOL    HW221088   5.029   3.347   1.544  0.4140  0.6058 -1.2530
 6184SOL     OW21089   0.128   5.270   2.793  0.4770  0.5734 -0.3730
 6184SOL    HW121090   0.038   5.251   2.768  0.2255  0.6510  0.4600
 6184SOL    HW221091   0.122   5.348   2.849  0.9376 -0.0645  0.5813
 6185SOL     OW21092   9.781   5.552   5.438 -0.1418  0.0815 -0.6968
 6185SOL    HW121093   9.845   5.589   5.376 -1.7781 -0.4707 -2.7862
 6185SOL    HW221094   9.798   5.458   5.435  0.9413  0.2184  1.0567
 6186SOL     OW21095   1.231   4.603   5.269 -0.5361 -0.7440 -0.5046
 6186SOL    HW121096   1.163   4.619   5.204 -0.9070 -1.5706 -0.3159
 6186SOL    HW221097   1.230   4.681   5.324 -0.7903 -0.4097 -0.9743
 6187SOL     OW21098   8.524   7.808   0.487 -0.0978  0.1789 -0.3963
 6187SOL    HW121099   8.442   7.759   0.483  0.0072 -0.0897  0.6228
 6187SOL    HW221100   8.538   7.824   0.580 -0.2740  2.3915 -0.7179
 6188SOL     OW21101   0.894   4.630   8.784 -0.0438  0.3144  0.0420
 6188SOL    HW121102   0.868   4.584   8.704  0.3881  0.8935 -0.4415
 6188SOL    HW221103   0.976   4.588   8.810 -1.3623 -1.4339  1.5021
 6189SOL     OW21104   1.756   8.140  10.003 -0.1847  0.4791  0.5419
 6189SOL    HW121105   1.797   8.172   9.923 -0.6687  1.7445  0.7838
 6189SOL    HW221106   1.664   8.166   9.995 -0.3943 -0.0586  1.1660
 6190SOL     OW21107   5.685   6.236   3.953 -0.4287  0.1283 -0.1983
 6190SOL    HW121108   5.777   6.210   3.955 -0.3138  0.5439 -0.0336
 6190SOL    HW221109   5.656   6.229   4.044 -0.3323  0.7906 -0.1098
 6191SOL     OW21110   5.296   8.296   2.138 -0.3447 -0.0178  0.1410
 6191SOL    HW121111   5.266   8.300   2.229  1.2233  0.5628  0.6537
 6191SOL    HW221112   5.226   8.337   2.088 -2.2222 -2.3181  0.8158
 6192SOL     OW21113   0.166   9.760   8.303  0.5482  0.1747 -0.4344
 6192SOL    HW121114   0.109   9.716   8.366  2.4737 -2.0876 -0.2130
 6192SOL    HW221115   0.164   9.703   8.226  2.8553 -0.1925 -0.2552
 6193SOL     OW21116   2.623   5.522   7.550 -0.2650  0.6835  0.4811
 6193SOL    HW121117   2.631   5.593   7.613  0.2662 -0.5616  1.8436
 6193SOL    HW221118   2.532   5.494   7.556 -0.5212  1.3564 -0.1900
 6194SOL     OW21119   7.902   6.624   1.325 -0.1426 -0.3502 -0.1205
 6194SOL    HW121120   7.966   6.628   1.254  0.5051 -0.4100  0.4543
 6194SOL    HW221121   7.952   6.591   1.400 -1.2567 -2.0466 -0.1185
 6195SOL     OW21122   5.846   6.562   8.080 -0.5471  0.3470  0.5152
 6195SOL    HW121123   5.883   6.642   8.043  1.2704 -0.8029 -0.2024
 6195SOL    HW221124   5.891   6.552   8.164  1.3555 -1.4380 -0.6749
 6196SOL     OW21125   3.123   7.411   3.789 -0.0320  0.2109 -0.0063
 6196SOL    HW121126   3.028   7.412   3.805  0.2414  1.2677  1.6157
 6196SOL    HW221127   3.161   7.455   3.865  1.7058  0.6225 -1.0861
 6197SOL     OW21128   6.620   7.104   6.128 -0.5388  0.0793  0.2152
 6197SOL    HW121129   6.624   7.198   6.146  0.8667  0.1068 -0.1480
 6197SOL    HW221130   6.711   7.075   6.134 -0.6400 -0.8181 -1.9996
 6198SOL     OW21131   5.685   0.284   8.864  0.2401 -0.3906 -0.4309
 6198SOL    HW121132   5.593   0.307   8.872  0.0757 -1.3422  0.5603
 6198SOL    HW221133   5.686   0.188   8.864  1.2506 -0.3925 -0.1204
 6199SOL     OW21134   5.217   2.178   4.860  0.2109 -0.0142 -0.1555
 6199SOL    HW121135   5.208   2.250   4.923  0.3739  0.0147 -0.1634
 6199SOL    HW221136   5.308   2.151   4.869  1.1995  2.2003 -2.7119
 6200SOL     OW21137   4.620   1.382   1.849  0.2252  0.5027  0.2452
 6200SOL    HW121138   4.680   1.423   1.787  1.9883 -0.4255  1.2900
 6200SOL    HW221139   4.652   1.409   1.935 -2.3458  1.9869  0.7868
 6201SOL     OW21140   9.943   8.895   9.736  0.2442  0.2485 -0.2380
 6201SOL    HW121141   9.900   8.957   9.795 -0.3521 -0.4225  0.0422
 6201SOL    HW221142   9.880   8.882   9.665  0.8737  0.8946 -0.9089
 6202SOL     OW21143   0.364   7.716   3.937 -0.1981 -0.4531 -0.4267
 6202SOL    HW121144   0.340   7.665   3.859 -1.3923  0.0950 -0.4168
 6202SOL    HW221145   0.413   7.791   3.903 -0.9748 -0.0568 -0.6796
 6203SOL     OW21146   3.174   9.542   4.440  0.2762  0.4339 -0.1039
 6203SOL    HW121147   3.242   9.594   4.483 -0.5091  0.0338  1.6197
 6203SOL    HW221148   3.124   9.605   4.389  0.5130  1.0731  0.4597
 6204SOL     OW21149   0.675  10.166   4.729 -0.3665  0.4204  1.0265
 6204SOL    HW121150   0.697  10.228   4.799  0.3963  0.7042  0.5414
 6204SOL    HW221151   0.741  10.097   4.736 -0.1096  0.5989  0.4044
 6205SOL     OW21152  10.156   4.107   6.389  0.0635 -0.4371  0.0448
 6205SOL    HW121153  10.124   4.031   6.436 -0.3481 -0.8225 -0.8591
 6205SOL    HW221154  10.179   4.075   6.302  0.1670  0.4061 -0.2514
 6206SOL     OW21155   3.310   6.069   7.564  0.9740 -0.3143  0.9464
 6206SOL    HW121156   3.302   5.975   7.552 -1.4415 -0.0086 -0.1893
 6206SOL    HW221157   3.290   6.106   7.478  1.5029  1.2542  1.4800
 6207SOL     OW21158   7.055   3.985   5.058 -0.1565  0.1615  0.1858
 6207SOL    HW121159   6.964   4.009   5.039 -0.1450  0.1591  0.1276
 6207SOL    HW221160   7.079   3.925   4.988  0.7484  2.1862 -1.2951
 6208SOL     OW21161   4.990   2.018   4.575 -0.4207  0.1179  0.0227
 6208SOL    HW121162   5.059   2.082   4.558 -0.4544  0.6669  1.8044
 6208SOL    HW221163   4.977   1.973   4.491  1.5858  0.4898 -0.5154
 6209SOL     OW21164   2.616   6.268   4.523 -0.3336  0.3242 -0.5014
 6209SOL    HW121165   2.587   6.182   4.492  0.8914  0.0216 -0.8453
 6209SOL    HW221166   2.541   6.325   4.509 -1.1927 -0.7226 -0.1701
 6210SOL     OW21167   5.433   9.321   4.634 -0.7924 -1.1902  0.2962
 6210SOL    HW121168   5.341   9.343   4.647 -0.4296  0.6816 -0.1563
 6210SOL    HW221169   5.476   9.350   4.714 -0.1076  1.0642 -0.8402
 6211SOL     OW21170   7.676   4.954   1.855 -0.2476  0.0022  0.3611
 6211SOL    HW121171   7.620   4.902   1.913 -1.3036  1.5536  0.7412
 6211SOL    HW221172   7.622   5.028   1.829  1.3028  1.0221 -0.0285
 6212SOL     OW21173   5.876   8.778   4.465  0.2156 -0.0625 -0.2298
 6212SOL    HW121174   5.914   8.692   4.448 -1.6634 -1.2466  1.2939
 6212SOL    HW221175   5.825   8.766   4.545  0.3875  2.6323  0.3062
 6213SOL     OW21176   6.475   9.486   9.854 -0.1627  0.4423 -0.2264
 6213SOL    HW121177   6.521   9.568   9.872 -0.4022  0.6454 -0.5268
 6213SOL    HW221178   6.544   9.424   9.830  0.4000 -0.4376  3.4407
 6214SOL     OW21179   8.747   3.389   2.675  0.5053  0.1335 -0.0755
 6214SOL    HW121180   8.682   3.454   2.702  0.0515 -0.6508  0.7859
 6214SOL    HW221181   8.826   3.411   2.726  0.6788  0.6388 -0.5652
 6215SOL     OW21182   1.542   4.585   5.085 -0.3086  0.3693 -0.1467
 6215SOL    HW121183   1.509   4.508   5.040  1.5392 -0.3950 -0.2383
 6215SOL    HW221184   1.464   4.632   5.113 -1.4543 -1.0925 -0.8392
 6216SOL     OW21185   2.135   1.882   4.755  0.1162 -0.0677 -0.1777
 6216SOL    HW121186   2.043   1.856   4.754  0.1161 -0.1683  1.1754
 6216SOL    HW221187   2.181   1.808   4.715 -0.4905  0.4582 -1.9000
 6217SOL     OW21188   8.645   1.700   0.874 -0.1231 -0.2553  0.4079
 6217SOL    HW121189   8.697   1.632   0.918 -1.5864 -1.2528  0.6049
 6217SOL    HW221190   8.709   1.747   0.820  0.9375 -1.6770  0.3969
 6218SOL     OW21191  10.085   2.368   2.584 -0.3953  0.4402 -0.4588
 6218SOL    HW121192  10.112   2.451   2.545 -1.2805  2.0717  2.2594
 6218SOL    HW221193  10.036   2.324   2.515  0.8316  1.7795 -2.2234
 6219SOL     OW21194   5.403   3.348   4.214 -0.1623  0.2630 -0.3460
 6219SOL    HW121195   5.397   3.440   4.241  2.4962  0.7479 -1.1897
 6219SOL    HW221196   5.399   3.351   4.118  0.3723 -0.4495 -0.3901
 6220SOL     OW21197   7.048   7.707   7.201 -0.6514 -0.2543 -0.1351
 6220SOL    HW121198   6.964   7.688   7.160 -0.4114 -3.2196  0.6084
 6220SOL    HW221199   7.029   7.712   7.294 -0.4366  1.9213 -0.1798
 6221SOL     OW21200   6.636   5.332   5.673  0.3183  0.1709 -0.0972
 6221SOL    HW121201   6.725   5.305   5.698 -0.3945 -0.7347  1.5255
 6221SOL    HW221202   6.581   5.300   5.744 -1.0613  2.4723 -0.0806
 6222SOL     OW21203   9.079   5.886   3.196  0.1431  0.2004 -0.1006
 6222SOL    HW121204   8.986   5.873   3.214  0.5106 -0.5016  1.3317
 6222SOL    HW221205   9.119   5.899   3.282  1.5319 -0.5480 -0.6108
 6223SOL     OW21206   6.038   5.180   8.685 -0.3542  0.2201  0.0306
 6223SOL    HW121207   5.997   5.094   8.688 -0.1075  0.1164  0.4246
 6223SOL    HW221208   6.093   5.178   8.607 -1.3221  0.4604 -0.6667
 6224SOL     OW21209   1.105   0.031   2.872  0.0795  0.4910 -0.1196
 6224SOL    HW121210   1.098   0.121   2.904  1.4885  0.3351  0.6614
 6224SOL    HW221211   1.052  -0.020   2.934  0.3852  0.6003  0.2359
 6225SOL     OW21212   4.773   0.221   3.487  0.4765  0.2958  0.4001
 6225SOL    HW121213   4.833   0.229   3.561 -0.6718  0.7206  1.3048
 6225SOL    HW221214   4.783   0.131   3.457  1.2810  0.2574  0.7836
 6226SOL     OW21215   6.218   6.789   5.517  0.4219  0.2203 -0.1686
 6226SOL    HW121216   6.251   6.716   5.567  1.2029  0.7828  0.1390
 6226SOL    HW221217   6.257   6.867   5.557 -0.5711  0.8293 -0.3432
 6227SOL     OW21218   6.125   1.221   8.171  0.3222  0.0429  0.3109
 6227SOL    HW121219   6.179   1.205   8.248  0.1536  0.8007  0.5911
 6227SOL    HW221220   6.057   1.281   8.202  0.2491  0.3420 -0.4266
 6228SOL     OW21221   6.176   7.436   0.621  0.3415  0.1744 -0.1435
 6228SOL    HW121222   6.255   7.387   0.644 -0.3569 -0.9623 -0.1250
 6228SOL    HW221223   6.206   7.501   0.558  1.6700  1.1413  1.4629
 6229SOL     OW21224   0.607   8.625   7.429  0.0450  0.7996  0.2238
 6229SOL    HW121225   0.655   8.659   7.505 -0.5980  0.1104  0.9542
 6229SOL    HW221226   0.635   8.533   7.423 -0.8218  0.5208  0.3787
 6230SOL     OW21227   5.765   6.857   0.116  0.4346 -0.5704 -0.2516
 6230SOL    HW121228   5.725   6.788   0.169 -0.7441 -0.2418 -0.7092
 6230SOL    HW221229   5.711   6.860   0.037 -0.0275  1.4548  0.1270
 6231SOL     OW21230   7.671   1.652   7.267  0.2130  0.4752 -0.1499
 6231SOL    HW121231   7.688   1.558   7.268  1.0462  0.5945 -1.9504
 6231SOL    HW221232   7.659   1.675   7.359 -0.2629 -1.4325  0.2870
 6232SOL     OW21233   3.751   2.744   7.100  0.3112 -0.5216 -0.0369
 6232SOL    HW121234   3.833   2.723   7.145  0.0135 -3.7736 -0.8744
 6232SOL    HW221235   3.762   2.706   7.012 -2.5840 -2.2337  0.2684
 6233SOL     OW21236   1.039   6.532   7.401  0.1440 -0.3315 -0.3747
 6233SOL    HW121237   1.028   6.558   7.492  1.6298 -3.0931  0.6406
 6233SOL    HW221238   1.114   6.583   7.370  0.0441  0.1295  0.1452
 6234SOL     OW21239   9.958   0.258   0.679  0.0399  0.1905  0.0294
 6234SOL    HW121240   9.983   0.206   0.602  0.2731 -0.5240  0.5860
 6234SOL    HW221241   9.991   0.208   0.754 -1.4642  0.1413  0.6807
 6235SOL     OW21242   2.355   3.347   5.720 -0.3467  0.0054  0.0918
 6235SOL    HW121243   2.427   3.294   5.685  0.3337 -0.0759  1.5927
 6235SOL    HW221244   2.367   3.433   5.680 -0.5202 -0.5115 -1.1090
 6236SOL     OW21245   3.329   7.397   4.081 -0.2871  0.1660 -1.0395
 6236SOL    HW121246   3.294   7.321   4.128 -0.7413  1.4737  0.8133
 6236SOL    HW221247   3.345   7.462   4.150  0.8708  1.4550 -2.4908
 6237SOL     OW21248   6.157   7.642   8.163  0.3233 -0.2879 -0.2016
 6237SOL    HW121249   6.141   7.704   8.092 -0.5843  0.2517  0.4546
 6237SOL    HW221250   6.204   7.570   8.122  2.9145  1.5821 -0.6394
 6238SOL     OW21251   7.213   0.670   5.434 -0.0775  0.4478  0.0225
 6238SOL    HW121252   7.134   0.625   5.405  0.9339 -1.6511  0.4361
 6238SOL    HW221253   7.188   0.763   5.439 -1.7775  0.1438 -2.2577
 6239SOL     OW21254   8.984   6.031   5.206  0.1896  0.0340  0.4937
 6239SOL    HW121255   9.037   6.050   5.283  0.9990 -1.2132  0.2536
 6239SOL    HW221256   8.931   6.110   5.193 -1.3454 -0.4479  3.4438
 6240SOL     OW21257   6.447   9.511   5.950 -0.1648 -0.1174 -0.0274
 6240SOL    HW121258   6.481   9.424   5.970 -1.0698 -0.4263  0.2231
 6240SOL    HW221259   6.352   9.499   5.949 -0.2906  0.8552 -0.0498
 6241SOL     OW21260   4.974   0.820   3.949  0.5466 -0.2570  1.0103
 6241SOL    HW121261   5.047   0.834   3.888  0.6033 -0.7344  0.9700
 6241SOL    HW221262   4.924   0.749   3.910 -0.9558  1.2578  0.1059
 6242SOL     OW21263   5.218   8.749   9.021  0.7103 -0.1956  0.3422
 6242SOL    HW121264   5.300   8.715   9.056 -0.5260 -2.1771  1.3865
 6242SOL    HW221265   5.174   8.788   9.097  0.8466  1.2414 -0.2981
 6243SOL     OW21266   4.371   9.607   1.108 -0.0860 -0.0396  0.0897
 6243SOL    HW121267   4.317   9.575   1.036  1.8086 -0.6433 -1.0741
 6243SOL    HW221268   4.350   9.700   1.114  1.5177  0.5372 -2.8310
 6244SOL     OW21269   2.773   4.947   4.846  0.2174  0.6175 -0.1863
 6244SOL    HW121270   2.866   4.972   4.846 -0.3978  3.0366  0.3079
 6244SOL    HW221271   2.743   4.971   4.934 -0.8513 -0.3042 -0.2971
 6245SOL     OW21272   1.870   9.438   7.025  0.0334  0.1200 -0.2475
 6245SOL    HW121273   1.805   9.367   7.028 -0.0242  0.1998  0.3835
 6245SOL    HW221274   1.954   9.393   7.026  0.0036  0.0907  0.9850
 6246SOL     OW21275   8.945   3.125   3.123  0.3765 -0.5059 -0.4539
 6246SOL    HW121276   8.851   3.143   3.117  0.1232 -1.5383  0.3189
 6246SOL    HW221277   8.972   3.104   3.034 -0.0042  0.3791 -0.7811
 6247SOL     OW21278   1.298  10.090   8.888  0.1062  0.1878 -0.0947
 6247SOL    HW121279   1.356  10.138   8.946 -0.2474  0.7725 -0.2237
 6247SOL    HW221280   1.351  10.017   8.856 -0.0448 -0.7886  1.8311
 6248SOL     OW21281   7.712   4.386   7.043 -0.3651  0.4699  0.2440
 6248SOL    HW121282   7.738   4.340   6.964 -2.8664  1.3896 -1.1485
 6248SOL    HW221283   7.775   4.459   7.050  0.1625  0.1032 -0.6016
 6249SOL     OW21284   3.119   7.225   7.513 -0.0163 -0.0372 -0.3934
 6249SOL    HW121285   3.114   7.149   7.455 -1.4649  0.0053 -0.3320
 6249SOL    HW221286   3.109   7.189   7.601 -2.0485  0.3413 -0.4377
 6250SOL     OW21287   6.629   0.192   6.439 -0.2131 -0.0143  0.1720
 6250SOL    HW121288   6.721   0.210   6.421 -0.5602  1.0824 -0.5329
 6250SOL    HW221289   6.612   0.236   6.522 -0.5858  1.4396 -0.6491
 6251SOL     OW21290   3.533   9.883  10.004 -0.0690  0.6563  0.2602
 6251SOL    HW121291   3.622   9.911   9.982  1.1202 -2.3990  0.8796
 6251SOL    HW221292   3.502   9.947  10.068  3.0851 -0.2201  2.8027
 6252SOL     OW21293   6.176   6.808   9.094  0.2130 -0.7777 -0.2741
 6252SOL    HW121294   6.180   6.867   9.019 -1.1246 -1.5220 -0.9464
 6252SOL    HW221295   6.103   6.841   9.147 -1.1397 -2.3235 -1.1129
 6253SOL     OW21296   2.395   7.842   8.515  0.1368 -0.3540 -0.1055
 6253SOL    HW121297   2.303   7.850   8.489  0.4111  0.9112 -0.7322
 6253SOL    HW221298   2.410   7.916   8.573  0.6876 -0.7285  0.2339
 6254SOL     OW21299   6.123  10.059   8.077 -0.5576 -0.1473  0.3497
 6254SOL    HW121300   6.162  10.003   8.010  0.4079  0.8986  0.0150
 6254SOL    HW221301   6.101  10.140   8.030  0.5863  0.7808  1.3818
 6255SOL     OW21302   1.309   9.272   9.734  0.2797  0.4017 -0.6725
 6255SOL    HW121303   1.295   9.271   9.829  0.4507  0.2207 -0.6493
 6255SOL    HW221304   1.366   9.347   9.720  0.0910  0.5494 -0.6535
 6256SOL     OW21305   0.742   4.464   4.217 -0.8833  0.5966  0.0390
 6256SOL    HW121306   0.704   4.536   4.268  0.1756  0.8886  0.4230
 6256SOL    HW221307   0.824   4.444   4.261 -1.2450 -0.9743  0.0358
 6257SOL     OW21308   6.080   1.119   6.496 -0.5358  0.8037  0.2995
 6257SOL    HW121309   5.992   1.091   6.523 -1.1083  0.6483 -1.6447
 6257SOL    HW221310   6.121   1.039   6.462  0.6464  0.7154  1.9146
 6258SOL     OW21311   8.421   2.486   1.097 -0.0367  0.6930 -0.6587
 6258SOL    HW121312   8.382   2.552   1.039  0.0895  0.3409 -1.1491
 6258SOL    HW221313   8.420   2.406   1.045  2.3878  0.9227 -1.1249
 6259SOL     OW21314   9.374   2.249   8.495 -0.1644  0.2685 -0.0275
 6259SOL    HW121315   9.354   2.260   8.402 -2.1581  0.2801  0.3832
 6259SOL    HW221316   9.381   2.338   8.529  0.9517  0.2642 -0.2459
 6260SOL     OW21317   8.738   5.938   4.852  0.2701 -0.4254  0.2321
 6260SOL    HW121318   8.711   5.869   4.793  2.4263 -0.2823 -0.9805
 6260SOL    HW221319   8.691   5.920   4.934  1.3923 -3.7822  0.2016
 6261SOL     OW21320   2.426   8.473   2.773  0.5995  0.0259  0.1924
 6261SOL    HW121321   2.393   8.386   2.752 -1.4576  0.9226 -0.3746
 6261SOL    HW221322   2.366   8.506   2.840  1.7705  0.7658  0.9151
 6262SOL     OW21323   1.597   8.650   6.426 -0.2432  0.3150 -0.3943
 6262SOL    HW121324   1.568   8.559   6.422  0.0094  0.2662 -1.3017
 6262SOL    HW221325   1.542   8.691   6.493 -0.4118 -0.4839 -0.0456
 6263SOL     OW21326   6.545   3.097  10.019  0.1346  0.4532 -0.3965
 6263SOL    HW121327   6.574   3.006  10.017  1.1580  0.7856 -1.4854
 6263SOL    HW221328   6.604   3.140  10.080 -0.1247  0.4650 -0.1520
 6264SOL     OW21329   0.959   8.765   3.387 -0.1180 -0.0949 -0.3592
 6264SOL    HW121330   0.979   8.675   3.413  0.5780  0.2002  0.1221
 6264SOL    HW221331   0.982   8.818   3.463 -2.4363  0.2991  0.1300
 6265SOL     OW21332   3.147   0.354   8.850 -0.5771 -0.5187  0.2864
 6265SOL    HW121333   3.177   0.289   8.786 -1.9308 -0.6675 -0.2272
 6265SOL    HW221334   3.188   0.436   8.823 -1.6634 -0.4422 -1.2007
 6266SOL     OW21335   0.098   0.205   8.065 -0.2804 -0.1826  0.2276
 6266SOL    HW121336   0.103   0.274   8.131  0.3429 -0.1086  0.1085
 6266SOL    HW221337   0.073   0.127   8.114 -1.8483  0.3077  0.2262
 6267SOL     OW21338   7.650   5.994   8.074 -0.1879  0.3306  0.4364
 6267SOL    HW121339   7.614   5.962   7.991 -1.4286 -0.1805  1.1472
 6267SOL    HW221340   7.618   5.931   8.139 -0.5485  1.5948  1.5078
 6268SOL     OW21341   5.254   5.112   0.893  0.0912  0.5037  0.0037
 6268SOL    HW121342   5.273   5.034   0.946  0.4136  1.1235  0.8098
 6268SOL    HW221343   5.284   5.089   0.806  2.4956  0.6197  0.7736
 6269SOL     OW21344   5.207   8.730   2.008  0.4611 -0.1470 -0.0612
 6269SOL    HW121345   5.277   8.704   1.948  0.5782  0.3315 -0.1330
 6269SOL    HW221346   5.178   8.816   1.976  0.9407  0.3870  0.9131
 6270SOL     OW21347   5.142   8.670   2.987 -0.0559 -0.5781  0.8226
 6270SOL    HW121348   5.169   8.622   2.909 -0.0122  1.0663 -0.1999
 6270SOL    HW221349   5.203   8.641   3.056  2.1085  0.4854 -0.5954
 6271SOL     OW21350   1.944   4.085   6.074 -0.1107  0.7668  0.4769
 6271SOL    HW121351   1.983   4.040   5.999 -2.0202  0.5838 -0.4380
 6271SOL    HW221352   1.980   4.040   6.150 -2.7967 -3.1495 -0.4087
 6272SOL     OW21353   2.178   0.140   0.649  0.2173  0.3773 -0.1685
 6272SOL    HW121354   2.122   0.069   0.618  1.6871 -0.9653  0.1799
 6272SOL    HW221355   2.168   0.208   0.582  1.1138 -1.3420 -2.1215
 6273SOL     OW21356   1.873   3.089   4.090  0.2311 -0.5267 -0.7904
 6273SOL    HW121357   1.893   2.996   4.098  0.2799 -0.4758 -0.3497
 6273SOL    HW221358   1.957   3.133   4.101 -0.1823 -0.2852  1.4935
 6274SOL     OW21359   7.399   5.447   3.965 -0.5885 -0.0958  0.0510
 6274SOL    HW121360   7.378   5.535   3.934  1.2123 -0.0697 -1.1491
 6274SOL    HW221361   7.413   5.396   3.886  2.1908 -0.4871  0.7203
 6275SOL     OW21362   2.875   2.146   5.119  0.4426 -0.5763 -0.2064
 6275SOL    HW121363   2.798   2.099   5.150  0.6330 -0.6171  0.2086
 6275SOL    HW221364   2.840   2.222   5.074  0.1761 -0.1081  0.7710
 6276SOL     OW21365   6.440   2.270   5.053  0.6554  0.5927  0.1257
 6276SOL    HW121366   6.482   2.252   5.138  0.1244  1.1311  0.5007
 6276SOL    HW221367   6.474   2.201   4.996  0.5394 -0.1490  0.9350
 6277SOL     OW21368   0.246   1.342   4.930 -0.0300 -0.0941  0.3800
 6277SOL    HW121369   0.338   1.360   4.913 -0.2041  1.3265  0.8451
 6277SOL    HW221370   0.217   1.288   4.857  0.4367  1.8742 -1.2844
 6278SOL     OW21371   9.373   8.641   3.329  0.1930  0.4859  0.0892
 6278SOL    HW121372   9.279   8.626   3.321  0.2526  0.3118 -0.2699
 6278SOL    HW221373   9.400   8.584   3.401  0.2574 -0.4669 -0.6789
 6279SOL     OW21374   0.403   2.643   2.710  0.4122 -0.2105  0.4691
 6279SOL    HW121375   0.422   2.722   2.761  1.0477  0.0808 -0.2041
 6279SOL    HW221376   0.310   2.628   2.723  0.3043  0.6055  0.6747
 6280SOL     OW21377   6.752   1.953   0.335 -0.7716  0.2316  0.3997
 6280SOL    HW121378   6.696   1.895   0.385  1.7725 -1.8606  0.9316
 6280SOL    HW221379   6.810   1.894   0.286  0.4722  2.2926 -0.6929
 6281SOL     OW21380   0.039   8.458   1.326  0.0614 -0.3864  0.1053
 6281SOL    HW121381   0.053   8.382   1.382 -1.7415  0.3999  1.6929
 6281SOL    HW221382  -0.052   8.484   1.343 -0.2730  0.3732 -2.5983
 6282SOL     OW21383   5.365   1.553   0.101 -0.0698  0.1594 -0.2165
 6282SOL    HW121384   5.433   1.620   0.105  1.0524 -0.8821 -1.5841
 6282SOL    HW221385   5.288   1.599   0.065  0.1930  1.0879  0.3872
 6283SOL     OW21386   3.909   6.255   5.069  0.6043 -0.9105  0.2873
 6283SOL    HW121387   3.935   6.163   5.063  2.0626 -0.4896  0.0532
 6283SOL    HW221388   3.991   6.303   5.074 -0.1724  0.2901  1.9530
 6284SOL     OW21389   3.172   1.197   2.739  0.0016  0.0897  0.0340
 6284SOL    HW121390   3.169   1.241   2.824  2.7880 -0.1385  0.2968
 6284SOL    HW221391   3.206   1.110   2.759 -0.1890 -0.2744 -1.2134
 6285SOL     OW21392   5.796   3.855   4.615 -0.2636  0.3513 -0.1533
 6285SOL    HW121393   5.797   3.833   4.522  0.9070 -1.4574  0.2697
 6285SOL    HW221394   5.723   3.806   4.651 -0.6872  1.0130 -0.1074
 6286SOL     OW21395   0.640   0.416   1.910 -0.1436 -0.2772 -0.2281
 6286SOL    HW121396   0.685   0.499   1.918  0.2359 -0.5738  0.8140
 6286SOL    HW221397   0.710   0.351   1.904 -0.4389 -0.6094 -0.0703
 6287SOL     OW21398   7.684   8.342   0.342 -0.3309 -0.1699  0.3842
 6287SOL    HW121399   7.656   8.429   0.369 -0.2741  0.2842 -0.9950
 6287SOL    HW221400   7.602   8.295   0.323 -0.3816 -0.5658  1.5622
 6288SOL     OW21401   3.167   7.246   4.579 -0.9947  0.0030 -0.1554
 6288SOL    HW121402   3.129   7.256   4.667  0.3746 -1.1405  0.5891
 6288SOL    HW221403   3.200   7.156   4.578 -2.4583 -0.5377 -2.4364
 6289SOL     OW21404   8.971   5.635   6.394 -0.0411  0.2309 -0.4578
 6289SOL    HW121405   8.917   5.679   6.460 -0.4226 -2.2285  0.9516
 6289SOL    HW221406   9.029   5.703   6.362 -1.4146  2.0428  0.7599
 6290SOL     OW21407   2.118   1.695   9.424 -0.0663 -0.3979  0.1230
 6290SOL    HW121408   2.174   1.658   9.492  1.3944 -1.3494 -1.5408
 6290SOL    HW221409   2.170   1.764   9.384 -0.5653 -0.4195 -0.5835
 6291SOL     OW21410   0.171   4.140   1.819  0.6270  0.4488 -0.4346
 6291SOL    HW121411   0.243   4.202   1.833  0.8922  0.4057 -1.5760
 6291SOL    HW221412   0.199   4.089   1.744 -0.1799 -0.2066 -0.2842
 6292SOL     OW21413   8.510   5.176   7.838 -0.5420  0.5944 -0.8436
 6292SOL    HW121414   8.517   5.134   7.923  0.5287  0.7494 -0.8395
 6292SOL    HW221415   8.518   5.105   7.775 -0.0654  0.6257 -0.8223
 6293SOL     OW21416   0.091   3.529   9.051  0.1373 -0.3149  0.1791
 6293SOL    HW121417  -0.001   3.538   9.073  0.5876 -0.9197  2.4450
 6293SOL    HW221418   0.131   3.612   9.079  0.6627 -0.9764  1.4764
 6294SOL     OW21419   6.536   2.892   4.661 -0.7862  0.2208 -0.1260
 6294SOL    HW121420   6.585   2.954   4.714 -2.0378  1.0522  0.0706
 6294SOL    HW221421   6.480   2.846   4.724 -1.1207  0.1025 -0.5078
 6295SOL     OW21422   9.376   9.573   7.448 -0.2698 -0.2847  0.6930
 6295SOL    HW121423   9.319   9.497   7.457 -1.7387  0.6665 -0.3160
 6295SOL    HW221424   9.394   9.579   7.354  1.4784 -0.5420  0.9910
 6296SOL     OW21425   7.057  10.179   9.818 -0.2408 -0.1660 -0.0136
 6296SOL    HW121426   7.079  10.266   9.787 -0.9642 -0.2782 -0.8623
 6296SOL    HW221427   6.961  10.178   9.822 -0.2161 -0.7202  0.5588
 6297SOL     OW21428   8.515   7.871   6.235 -0.4665  0.2084 -0.2638
 6297SOL    HW121429   8.428   7.830   6.243  0.1845 -1.3489 -0.9310
 6297SOL    HW221430   8.500   7.963   6.256 -2.0781 -0.2609  0.7396
 6298SOL     OW21431   7.690   2.545   5.395 -0.4786 -0.2625  0.3584
 6298SOL    HW121432   7.629   2.540   5.468  1.3424 -2.5485  1.8176
 6298SOL    HW221433   7.777   2.546   5.436  0.6043 -2.0693 -1.7409
 6299SOL     OW21434   8.855   9.279   5.263 -0.2081 -0.5013  0.3029
 6299SOL    HW121435   8.840   9.303   5.354  0.9543 -1.4233  0.7611
 6299SOL    HW221436   8.806   9.343   5.212 -2.0298 -0.8416  1.6022
 6300SOL     OW21437  10.182   7.912   5.411  0.2193 -0.1284 -0.0476
 6300SOL    HW121438  10.268   7.879   5.384 -0.4257  0.3262 -2.8315
 6300SOL    HW221439  10.200   7.968   5.486  2.3736  0.1353 -0.7242
 6301SOL     OW21440   5.024   2.946   6.584 -0.4878  0.0965  0.0531
 6301SOL    HW121441   5.036   2.978   6.673  2.6570  2.9461 -1.2828
 6301SOL    HW221442   5.060   2.858   6.585  1.3228  0.8265  1.1801
 6302SOL     OW21443   6.018   0.958   2.917 -0.0948  0.0663  0.6075
 6302SOL    HW121444   6.045   1.020   2.985  0.0533  1.9198 -1.1314
 6302SOL    HW221445   6.063   0.876   2.941  0.0009  0.6920  2.6951
 6303SOL     OW21446   9.099   8.481   3.303  0.2333  0.0017  0.0363
 6303SOL    HW121447   9.044   8.560   3.299  0.6947  0.3505  0.6303
 6303SOL    HW221448   9.061   8.430   3.374  0.9113  0.4235  0.7095
 6304SOL     OW21449  10.073   1.807   3.008  0.3145 -0.1392 -0.1066
 6304SOL    HW121450  10.128   1.728   3.012 -0.5405 -0.7987 -0.9669
 6304SOL    HW221451   9.983   1.773   3.001 -0.1260  0.9204  0.3939
 6305SOL     OW21452   5.340   6.334   3.720  0.5837  0.3007 -0.2498
 6305SOL    HW121453   5.263   6.384   3.693  0.0879  0.9707  2.2097
 6305SOL    HW221454   5.412   6.397   3.717 -0.0833  1.3335  3.0753
 6306SOL     OW21455   6.287   5.770   1.999  0.3568 -0.4196  0.2515
 6306SOL    HW121456   6.278   5.706   1.929 -1.0417 -1.1463  1.0641
 6306SOL    HW221457   6.219   5.746   2.062  1.3387  0.4534  1.6748
 6307SOL     OW21458   5.604   6.595   8.246 -0.5714 -0.0405 -0.0212
 6307SOL    HW121459   5.677   6.583   8.185 -0.5922  1.4157 -0.3401
 6307SOL    HW221460   5.620   6.529   8.315  2.0077  1.3806  0.8121
 6308SOL     OW21461   3.007   7.845   4.081  0.3824  0.0440  0.2740
 6308SOL    HW121462   3.016   7.868   4.174  0.0025  0.4957  0.2029
 6308SOL    HW221463   3.081   7.787   4.063  0.4176 -0.1010  0.8779
 6309SOL     OW21464   3.147   8.056  10.177 -0.9046  0.0493 -0.2390
 6309SOL    HW121465   3.238   8.084  10.174 -0.7607 -0.5561 -3.8035
 6309SOL    HW221466   3.097   8.134  10.157 -1.0904  0.0124  0.0752
 6310SOL     OW21467   9.895   7.894   6.333  0.0007  0.7202  0.4536
 6310SOL    HW121468   9.823   7.909   6.395  0.6650  1.8079  0.9590
 6310SOL    HW221469   9.882   7.804   6.303 -1.1398  0.6602  1.1083
 6311SOL     OW21470   6.974   7.536   6.763  0.0152 -0.5567 -0.0840
 6311SOL    HW121471   6.918   7.518   6.687  1.4618 -1.2565 -1.0114
 6311SOL    HW221472   7.015   7.620   6.743  0.0595 -0.5275  0.1263
 6312SOL     OW21473   8.303   7.413   0.824  0.0674  0.7276 -0.2298
 6312SOL    HW121474   8.227   7.355   0.822  0.1081  0.6462  0.5215
 6312SOL    HW221475   8.269   7.498   0.796 -0.1530  0.5318 -0.5625
 6313SOL     OW21476   8.906   2.503   9.077  0.1579  0.0780  0.0807
 6313SOL    HW121477   8.970   2.549   9.131  0.0645  1.9368 -1.3578
 6313SOL    HW221478   8.832   2.564   9.070 -1.0845 -1.3554  0.3129
 6314SOL     OW21479   8.335   0.930   5.564  0.7267 -0.3056  0.0752
 6314SOL    HW121480   8.243   0.948   5.585  0.7701  0.4263 -0.3425
 6314SOL    HW221481   8.334   0.846   5.519  0.3495 -0.6795  0.7651
 6315SOL     OW21482   7.035   2.691   2.764  0.2567  0.0780 -0.2322
 6315SOL    HW121483   7.028   2.734   2.850  0.4157  0.2733 -0.3175
 6315SOL    HW221484   6.982   2.745   2.706 -1.0644 -0.8785  0.0561
 6316SOL     OW21485   1.944   6.823   5.306  0.2249  0.2922  0.5068
 6316SOL    HW121486   2.036   6.829   5.330  0.4756  1.8978 -0.7423
 6316SOL    HW221487   1.940   6.859   5.217 -1.2836 -1.6644 -0.2660
 6317SOL     OW21488   9.465   7.556  10.137  0.0954 -0.0035 -0.2334
 6317SOL    HW121489   9.537   7.529  10.194 -0.0702 -0.0180 -0.0300
 6317SOL    HW221490   9.387   7.517  10.176  0.1956 -1.4382 -1.4183
 6318SOL     OW21491   2.072   5.014   6.266 -0.0205  0.3347  0.2406
 6318SOL    HW121492   2.158   4.973   6.268 -0.3431 -0.3230  0.8829
 6318SOL    HW221493   2.066   5.060   6.350 -0.7820 -0.6445  0.7371
 6319SOL     OW21494   7.725   5.313   7.069 -0.1161  0.4772 -0.5541
 6319SOL    HW121495   7.700   5.221   7.073  0.4741  0.3880  1.7978
 6319SOL    HW221496   7.642   5.360   7.062 -0.4912 -0.1756 -0.5954
 6320SOL     OW21497   9.900   9.829   3.322 -0.8535 -0.4256  0.3690
 6320SOL    HW121498   9.938   9.906   3.365 -0.0105 -0.3660 -0.4819
 6320SOL    HW221499   9.927   9.756   3.377  1.3271 -0.4917 -0.7658
 6321SOL     OW21500   8.867   3.998   0.908 -0.4903 -0.5191  0.2119
 6321SOL    HW121501   8.853   3.969   0.817 -0.2748 -2.7710  0.8495
 6321SOL    HW221502   8.961   4.012   0.914 -0.4577 -0.7355  0.1939
 6322SOL     OW21503   0.030   5.458   6.231  0.3970  0.0666  0.6107
 6322SOL    HW121504   0.101   5.449   6.295 -0.3738  1.1788  1.6476
 6322SOL    HW221505  -0.035   5.394   6.259  0.2988  0.1663  0.6091
 6323SOL     OW21506   1.189   0.752   9.542 -0.1651 -0.2094  0.1521
 6323SOL    HW121507   1.241   0.777   9.466 -0.1375  2.4009  0.9888
 6323SOL    HW221508   1.253   0.722   9.606  0.0267  0.0987  0.1021
 6324SOL     OW21509   4.053   9.040   8.428 -0.6880 -0.1053  0.1475
 6324SOL    HW121510   4.065   8.997   8.513  4.4059  1.5546  0.4408
 6324SOL    HW221511   4.032   9.131   8.449  0.0717  0.1893 -0.3280
 6325SOL     OW21512   9.918   1.446   9.504 -0.0717 -0.3819  0.2088
 6325SOL    HW121513   9.999   1.497   9.497  0.5472 -1.1024  1.6782
 6325SOL    HW221514   9.848   1.511   9.505  0.5454  0.3004 -0.3025
 6326SOL     OW21515   3.561   2.323   6.223  0.0963 -0.4320  0.0823
 6326SOL    HW121516   3.552   2.369   6.140  0.8988 -0.9505 -0.3014
 6326SOL    HW221517   3.595   2.389   6.283 -0.9708  0.0778  0.1338
 6327SOL     OW21518   5.190   2.454   1.287 -0.0093 -0.2266 -0.1702
 6327SOL    HW121519   5.193   2.452   1.191  0.8342  1.4994 -0.2120
 6327SOL    HW221520   5.099   2.475   1.307 -0.3881 -1.4622 -0.5624
 6328SOL     OW21521   7.892   3.936   6.735 -0.0637  0.4053 -0.5051
 6328SOL    HW121522   7.976   3.975   6.710  1.2308 -1.6332  0.5354
 6328SOL    HW221523   7.863   3.988   6.810  0.4111  0.9292 -0.6757
 6329SOL     OW21524   5.807   3.557   5.692  0.5442 -0.0054  0.5915
 6329SOL    HW121525   5.802   3.507   5.773 -1.5908  2.6458  2.1649
 6329SOL    HW221526   5.895   3.595   5.693  0.4872  0.1152  1.7457
 6330SOL     OW21527   1.755   4.063   9.264  0.1170 -0.4103 -0.0542
 6330SOL    HW121528   1.793   3.991   9.213 -0.7638 -1.4281  0.7126
 6330SOL    HW221529   1.686   4.098   9.208  1.4533  0.7693 -1.0134
 6331SOL     OW21530   0.501   0.041   2.756  0.1549  0.2199 -0.4504
 6331SOL    HW121531   0.451   0.054   2.837  2.1600 -0.9502  1.0049
 6331SOL    HW221532   0.474  -0.045   2.725 -1.4892  1.1448 -1.7176
 6332SOL     OW21533   6.988   9.819   5.631 -0.2068 -0.5651 -0.5520
 6332SOL    HW121534   6.975   9.802   5.538 -2.5395 -0.0020 -0.3745
 6332SOL    HW221535   6.945   9.745   5.674 -2.5909  1.1137  0.0904
 6333SOL     OW21536   7.522   8.012   4.661  0.4914 -0.1591 -0.5893
 6333SOL    HW121537   7.517   7.942   4.596  0.5504  0.6737 -1.5019
 6333SOL    HW221538   7.612   8.045   4.654  0.8256 -0.7571  0.6634
 6334SOL     OW21539   9.676   8.859   2.327 -0.0451 -0.5359 -0.2268
 6334SOL    HW121540   9.769   8.879   2.333 -0.6091  2.4114 -0.5372
 6334SOL    HW221541   9.672   8.782   2.270  2.0829  0.5849 -1.9685
 6335SOL     OW21542   6.405  10.196   1.072 -0.4952  0.3540 -0.3022
 6335SOL    HW121543   6.436  10.255   1.141 -1.7727  1.4017 -0.6075
 6335SOL    HW221544   6.477  10.193   1.009  0.9089 -1.0397  1.3126
 6336SOL     OW21545   7.137   2.429   8.496 -0.2444  0.1215 -0.7126
 6336SOL    HW121546   7.045   2.403   8.486  0.4959 -2.2830 -1.3608
 6336SOL    HW221547   7.172   2.430   8.407  0.4878  0.6285 -0.4224
 6337SOL     OW21548   5.185   9.807   6.282  0.2688 -0.3323  0.5782
 6337SOL    HW121549   5.140   9.724   6.266 -0.1075 -0.0257  0.0395
 6337SOL    HW221550   5.188   9.850   6.197  0.5461  0.1721  0.8391
 6338SOL     OW21551   7.315   3.170   3.426 -0.4437 -0.1080 -0.1517
 6338SOL    HW121552   7.340   3.215   3.507 -0.8735  0.8941 -0.5811
 6338SOL    HW221553   7.286   3.083   3.456 -0.2417  0.1173  0.7319
 6339SOL     OW21554   7.403  10.019   0.613 -0.6782 -0.2402  0.6671
 6339SOL    HW121555   7.454   9.945   0.645  0.2218 -0.2579 -0.7464
 6339SOL    HW221556   7.421  10.089   0.675  0.2810 -0.5452  0.7414
 6340SOL     OW21557   3.254   5.064   5.433  0.0896  0.0426 -0.0997
 6340SOL    HW121558   3.295   5.007   5.498  2.4015 -0.3301 -1.8038
 6340SOL    HW221559   3.175   5.097   5.476  0.6912 -1.4772  2.2734
 6341SOL     OW21560   8.175   2.519   4.481 -0.0268  0.0214 -0.2851
 6341SOL    HW121561   8.103   2.530   4.420  0.0645  2.4962 -0.0071
 6341SOL    HW221562   8.161   2.433   4.520 -2.1877  0.0091 -1.0309
 6342SOL     OW21563   9.088   8.102   2.090  0.8529  0.3227 -0.5608
 6342SOL    HW121564   9.009   8.049   2.104 -0.0047  1.6835 -0.2085
 6342SOL    HW221565   9.095   8.109   1.995  0.8484 -0.2443 -0.6047
 6343SOL     OW21566   0.779   4.680   3.321  0.5277  0.1324  1.2315
 6343SOL    HW121567   0.781   4.773   3.343 -0.3341  0.4637 -0.0640
 6343SOL    HW221568   0.841   4.640   3.382  1.7934  1.7113  1.0109
 6344SOL     OW21569   1.096   8.854   2.060 -0.2035  0.0105 -0.0538
 6344SOL    HW121570   1.001   8.854   2.063 -0.1909  0.6284  0.2727
 6344SOL    HW221571   1.117   8.790   1.992 -0.8849  1.0034 -1.2105
 6345SOL     OW21572   2.974   9.045   9.721 -0.0610  0.0878 -0.2078
 6345SOL    HW121573   2.887   9.067   9.688 -0.4931 -0.1703  0.7358
 6345SOL    HW221574   2.957   8.994   9.801  0.9398 -0.8498 -0.5784
 6346SOL     OW21575   4.965   1.979   0.156 -0.3087 -0.1642  0.5185
 6346SOL    HW121576   4.870   1.978   0.154 -0.3641  1.8777  0.7138
 6346SOL    HW221577   4.990   2.051   0.098  1.1231 -0.9337  0.1634
 6347SOL     OW21578   0.296   2.026   2.706 -0.5872 -0.1169  0.1103
 6347SOL    HW121579   0.222   1.965   2.705 -0.3987 -0.3418 -0.1446
 6347SOL    HW221580   0.274   2.092   2.641 -0.2053 -0.6147 -0.5337
 6348SOL     OW21581   5.566   2.608   0.511 -0.0541  0.4196  0.6322
 6348SOL    HW121582   5.487   2.661   0.499 -0.5673 -0.5033 -0.1391
 6348SOL    HW221583   5.610   2.611   0.426  0.4257  0.4205  0.8770
 6349SOL     OW21584   3.505   4.879   6.630 -0.4174  0.4477 -0.6270
 6349SOL    HW121585   3.493   4.961   6.678  0.9700  0.5547 -0.4500
 6349SOL    HW221586   3.483   4.811   6.693  1.4222  0.5886  0.1804
 6350SOL     OW21587   9.608   6.511   8.005 -0.3331 -0.0229  0.1519
 6350SOL    HW121588   9.679   6.539   7.946 -0.7461 -1.4341 -1.0711
 6350SOL    HW221589   9.651   6.500   8.090  0.4909  1.1081 -0.0995
 6351SOL     OW21590   0.851   0.853   2.338  0.2382  0.1101 -0.4100
 6351SOL    HW121591   0.830   0.779   2.395 -0.0522  0.4822 -0.0291
 6351SOL    HW221592   0.769   0.900   2.329  0.6232  0.8994  0.0987
 6352SOL     OW21593   5.417   0.771   8.682  0.1505 -0.1497  0.4515
 6352SOL    HW121594   5.352   0.765   8.753  0.9744  1.0961  1.3276
 6352SOL    HW221595   5.396   0.852   8.637  0.0898 -0.5731 -0.2949
 6353SOL     OW21596   9.250   1.720   6.869  0.3960  0.7249 -0.8109
 6353SOL    HW121597   9.168   1.770   6.867  0.3240  0.5884 -1.4160
 6353SOL    HW221598   9.224   1.632   6.843  0.6127  0.4921 -0.2533
 6354SOL     OW21599   4.397   3.587   0.532 -0.3403 -0.2250  0.3141
 6354SOL    HW121600   4.306   3.564   0.512 -0.2097  0.4184 -1.0704
 6354SOL    HW221601   4.406   3.678   0.504  0.2670  0.2580  2.0376
 6355SOL     OW21602   8.958   0.522   5.439  0.0417  0.2850  0.0043
 6355SOL    HW121603   8.965   0.517   5.534 -0.1478  0.9621  0.0524
 6355SOL    HW221604   8.886   0.583   5.423  0.8630  1.1053 -0.5833
 6356SOL     OW21605   7.801   6.618   9.978 -0.0285  0.3399  0.4248
 6356SOL    HW121606   7.793   6.603  10.073 -1.9764 -0.8362  0.1053
 6356SOL    HW221607   7.879   6.568   9.953 -0.6240 -0.9686  1.1025
 6357SOL     OW21608  10.018   0.118   9.725  0.3624 -0.1314 -0.0966
 6357SOL    HW121609   9.992   0.028   9.707 -0.8024  0.2185 -0.1854
 6357SOL    HW221610  10.074   0.142   9.652 -0.1005 -0.4683 -0.5616
 6358SOL     OW21611   7.897   4.451   8.290  0.3958 -0.1421 -0.1895
 6358SOL    HW121612   7.850   4.526   8.253  1.0133 -0.4787 -1.6917
 6358SOL    HW221613   7.976   4.489   8.329 -0.2597  0.2181  0.7991
 6359SOL     OW21614   1.797   5.892   1.396  0.0041 -0.1677 -0.4690
 6359SOL    HW121615   1.849   5.934   1.464  0.5507  0.2662 -1.1523
 6359SOL    HW221616   1.852   5.819   1.365 -0.3229 -0.4834 -0.3145
 6360SOL     OW21617   5.990   0.412   2.546  0.3307 -0.3161 -0.1822
 6360SOL    HW121618   5.988   0.477   2.476  1.2076  0.0163  0.0985
 6360SOL    HW221619   5.913   0.433   2.600 -0.0997 -0.3022 -0.7934
 6361SOL     OW21620   0.023   1.559   2.660 -0.1046 -0.0939  0.3236
 6361SOL    HW121621   0.026   1.630   2.597  1.8930  1.4965  2.1143
 6361SOL    HW221622  -0.062   1.519   2.648 -0.8544  1.9602 -1.4432
 6362SOL     OW21623   1.181   2.295   8.283  0.2103 -0.0169 -0.2236
 6362SOL    HW121624   1.105   2.311   8.227 -0.6240 -2.3744  0.1807
 6362SOL    HW221625   1.172   2.204   8.310  3.4089 -0.4855 -0.4992
 6363SOL     OW21626   2.008   9.437   1.910  0.2351  0.1105  0.2671
 6363SOL    HW121627   1.974   9.441   1.999 -2.7959 -0.0631 -0.8099
 6363SOL    HW221628   2.043   9.348   1.901 -0.8458 -0.3690  0.8075
 6364SOL     OW21629   6.127   5.818   8.504 -0.1899  0.2029 -0.6242
 6364SOL    HW121630   6.174   5.824   8.588 -2.6560  0.5595  0.7760
 6364SOL    HW221631   6.187   5.771   8.447  2.1378  1.1873  0.9138
 6365SOL     OW21632   3.698  10.110   1.989  0.1944  0.9322 -0.7647
 6365SOL    HW121633   3.703  10.205   1.998  0.6452  0.8465 -0.1085
 6365SOL    HW221634   3.730  10.076   2.072 -2.3929  0.2333 -0.0098
 6366SOL     OW21635   5.472   2.391   5.672 -0.0570 -0.1336  0.5262
 6366SOL    HW121636   5.492   2.395   5.766 -0.2567  1.6549  0.5041
 6366SOL    HW221637   5.558   2.389   5.630  0.0346 -1.1100  0.7439
 6367SOL     OW21638   7.356   6.029   2.049  0.1612 -0.1582  0.1817
 6367SOL    HW121639   7.437   5.984   2.026  0.0425 -0.7047  0.8022
 6367SOL    HW221640   7.300   5.961   2.086  0.4043  0.6876  2.1878
 6368SOL     OW21641   6.622   2.629  10.140  0.1187 -0.4135 -0.2668
 6368SOL    HW121642   6.612   2.558  10.076 -1.8013  0.0910 -0.5673
 6368SOL    HW221643   6.698   2.605  10.192  0.6635 -1.7046 -1.6400
 6369SOL     OW21644   6.811   0.792   2.028 -0.4578 -0.7030 -0.4150
 6369SOL    HW121645   6.736   0.732   2.021 -0.4461 -0.9383  1.2896
 6369SOL    HW221646   6.853   0.768   2.110  0.8976  0.1306 -0.8594
 6370SOL     OW21647   6.976   1.680   7.114  0.1898 -0.1028  0.2907
 6370SOL    HW121648   6.995   1.757   7.168 -0.6903  1.9871 -2.2473
 6370SOL    HW221649   7.062   1.649   7.086  0.6476 -1.1216  2.6928
 6371SOL     OW21650   0.967   1.744   1.301 -0.4272  0.2305 -0.1966
 6371SOL    HW121651   0.892   1.693   1.272  0.8461 -1.3119 -0.8457
 6371SOL    HW221652   0.990   1.799   1.226  2.3566 -3.1620 -1.9416
 6372SOL     OW21653   5.144   7.386   5.637  0.8741 -0.0263  0.1756
 6372SOL    HW121654   5.108   7.454   5.581  1.7146  0.6143  0.4019
 6372SOL    HW221655   5.097   7.395   5.720 -0.1914 -0.8123 -0.3228
 6373SOL     OW21656   3.041   4.645   2.043  0.2406 -0.6119  0.5293
 6373SOL    HW121657   3.031   4.593   1.963 -2.1193 -0.7489  0.8711
 6373SOL    HW221658   3.135   4.643   2.062  0.7396 -1.1386 -1.8535
 6374SOL     OW21659   6.538   5.699   4.213 -0.7201 -0.0477  0.2837
 6374SOL    HW121660   6.511   5.786   4.182  0.5843  0.7531  1.3105
 6374SOL    HW221661   6.478   5.638   4.170 -1.9495  1.4015 -0.1015
 6375SOL     OW21662   8.348   4.563   1.416  0.3016  0.0126 -0.4307
 6375SOL    HW121663   8.400   4.582   1.338  0.4844  1.5607  0.0474
 6375SOL    HW221664   8.267   4.614   1.403  0.2446  0.1013  0.2833
 6376SOL     OW21665   5.414   3.655   6.948 -0.7178 -0.2770  0.2406
 6376SOL    HW121666   5.383   3.724   6.888 -1.8327 -0.7321  0.2875
 6376SOL    HW221667   5.461   3.703   7.016  0.6761  0.2398 -1.0487
 6377SOL     OW21668   4.394   5.910   5.906  0.2733  0.0892  0.1832
 6377SOL    HW121669   4.389   5.826   5.951 -2.9736  0.0589 -0.1014
 6377SOL    HW221670   4.434   5.890   5.822  2.2169 -0.6311  1.2431
 6378SOL     OW21671   6.088   6.542   7.035 -0.0768  0.0444 -0.2590
 6378SOL    HW121672   6.089   6.637   7.022 -2.7256  0.0892 -0.4120
 6378SOL    HW221673   6.098   6.506   6.947 -0.8078  0.2184 -0.4212
 6379SOL     OW21674   2.141   9.560   3.463  0.3958 -0.0282  0.1214
 6379SOL    HW121675   2.186   9.643   3.478  0.4980  0.0333 -0.5010
 6379SOL    HW221676   2.053   9.586   3.433  0.0051 -0.1486  1.1469
 6380SOL     OW21677   0.166   8.455   9.556  1.0722  0.0462  0.5110
 6380SOL    HW121678   0.183   8.362   9.572 -0.0573  0.2735  3.1823
 6380SOL    HW221679   0.242   8.500   9.591  0.9630  0.2259  0.5179
 6381SOL     OW21680   2.031   2.936   9.888  0.9151 -0.1920 -0.0755
 6381SOL    HW121681   1.959   2.925   9.950  0.9734  0.1592  0.0554
 6381SOL    HW221682   2.053   3.029   9.894  1.7240 -0.4009  0.2640
 6382SOL     OW21683   4.681   0.491   1.459  0.0902  0.6810  0.2036
 6382SOL    HW121684   4.716   0.576   1.431  2.1063  0.6040  2.3613
 6382SOL    HW221685   4.647   0.506   1.547 -0.0846 -0.6015  0.3661
 6383SOL     OW21686   6.147   0.392   6.734 -0.1202  0.4237 -0.1731
 6383SOL    HW121687   6.194   0.377   6.816 -1.0497  0.2365  0.3316
 6383SOL    HW221688   6.093   0.469   6.750 -2.0111 -0.9398  0.1528
 6384SOL     OW21689   0.648   6.135   3.490  0.0611 -0.0189  0.0638
 6384SOL    HW121690   0.622   6.158   3.579 -0.3211  0.0705 -0.0661
 6384SOL    HW221691   0.713   6.200   3.466 -1.0887  1.0002 -0.3376
 6385SOL     OW21692   5.275   4.429   2.336 -1.0356  0.0861  0.5771
 6385SOL    HW121693   5.280   4.524   2.349 -0.9979 -0.0479  1.5638
 6385SOL    HW221694   5.217   4.419   2.260 -0.7908  0.9046  0.2699
 6386SOL     OW21695   9.793   7.650   2.559  0.3831 -0.1604  0.3326
 6386SOL    HW121696   9.735   7.718   2.525  0.6630  1.5519  3.1332
 6386SOL    HW221697   9.873   7.659   2.507 -0.9446 -0.9637 -1.9334
 6387SOL     OW21698   1.045   5.732   5.053 -0.2552 -0.0880 -0.7693
 6387SOL    HW121699   0.990   5.662   5.015 -0.8967  0.0043 -0.0192
 6387SOL    HW221700   0.998   5.813   5.033 -0.7539 -0.0588  0.4747
 6388SOL     OW21701   9.763   1.275   6.537  0.2711 -0.2007  0.2243
 6388SOL    HW121702   9.777   1.270   6.443  1.2638  1.6968  0.2405
 6388SOL    HW221703   9.850   1.289   6.574 -0.2247 -0.0046  1.3385
 6389SOL     OW21704  10.018   5.414   4.816 -0.2367  0.1007  0.0409
 6389SOL    HW121705   9.949   5.405   4.750 -0.0019  0.4320 -0.2471
 6389SOL    HW221706  10.099   5.394   4.769  0.0514  1.4748 -0.0461
 6390SOL     OW21707   0.573   5.232   6.247  0.1454 -0.3879 -0.2781
 6390SOL    HW121708   0.558   5.142   6.216  0.6692 -0.3099 -0.7664
 6390SOL    HW221709   0.561   5.227   6.342 -0.2798 -0.8834 -0.3569
 6391SOL     OW21710   7.383   8.650   7.741 -0.6175  0.0847  0.3546
 6391SOL    HW121711   7.394   8.733   7.789  2.8178 -1.2529  2.0603
 6391SOL    HW221712   7.421   8.668   7.655  0.5770  0.1519  0.8894
 6392SOL     OW21713   7.301   5.370   3.517 -0.0030  0.2916 -0.1509
 6392SOL    HW121714   7.223   5.418   3.490 -2.0292 -3.1536 -0.6991
 6392SOL    HW221715   7.344   5.346   3.434  0.6602  0.6342  0.0935
 6393SOL     OW21716   1.368   3.945   9.243  0.3183  0.1014 -0.6321
 6393SOL    HW121717   1.287   3.970   9.198  0.3779  1.3440 -0.0710
 6393SOL    HW221718   1.432   3.935   9.173 -0.4877 -1.5871 -1.1476
 6394SOL     OW21719   0.082   4.526   4.486  0.2401  0.3292  0.0628
 6394SOL    HW121720   0.152   4.542   4.423  0.3878 -0.4444  0.0234
 6394SOL    HW221721   0.116   4.455   4.542 -1.0033 -0.9219 -0.7413
 6395SOL     OW21722   2.040   5.168   5.558 -0.2143  0.3016 -0.3119
 6395SOL    HW121723   1.991   5.188   5.637  2.4943  1.4706  1.1385
 6395SOL    HW221724   2.023   5.242   5.500 -0.4775  0.5011  0.0179
 6396SOL     OW21725   1.158   6.624   1.369 -0.4949  0.3165  0.1454
 6396SOL    HW121726   1.166   6.642   1.463  0.0390  0.4217  0.0827
 6396SOL    HW221727   1.134   6.709   1.330 -1.3145  0.1394  0.2587
 6397SOL     OW21728   0.767   8.969   1.515  0.4640 -0.1085 -0.3142
 6397SOL    HW121729   0.779   9.047   1.568  0.7052 -0.2658 -0.1423
 6397SOL    HW221730   0.853   8.929   1.509 -0.1058 -1.7762  1.7686
 6398SOL     OW21731   5.267   0.752   6.428 -0.0107  0.4666 -0.3755
 6398SOL    HW121732   5.282   0.825   6.487  0.3382  1.1513 -1.3032
 6398SOL    HW221733   5.227   0.684   6.483  1.5515  0.5924  0.9446
 6399SOL     OW21734   8.545   1.549   5.251  0.4956 -0.4642  0.5945
 6399SOL    HW121735   8.462   1.506   5.229  0.4141 -0.1266  0.2215
 6399SOL    HW221736   8.520   1.619   5.312  0.4598 -0.1575  0.2315
 6400SOL     OW21737   7.759   8.313   0.066  0.1827 -0.1793  0.3752
 6400SOL    HW121738   7.824   8.381   0.047 -1.3710  0.9526 -1.0298
 6400SOL    HW221739   7.749   8.316   0.162  1.0561  0.7146  0.4452
 6401SOL     OW21740   9.180   6.716   1.432  0.2610 -0.5252 -0.3417
 6401SOL    HW121741   9.264   6.760   1.420 -0.1160  0.6380  1.0838
 6401SOL    HW221742   9.142   6.710   1.344  0.9683  0.7140 -0.7394
 6402SOL     OW21743   3.365   5.299   1.761 -0.0567 -0.3493  0.0599
 6402SOL    HW121744   3.310   5.284   1.684  0.1896  0.5469 -0.2952
 6402SOL    HW221745   3.308   5.279   1.835 -0.1857 -1.5642 -0.3653
 6403SOL     OW21746   4.850   5.054   5.322 -0.1088 -0.1147 -0.0622
 6403SOL    HW121747   4.904   5.131   5.302  0.1768 -0.4452 -0.5567
 6403SOL    HW221748   4.900   5.008   5.390  0.5992 -0.8061 -1.0335
 6404SOL     OW21749   4.646   6.018   6.923  0.0527  0.3909 -0.4656
 6404SOL    HW121750   4.666   5.929   6.894 -2.7798  0.7807 -4.0288
 6404SOL    HW221751   4.732   6.061   6.929  1.4849 -2.6346  1.7480
 6405SOL     OW21752   1.317   5.379   9.564 -0.5931  0.1132 -0.0576
 6405SOL    HW121753   1.371   5.381   9.643 -2.0067 -0.1085  0.9250
 6405SOL    HW221754   1.229   5.357   9.595 -1.1179 -0.2054 -1.7168
 6406SOL     OW21755   9.346   0.496   9.255  0.7877  0.3431 -0.1448
 6406SOL    HW121756   9.391   0.414   9.275 -0.5802 -0.9227 -2.0954
 6406SOL    HW221757   9.417   0.559   9.240  1.8476 -0.6917  0.4844
 6407SOL     OW21758   3.733   4.733   5.822 -0.0967  0.1937 -0.0855
 6407SOL    HW121759   3.826   4.753   5.812 -0.2062  0.7920  0.1012
 6407SOL    HW221760   3.731   4.654   5.876  0.3766 -1.0981 -1.9194
 6408SOL     OW21761   0.693   8.739   3.988  0.2765  0.0850  0.1515
 6408SOL    HW121762   0.697   8.834   3.977  0.7269  0.2507  1.6437
 6408SOL    HW221763   0.741   8.704   3.913 -0.9481  0.9885 -1.0663
 6409SOL     OW21764   5.035   9.640   6.666  0.1659 -0.1943  0.6954
 6409SOL    HW121765   5.072   9.705   6.726 -1.6471  0.3674  1.2390
 6409SOL    HW221766   5.006   9.691   6.591 -0.4752 -0.4924  0.7436
 6410SOL     OW21767   5.472   4.556   5.429 -0.2007 -0.2985  0.2452
 6410SOL    HW121768   5.503   4.575   5.518  0.9595 -0.8694 -0.0253
 6410SOL    HW221769   5.550   4.564   5.374 -0.5369 -1.7085 -0.4745
 6411SOL     OW21770   3.503   0.825   2.912 -0.2661  0.3724 -0.5563
 6411SOL    HW121771   3.543   0.800   2.996 -2.6931 -0.7044  0.3235
 6411SOL    HW221772   3.548   0.771   2.847  0.8078  0.3417  0.1967
 6412SOL     OW21773   9.131   0.655   4.779 -0.4993 -0.4025 -0.4463
 6412SOL    HW121774   9.207   0.668   4.724 -0.0650 -0.1191  0.2116
 6412SOL    HW221775   9.161   0.679   4.867 -1.3802 -0.1540 -0.2082
 6413SOL     OW21776   0.999   8.886   4.721 -0.0491  0.4641  0.6379
 6413SOL    HW121777   1.055   8.963   4.736  0.1538  0.1685  1.4263
 6413SOL    HW221778   1.061   8.814   4.708 -0.1971 -0.2987  3.7364
 6414SOL     OW21779  10.086   8.911   5.390 -0.2097  0.5922 -0.2797
 6414SOL    HW121780  10.036   8.950   5.462 -2.6794 -0.1497 -1.5178
 6414SOL    HW221781  10.088   8.818   5.410  1.2931  0.7026  0.1058
 6415SOL     OW21782   1.126   6.973   1.679  0.1865  0.3982  0.3936
 6415SOL    HW121783   1.081   7.051   1.711 -0.3044 -0.1442  1.0549
 6415SOL    HW221784   1.192   6.953   1.745 -2.4224 -2.1242  2.4012
 6416SOL     OW21785   3.066   1.601   7.049  0.2456  0.2822  0.2508
 6416SOL    HW121786   3.071   1.697   7.055  0.6143  0.3790 -1.3587
 6416SOL    HW221787   3.150   1.575   7.013  0.9682 -0.8540  2.7064
 6417SOL     OW21788   2.140   1.000   5.965  0.5217  0.3449  0.4810
 6417SOL    HW121789   2.207   0.940   5.998  1.3563 -0.2592 -2.1555
 6417SOL    HW221790   2.173   1.087   5.987  3.1884  0.1547 -2.4241
 6418SOL     OW21791   8.281   3.085   8.746  0.2524  0.0433  0.0677
 6418SOL    HW121792   8.212   3.034   8.789  0.0192  0.3899  0.1091
 6418SOL    HW221793   8.361   3.036   8.763  0.1305  0.0592  0.6967
 6419SOL     OW21794   2.741   1.420   8.085  0.0483 -0.4251 -0.1159
 6419SOL    HW121795   2.725   1.383   7.998 -0.3987  0.4530 -0.4106
 6419SOL    HW221796   2.656   1.415   8.129  0.5312 -1.9197  0.6829
 6420SOL     OW21797   9.252   3.531   3.997  0.1711  0.2891 -0.3494
 6420SOL    HW121798   9.315   3.528   4.069  0.4079  0.4993 -0.5463
 6420SOL    HW221799   9.203   3.611   4.011 -2.2061 -1.4523  1.5967
 6421SOL     OW21800   0.063   1.254   1.657 -0.7846  0.4231  0.4376
 6421SOL    HW121801   0.078   1.342   1.624  0.1777  0.4265  0.8767
 6421SOL    HW221802   0.018   1.266   1.740  0.5731  0.5632  1.1743
 6422SOL     OW21803   8.121   6.286   7.902  0.7847 -0.3885  0.9228
 6422SOL    HW121804   8.035   6.256   7.872  0.7785  0.0176  0.5173
 6422SOL    HW221805   8.102   6.346   7.974  0.7648 -0.8820  1.3270
 6423SOL     OW21806   8.554   9.154   1.519  0.6186 -0.2037  0.0640
 6423SOL    HW121807   8.493   9.084   1.541  1.0566 -0.5299  0.2422
 6423SOL    HW221808   8.625   9.110   1.472  0.6478  0.1933 -0.2656
 6424SOL     OW21809   5.827   7.359   7.745 -0.1681 -0.4387  0.2239
 6424SOL    HW121810   5.756   7.366   7.682  1.1194 -0.1511 -1.2387
 6424SOL    HW221811   5.874   7.279   7.719  0.0882 -0.5825  1.1109
 6425SOL     OW21812   5.066   8.082   5.095 -0.4855  0.0053 -0.0456
 6425SOL    HW121813   5.033   8.138   5.025  1.1585  0.8065 -0.2176
 6425SOL    HW221814   5.046   7.993   5.066  1.3011  0.2515 -2.1692
 6426SOL     OW21815   2.149   9.434   2.935 -0.3019 -0.7128 -0.1406
 6426SOL    HW121816   2.128   9.461   2.845 -1.0350  0.0925  0.2612
 6426SOL    HW221817   2.146   9.516   2.985  3.9878 -0.4962 -0.0668
 6427SOL     OW21818   5.981   4.660   0.667  0.2005  0.4588  0.0470
 6427SOL    HW121819   6.048   4.668   0.598  1.4761 -0.9985  1.0930
 6427SOL    HW221820   5.898   4.671   0.620  0.9369 -2.2100 -2.0818
 6428SOL     OW21821   6.735   9.427   1.352 -0.1762  0.6622 -0.3079
 6428SOL    HW121822   6.799   9.471   1.295  0.9386  1.5755  1.5781
 6428SOL    HW221823   6.650   9.460   1.323  0.2951  0.3989 -2.0325
 6429SOL     OW21824   5.163   5.425   4.279  0.2329  0.4248  0.3315
 6429SOL    HW121825   5.174   5.503   4.334 -0.2626  0.2773  0.6370
 6429SOL    HW221826   5.112   5.364   4.333  0.6058 -0.1063  0.0891
 6430SOL     OW21827   7.792   9.291   9.131  0.4129  0.3678 -0.0186
 6430SOL    HW121828   7.860   9.356   9.151  1.8097 -1.1516  0.2939
 6430SOL    HW221829   7.812   9.217   9.188 -1.6890 -0.0037  0.2694
 6431SOL     OW21830   0.751   3.283  10.184  0.4723  0.4523 -0.0972
 6431SOL    HW121831   0.702   3.217  10.134  2.5339 -1.1064 -0.1370
 6431SOL    HW221832   0.726   3.367  10.146 -1.1167 -0.4092 -0.9957
 6432SOL     OW21833   8.729   8.259   9.306 -0.0280  0.1625  0.5327
 6432SOL    HW121834   8.665   8.213   9.252  0.9671 -0.1649 -0.3687
 6432SOL    HW221835   8.685   8.272   9.390 -1.7597  1.0680 -0.4850
 6433SOL     OW21836   7.806   7.760   8.355  0.4619  0.0132  0.4424
 6433SOL    HW121837   7.826   7.784   8.446  0.7510  2.3734 -0.2315
 6433SOL    HW221838   7.888   7.775   8.308  0.4118 -1.5292 -0.1729
 6434SOL     OW21839   5.991   4.295   0.593 -0.0209 -0.4871 -0.2955
 6434SOL    HW121840   5.903   4.305   0.557 -0.8572 -2.9239  0.9386
 6434SOL    HW221841   5.990   4.347   0.674 -0.4349 -0.7729 -0.1155
 6435SOL     OW21842   8.263   5.416   3.147  0.0558 -0.3228  0.3662
 6435SOL    HW121843   8.271   5.456   3.233  1.2608 -0.8074  0.4946
 6435SOL    HW221844   8.174   5.437   3.118  0.0081  0.7485  1.2679
 6436SOL     OW21845   9.325   5.782   2.288  0.2623 -0.0144  0.8262
 6436SOL    HW121846   9.237   5.749   2.308  0.1661  0.4435  1.1679
 6436SOL    HW221847   9.375   5.705   2.263 -0.3537 -0.2224  0.2224
 6437SOL     OW21848   9.013   8.308   7.519 -0.0053  0.0508 -0.1684
 6437SOL    HW121849   8.922   8.281   7.529  0.0067 -0.0181 -0.2506
 6437SOL    HW221850   9.061   8.255   7.583  0.2684 -1.4613 -1.5941
 6438SOL     OW21851   1.127   0.412   8.916 -0.5075  0.2553 -0.4460
 6438SOL    HW121852   1.179   0.448   8.987  0.0079 -0.9797 -0.1974
 6438SOL    HW221853   1.132   0.478   8.847  3.6033 -0.9957 -1.4482
 6439SOL     OW21854   8.010   9.540   3.626 -0.0577  0.0104 -0.5635
 6439SOL    HW121855   7.927   9.560   3.671 -0.4381  0.9404 -1.6433
 6439SOL    HW221856   8.049   9.626   3.610  0.5535 -0.3685 -1.1263
 6440SOL     OW21857   8.315   9.734   8.408 -0.7383  0.3946  0.0426
 6440SOL    HW121858   8.329   9.734   8.313 -0.1156  2.1813  0.1262
 6440SOL    HW221859   8.386   9.678   8.442  0.2683  1.3941 -0.3818
 6441SOL     OW21860   1.296   8.404   9.570 -0.2895  0.1147  0.0392
 6441SOL    HW121861   1.384   8.385   9.605  1.2886  4.5922 -1.1573
 6441SOL    HW221862   1.243   8.423   9.647  0.6121  0.3417  0.6142
 6442SOL     OW21863   6.678   5.130   2.872  0.1139  0.3157  0.0986
 6442SOL    HW121864   6.655   5.161   2.960  0.2555  0.3775  0.1129
 6442SOL    HW221865   6.606   5.160   2.817 -1.4034 -2.0674  0.6679
 6443SOL     OW21866   9.085   8.728   0.455  0.0131  0.0092  0.5424
 6443SOL    HW121867   9.021   8.781   0.407 -0.0445  0.8204  1.4969
 6443SOL    HW221868   9.148   8.701   0.389 -1.0181 -0.3398 -0.3168
 6444SOL     OW21869   5.935   3.868   5.823  0.3313  0.6874  0.2454
 6444SOL    HW121870   5.931   3.962   5.841  0.4278  1.4726 -3.4101
 6444SOL    HW221871   6.008   3.859   5.762  0.5328 -1.8386  0.8043
 6445SOL     OW21872   1.852   4.866   9.575  0.4302 -0.6133 -0.1213
 6445SOL    HW121873   1.835   4.960   9.570 -1.1479 -0.6825  2.8865
 6445SOL    HW221874   1.794   4.827   9.510 -0.1884  0.3682 -0.1686
 6446SOL     OW21875   9.128   7.486   8.322 -0.2067  0.2959  0.2588
 6446SOL    HW121876   9.044   7.475   8.277 -0.2575 -0.6137  0.5643
 6446SOL    HW221877   9.166   7.565   8.283 -0.1438 -0.6142 -1.5350
 6447SOL     OW21878   9.015   0.932   0.608  0.2636 -0.1436 -0.6975
 6447SOL    HW121879   9.021   0.908   0.516 -0.3117 -2.2320 -0.2164
 6447SOL    HW221880   9.106   0.936   0.638  0.4441  0.4165 -1.3025
 6448SOL     OW21881   4.401   3.765   4.738  0.3425  0.1951 -0.2070
 6448SOL    HW121882   4.352   3.847   4.737  1.5129  0.8995 -1.7700
 6448SOL    HW221883   4.354   3.708   4.678 -0.2322 -0.1589  0.5628
 6449SOL     OW21884   0.980   4.460   1.102 -0.7831 -0.1103  0.3078
 6449SOL    HW121885   0.931   4.541   1.091 -0.1175  0.3257  0.4962
 6449SOL    HW221886   1.065   4.478   1.061 -0.0950 -0.2024  1.6827
 6450SOL     OW21887   9.386   6.365   9.749  0.1142 -0.2127 -0.7785
 6450SOL    HW121888   9.371   6.324   9.664  1.5669 -1.5956 -0.3727
 6450SOL    HW221889   9.341   6.309   9.812  1.0967 -0.5367 -0.3605
 6451SOL     OW21890   1.987   6.318   2.617 -0.3954 -0.1298  0.1154
 6451SOL    HW121891   2.042   6.293   2.692  1.0087 -0.2801 -0.9451
 6451SOL    HW221892   1.913   6.258   2.621  0.8555 -1.7148  0.0166
 6452SOL     OW21893   1.571   3.466   0.523 -0.0582 -0.6239 -0.3519
 6452SOL    HW121894   1.523   3.426   0.595  0.3804 -0.5553 -0.0181
 6452SOL    HW221895   1.642   3.514   0.565  0.0125 -0.3227 -0.8107
 6453SOL     OW21896   6.134   0.914   6.163  0.2761  0.0848  0.1558
 6453SOL    HW121897   6.140   1.000   6.120 -1.3956  0.4631  0.6048
 6453SOL    HW221898   6.218   0.902   6.206  0.5331  1.5088  0.0714
 6454SOL     OW21899   5.362   4.990   7.891  0.4213 -0.0123  0.5481
 6454SOL    HW121900   5.366   5.019   7.799  0.3979  0.5156  0.7119
 6454SOL    HW221901   5.277   5.022   7.922 -0.9490 -2.7876 -0.1087
 6455SOL     OW21902   2.023   4.633   1.984 -0.2839 -0.6306  0.2142
 6455SOL    HW121903   1.972   4.679   1.918 -0.1895 -0.4687  0.2550
 6455SOL    HW221904   2.107   4.678   1.986 -0.0587 -1.0386 -0.0109
 6456SOL     OW21905   5.392   1.549   3.226 -0.4785 -0.0702 -0.2589
 6456SOL    HW121906   5.324   1.482   3.230 -1.2697  0.7334  0.0456
 6456SOL    HW221907   5.382   1.590   3.140 -0.7627  0.4430  0.0173
 6457SOL     OW21908   5.289   3.671   1.072  0.1332  0.1844 -0.1116
 6457SOL    HW121909   5.323   3.612   1.139 -1.2532 -0.7251 -0.1898
 6457SOL    HW221910   5.198   3.644   1.060 -0.7165  2.7288  0.2823
 6458SOL     OW21911   6.344   6.247   8.279 -0.2514 -0.1077 -0.3580
 6458SOL    HW121912   6.293   6.301   8.218  0.3625  1.2721  0.3359
 6458SOL    HW221913   6.435   6.259   8.251  0.0656  0.8004  1.0432
 6459SOL     OW21914   6.706   4.659   1.870 -0.2434  0.8028  0.2959
 6459SOL    HW121915   6.638   4.683   1.933 -0.7231  0.4230 -0.0771
 6459SOL    HW221916   6.693   4.719   1.797 -0.9078 -0.0295 -0.2719
 6460SOL     OW21917   0.221   6.313   6.961  0.2216 -0.2860  0.5008
 6460SOL    HW121918   0.303   6.302   6.913 -0.0749  2.0814 -0.6361
 6460SOL    HW221919   0.239   6.385   7.022 -0.5807 -0.6958  1.2260
 6461SOL     OW21920   4.646   2.023   0.559 -0.0063  0.2744 -0.3084
 6461SOL    HW121921   4.713   2.090   0.568  0.2494 -0.4257  4.1930
 6461SOL    HW221922   4.570   2.060   0.605 -0.5012 -1.7097  0.4808
 6462SOL     OW21923   8.715   1.884   6.729 -0.4324  0.4679  0.3154
 6462SOL    HW121924   8.755   1.892   6.816 -2.3697  2.1245  1.0982
 6462SOL    HW221925   8.666   1.802   6.732  0.6667 -0.1908  0.2943
 6463SOL     OW21926   5.227   5.539   6.499 -0.1215 -0.2048  0.0200
 6463SOL    HW121927   5.282   5.540   6.577  1.4173  0.8379 -1.0227
 6463SOL    HW221928   5.278   5.489   6.435 -1.4554 -1.2391 -0.2462
 6464SOL     OW21929   1.554   8.597   0.319  0.1317  0.2847  0.0563
 6464SOL    HW121930   1.623   8.533   0.304  0.9298  1.1668 -0.0698
 6464SOL    HW221931   1.561   8.619   0.412 -1.3367 -1.1694  0.5375
 6465SOL     OW21932   8.841   2.424   7.191 -0.2118 -0.2662  0.9290
 6465SOL    HW121933   8.846   2.352   7.128 -0.1418  1.1976 -0.7971
 6465SOL    HW221934   8.922   2.473   7.178 -0.6440  0.6070  1.4758
 6466SOL     OW21935   2.147   2.474   5.714 -0.6283 -0.5165 -0.6440
 6466SOL    HW121936   2.133   2.569   5.720  0.0523 -0.5015  1.3378
 6466SOL    HW221937   2.174   2.459   5.624  4.2987  1.9174  0.2471
 6467SOL     OW21938   9.112   8.880   2.755  0.3529  0.7366  0.2497
 6467SOL    HW121939   9.145   8.865   2.667  0.9881  0.9316  0.4464
 6467SOL    HW221940   9.157   8.815   2.809 -0.6694  0.0595  0.2991
 6468SOL     OW21941   6.577   1.345   1.485 -0.3914 -0.2774  0.2516
 6468SOL    HW121942   6.489   1.313   1.464  0.4271 -1.4134 -1.5769
 6468SOL    HW221943   6.581   1.433   1.449 -0.7045 -0.3185  0.1199
 6469SOL     OW21944   9.037   0.042   8.562  0.0621  0.0764 -0.7314
 6469SOL    HW121945   8.999  -0.043   8.541 -0.4036  0.1639 -0.2560
 6469SOL    HW221946   9.027   0.050   8.657  2.0872 -0.2975 -0.4766
 6470SOL     OW21947   2.523   8.672   7.050  0.2558  0.4723  0.1630
 6470SOL    HW121948   2.614   8.693   7.027  0.3410 -1.5188 -1.4188
 6470SOL    HW221949   2.493   8.748   7.100  2.2540  1.9027 -0.7509
 6471SOL     OW21950   2.058   7.872   2.947 -0.3000  0.5008 -0.2821
 6471SOL    HW121951   2.005   7.941   2.986 -0.4217 -0.2663  0.9390
 6471SOL    HW221952   2.029   7.792   2.991  0.4573 -0.1968 -1.0466
 6472SOL     OW21953   4.375   9.188   0.995 -0.1463  0.4308 -0.0943
 6472SOL    HW121954   4.307   9.150   0.939 -1.3975  0.5571  1.3171
 6472SOL    HW221955   4.327   9.221   1.071  1.3391  1.7261  0.3006
 6473SOL     OW21956   7.409   4.631   8.844  0.1457  0.7263  0.1425
 6473SOL    HW121957   7.336   4.613   8.903  1.0919  3.1716  2.1397
 6473SOL    HW221958   7.470   4.558   8.858 -2.2031 -1.7960 -2.1735
 6474SOL     OW21959   0.608   2.632  10.134 -0.3382  0.0486 -0.0322
 6474SOL    HW121960   0.613   2.590  10.220  0.4055 -0.1461 -0.1661
 6474SOL    HW221961   0.622   2.725  10.152  0.1406 -0.0315  0.0272
 6475SOL     OW21962   3.880   9.212   3.753  0.0848 -0.4269 -0.0070
 6475SOL    HW121963   3.896   9.189   3.844  0.9025 -0.8128 -0.2479
 6475SOL    HW221964   3.967   9.219   3.713 -0.2815 -1.0022 -0.9362
 6476SOL     OW21965   1.076   8.763   8.308 -0.5605  0.1727  0.8758
 6476SOL    HW121966   1.145   8.701   8.330 -2.1061 -1.3520  1.4732
 6476SOL    HW221967   1.086   8.833   8.372  0.3685 -0.0700  1.0083
 6477SOL     OW21968   3.159   1.368   2.169 -0.4638  0.2822 -0.0552
 6477SOL    HW121969   3.127   1.279   2.155  0.1242  0.1854 -0.7909
 6477SOL    HW221970   3.214   1.361   2.248 -0.8629  0.1030  0.2062
 6478SOL     OW21971   8.299   8.824   1.058 -0.2594  0.1894 -0.1798
 6478SOL    HW121972   8.388   8.855   1.075 -0.4534  1.1030 -0.7733
 6478SOL    HW221973   8.294   8.739   1.102  2.1430 -1.6862 -3.2842
 6479SOL     OW21974   9.589   1.820   5.845  0.0076 -0.4494  0.3188
 6479SOL    HW121975   9.525   1.820   5.773  0.6656 -0.4384 -0.2747
 6479SOL    HW221976   9.591   1.729   5.874 -0.2637 -0.4555  0.3269
 6480SOL     OW21977   0.139   1.961   9.487  0.0465 -0.7502  0.1412
 6480SOL    HW121978   0.061   1.912   9.459 -0.4144 -1.0420  1.8505
 6480SOL    HW221979   0.204   1.894   9.505  0.7146 -0.5016 -1.3184
 6481SOL     OW21980   6.574   0.594   8.876  0.5212 -0.2732 -0.0555
 6481SOL    HW121981   6.501   0.534   8.871  1.3830 -1.2061 -1.8399
 6481SOL    HW221982   6.642   0.546   8.922  0.2915  0.3122  0.9093
 6482SOL     OW21983   6.090   2.181   6.559  0.1258  0.1027 -0.3136
 6482SOL    HW121984   6.006   2.173   6.514  0.1018  0.3492 -0.3133
 6482SOL    HW221985   6.066   2.211   6.648  0.2363  0.5014 -0.4158
 6483SOL     OW21986   5.479   5.939   6.218 -0.0334 -0.3519 -0.4074
 6483SOL    HW121987   5.417   5.877   6.178 -0.5819  0.1161 -0.2869
 6483SOL    HW221988   5.486   5.909   6.309 -1.3949  0.5954  0.0291
 6484SOL     OW21989   4.028   5.826   7.971  0.3568  0.4287  0.0471
 6484SOL    HW121990   4.005   5.758   7.909 -0.9116  0.8289  0.0578
 6484SOL    HW221991   4.124   5.830   7.969  0.4349 -1.2166 -0.0748
 6485SOL     OW21992   1.692   7.083   7.696  0.3382 -0.2422  0.0356
 6485SOL    HW121993   1.758   7.052   7.757  0.7296  1.0363  0.2827
 6485SOL    HW221994   1.619   7.110   7.751  1.1038  1.9119  0.0390
 6486SOL     OW21995   4.336   9.260   8.161  0.1989  0.7077 -0.0885
 6486SOL    HW121996   4.291   9.343   8.178  0.9006  1.4974 -1.9068
 6486SOL    HW221997   4.417   9.266   8.212 -0.1367  0.7844  0.4374
 6487SOL     OW21998   7.806   0.369   6.866  0.2779  0.4033  0.4140
 6487SOL    HW121999   7.861   0.337   6.795  0.5317  0.2062  0.6973
 6487SOL    HW222000   7.739   0.301   6.878  0.9676 -0.1497  1.1857
 6488SOL     OW22001   8.905   1.485   7.666 -0.0432 -0.1184 -0.0863
 6488SOL    HW122002   8.867   1.398   7.667  0.4574 -0.3732 -1.4742
 6488SOL    HW222003   8.846   1.537   7.612 -1.8833  1.1685  3.0579
 6489SOL     OW22004   7.768   3.349   8.243  0.2126  0.0003 -0.4541
 6489SOL    HW122005   7.689   3.389   8.278 -0.0142 -1.0874  0.2740
 6489SOL    HW222006   7.755   3.255   8.254  0.6068 -0.3112 -2.4486
 6490SOL     OW22007   3.509   6.693   5.545 -0.2479 -0.0635  0.1943
 6490SOL    HW122008   3.464   6.656   5.621 -1.5477 -0.5495 -0.7856
 6490SOL    HW222009   3.564   6.762   5.581 -2.4030  1.1123  1.3341
 6491SOL     OW22010   8.694   8.982   1.842 -0.7873 -0.1724 -0.2150
 6491SOL    HW122011   8.685   8.915   1.774  0.2501 -0.4853 -0.0499
 6491SOL    HW222012   8.767   9.036   1.813  0.6090 -1.1574  1.3375
 6492SOL     OW22013   4.520   9.145   6.187  0.2890  0.2123 -0.3603
 6492SOL    HW122014   4.531   9.207   6.259  0.0092 -0.5281  0.3356
 6492SOL    HW222015   4.516   9.059   6.230  1.6368 -0.3771 -1.3766
 6493SOL     OW22016   6.901   5.561   7.941  0.7579 -0.2299 -0.0044
 6493SOL    HW122017   6.967   5.571   7.872  0.2665 -0.6162 -0.5274
 6493SOL    HW222018   6.882   5.651   7.969 -1.7244  0.2166 -2.8836
 6494SOL     OW22019   0.657   5.023   9.546  0.3078  0.5575  0.3663
 6494SOL    HW122020   0.562   5.035   9.545  0.2305 -0.0567  0.8024
 6494SOL    HW222021   0.671   4.930   9.530  0.8754  0.8285 -0.8353
 6495SOL     OW22022   2.003   7.370   0.166 -0.0148  0.1362 -0.1384
 6495SOL    HW122023   2.087   7.341   0.131  0.1635  1.6621 -0.9709
 6495SOL    HW222024   1.940   7.308   0.131  0.4379  0.4281 -1.4698
 6496SOL     OW22025   0.142   1.285   6.921  0.1101  0.5431 -0.0248
 6496SOL    HW122026   0.147   1.352   6.989  1.7935 -0.0570  0.4664
 6496SOL    HW222027   0.085   1.217   6.957 -0.4783  1.0762  0.0409
 6497SOL     OW22028   6.819   5.248   3.608  0.5992 -0.4128  0.2961
 6497SOL    HW122029   6.830   5.342   3.625  0.5401 -0.3148 -0.1918
 6497SOL    HW222030   6.868   5.233   3.528 -0.2168 -0.5937 -0.1790
 6498SOL     OW22031   1.150   3.442   4.908  0.0471 -0.2630 -0.0807
 6498SOL    HW122032   1.104   3.522   4.935 -0.9273 -0.2107 -1.8438
 6498SOL    HW222033   1.149   3.386   4.986  0.8013  1.4545  1.1885
 6499SOL     OW22034   0.326   5.661   0.736 -0.7453  0.4370  0.1450
 6499SOL    HW122035   0.316   5.695   0.825 -2.4823  1.6914 -0.4946
 6499SOL    HW222036   0.400   5.711   0.700  0.7496 -0.9292  1.2501
 6500SOL     OW22037  10.193   5.309   1.027  0.0869 -0.4598 -0.1432
 6500SOL    HW122038  10.129   5.243   1.003  2.0649 -1.9352 -1.5389
 6500SOL    HW222039  10.215   5.353   0.945  1.7262 -0.7954  0.0889
 6501SOL     OW22040   3.147   8.502   9.277  0.3512 -0.2841 -0.2882
 6501SOL    HW122041   3.139   8.482   9.184 -0.0061  2.3272 -0.8683
 6501SOL    HW222042   3.241   8.496   9.295  0.3470 -1.4565 -0.6485
 6502SOL     OW22043   7.253   1.403   9.698 -0.5712 -0.0437 -0.3570
 6502SOL    HW122044   7.309   1.479   9.708 -0.9297 -0.0689  2.2212
 6502SOL    HW222045   7.271   1.371   9.610  0.8074  2.0264 -0.8579
 6503SOL     OW22046   9.769   2.844   6.889 -0.1870 -0.1654 -0.2715
 6503SOL    HW122047   9.809   2.888   6.964 -1.0347  0.6405 -0.2825
 6503SOL    HW222048   9.840   2.794   6.850  0.6617  0.7610  0.0685
 6504SOL     OW22049   6.913   5.689   6.556 -0.0280  0.1394  0.2498
 6504SOL    HW122050   6.983   5.753   6.570 -0.4100  0.3282  1.3316
 6504SOL    HW222051   6.851   5.733   6.498  0.9580 -0.1912 -1.0774
 6505SOL     OW22052   7.492   8.167   9.846  0.0711  0.8017 -0.7925
 6505SOL    HW122053   7.530   8.214   9.920 -1.9304  1.8134 -0.3783
 6505SOL    HW222054   7.422   8.224   9.815 -1.4443 -1.2286 -1.2007
 6506SOL     OW22055   3.781   9.725   7.225 -0.1776  0.3555 -0.0083
 6506SOL    HW122056   3.749   9.813   7.204 -0.8186 -0.1470 -1.1629
 6506SOL    HW222057   3.876   9.733   7.225 -0.2001  0.6975 -1.6778
 6507SOL     OW22058   5.349   5.583   5.664 -0.3236  0.5888 -0.3129
 6507SOL    HW122059   5.405   5.594   5.587  0.3562  2.3213  0.4108
 6507SOL    HW222060   5.277   5.644   5.651  0.4742  1.8514  1.0132
 6508SOL     OW22061   6.687   1.472   3.091  0.7006  0.2277  0.5326
 6508SOL    HW122062   6.664   1.558   3.126  0.0606 -0.2688  1.3449
 6508SOL    HW222063   6.635   1.411   3.142 -1.5333 -0.4398 -2.3573
 6509SOL     OW22064   4.993   9.702   5.620  0.1018  0.5010 -0.3566
 6509SOL    HW122065   4.971   9.790   5.590 -0.8736  0.7632  1.1049
 6509SOL    HW222066   5.083   9.710   5.653  0.1539  0.8587 -0.5866
 6510SOL     OW22067   3.468   1.353   9.051  0.5547 -0.1786 -0.0081
 6510SOL    HW122068   3.554   1.352   9.009  0.8077  0.3613  0.5020
 6510SOL    HW222069   3.406   1.349   8.978  0.9651  2.2596 -0.5310
 6511SOL     OW22070   9.380   1.104   8.570 -0.1742 -0.2688 -0.4273
 6511SOL    HW122071   9.375   1.069   8.659  1.3965 -0.2681 -0.3289
 6511SOL    HW222072   9.460   1.066   8.533 -1.0497 -0.6492 -2.0145
 6512SOL     OW22073   6.935   9.287   5.819 -0.0957  0.0263 -0.0024
 6512SOL    HW122074   6.978   9.258   5.739  0.2018 -1.4658  0.6769
 6512SOL    HW222075   6.922   9.381   5.807  0.3300 -0.1083 -1.6116
 6513SOL     OW22076   9.195   9.302  10.114  0.0109  1.1301 -0.6107
 6513SOL    HW122077   9.198   9.386  10.162  0.2685  0.4931  0.5164
 6513SOL    HW222078   9.286   9.276  10.106 -0.1737 -0.1087  0.9935
 6514SOL     OW22079   9.384   9.517   8.691 -0.0166  0.8088  0.1070
 6514SOL    HW122080   9.303   9.565   8.708 -0.4533  1.0486 -2.4353
 6514SOL    HW222081   9.363   9.459   8.618  1.3563 -1.1410  1.1872
 6515SOL     OW22082   7.363   9.392   1.953  0.4850  0.3698  0.5592
 6515SOL    HW122083   7.350   9.300   1.931  0.5611  0.1834  1.2793
 6515SOL    HW222084   7.278   9.433   1.937 -0.1585 -0.2390  2.2365
 6516SOL     OW22085   6.564   6.475   3.141 -0.0030  0.1099  0.0139
 6516SOL    HW122086   6.509   6.397   3.155  0.4666 -0.2604 -0.1906
 6516SOL    HW222087   6.577   6.511   3.228 -0.3094  0.0141  0.0996
 6517SOL     OW22088   9.431   8.845   7.110  0.6179 -0.9417 -0.5752
 6517SOL    HW122089   9.425   8.762   7.062 -1.1498 -0.9057 -0.4443
 6517SOL    HW222090   9.451   8.819   7.200 -3.4398 -1.5070  0.2555
 6518SOL     OW22091   4.631   3.080   1.031 -0.4473 -0.3859  0.3262
 6518SOL    HW122092   4.539   3.058   1.022 -0.5004 -0.0065 -0.0787
 6518SOL    HW222093   4.631   3.171   1.062 -0.1994  0.4926 -2.1005
 6519SOL     OW22094   9.689   9.769   1.602  0.5337  0.8783 -0.5414
 6519SOL    HW122095   9.685   9.781   1.507  1.8830 -0.0518 -0.7402
 6519SOL    HW222096   9.766   9.714   1.616  0.4092  1.0827  1.1087
 6520SOL     OW22097   0.044   5.641   8.452  0.4091  0.2133 -0.6435
 6520SOL    HW122098   0.066   5.583   8.379  0.8766 -1.0846  0.4952
 6520SOL    HW222099  -0.051   5.651   8.447  0.2002 -1.4399 -0.3098
 6521SOL     OW22100   1.712   3.447   6.891  0.2415  0.6663 -0.1754
 6521SOL    HW122101   1.664   3.513   6.940 -0.0696  0.1446  0.2194
 6521SOL    HW222102   1.647   3.408   6.833  0.2736  0.2135  0.0977
 6522SOL     OW22103   8.756   8.445   7.764  0.6312 -0.0468  0.5158
 6522SOL    HW122104   8.689   8.512   7.750 -0.8009 -1.7407 -0.9767
 6522SOL    HW222105   8.818   8.486   7.825 -1.4639  1.7546  1.5268
 6523SOL     OW22106   0.858   6.534   3.580  0.2953  0.2659  0.0546
 6523SOL    HW122107   0.764   6.524   3.592  0.3269  0.2320  0.2792
 6523SOL    HW222108   0.881   6.469   3.513  0.2929 -0.3010  0.5954
 6524SOL     OW22109   5.753   7.579   4.567  0.8172  0.2674 -0.1807
 6524SOL    HW122110   5.794   7.664   4.585 -0.1887  0.8706 -0.6633
 6524SOL    HW222111   5.805   7.516   4.617  0.2848  1.4242  1.8697
 6525SOL     OW22112   0.804   7.307   2.875 -0.7586  0.1014 -0.0818
 6525SOL    HW122113   0.878   7.291   2.933 -1.1475 -0.6899  0.2075
 6525SOL    HW222114   0.766   7.388   2.906  0.6947  1.1626 -0.9772
 6526SOL     OW22115   1.845   3.083   0.187 -1.0995 -0.0539 -0.4393
 6526SOL    HW122116   1.825   3.131   0.268 -0.8209 -1.5143  0.5026
 6526SOL    HW222117   1.924   3.034   0.206 -1.6593 -1.2939 -1.2174
 6527SOL     OW22118   3.299   9.553   3.142 -0.2473 -0.2819  0.5032
 6527SOL    HW122119   3.215   9.551   3.096 -0.2215  0.4183  0.4283
 6527SOL    HW222120   3.293   9.481   3.205 -0.9678 -0.1184  0.6221
 6528SOL     OW22121   4.410   6.296   0.391 -0.4011  0.0574  0.0213
 6528SOL    HW122122   4.357   6.225   0.428  0.7068 -1.0390 -0.4755
 6528SOL    HW222123   4.350   6.371   0.388 -1.4350 -0.7044  1.0340
 6529SOL     OW22124   8.958   3.171   5.667 -0.4155 -0.5019  0.3467
 6529SOL    HW122125   9.048   3.155   5.640  0.1816 -0.0379  2.0010
 6529SOL    HW222126   8.905   3.138   5.594  1.1061  0.3988 -1.2100
 6530SOL     OW22127   3.898   2.236   3.782 -0.1403 -0.0756  0.2156
 6530SOL    HW122128   3.951   2.276   3.851 -1.2890  1.5444  0.1960
 6530SOL    HW222129   3.927   2.279   3.702 -2.4825  1.9481  0.3890
 6531SOL     OW22130   1.616   5.489   1.915  0.4733  0.0316  0.6897
 6531SOL    HW122131   1.533   5.518   1.877  0.4852  0.2769  0.8532
 6531SOL    HW222132   1.596   5.474   2.007  0.7953  0.8044  0.8806
 6532SOL     OW22133   7.681   7.882   3.059  0.0738 -0.3358 -0.3082
 6532SOL    HW122134   7.593   7.912   3.083 -0.5108 -1.4425 -1.0259
 6532SOL    HW222135   7.721   7.855   3.142 -0.2859  0.0728  0.0052
 6533SOL     OW22136   1.849   4.996   0.789 -0.1227  0.2073  0.0701
 6533SOL    HW122137   1.875   5.024   0.877  1.1678 -1.5671  0.2871
 6533SOL    HW222138   1.906   4.922   0.770 -0.2332  0.7161 -2.3784
 6534SOL     OW22139   6.597   3.268   1.998  0.3722 -0.1389  0.5609
 6534SOL    HW122140   6.602   3.239   1.907  1.9977 -0.0132  0.6015
 6534SOL    HW222141   6.581   3.188   2.048  1.3255 -0.4718  0.3378
 6535SOL     OW22142  10.202   6.854   9.925  0.1487 -0.0019  0.2257
 6535SOL    HW122143  10.190   6.784   9.861 -0.8051  0.9565 -0.6641
 6535SOL    HW222144  10.131   6.841   9.989  0.9767 -0.8344  0.9812
 6536SOL     OW22145   4.809   6.232   8.483  0.5862  0.5544  0.6837
 6536SOL    HW122146   4.883   6.287   8.456 -0.8270  1.1212 -2.1265
 6536SOL    HW222147   4.817   6.153   8.429  0.1212 -0.1631  1.6365
 6537SOL     OW22148   6.184   6.531   9.407  0.2408 -0.2738 -0.5035
 6537SOL    HW122149   6.203   6.542   9.313  1.9340 -1.0161 -0.2620
 6537SOL    HW222150   6.256   6.574   9.451  0.4741 -1.6191  0.4556
 6538SOL     OW22151   9.742   6.092   7.037 -0.5014 -0.1906 -0.2669
 6538SOL    HW122152   9.749   6.000   7.061 -3.5446 -0.2955  0.4778
 6538SOL    HW222153   9.702   6.134   7.113  1.2565  1.8375 -0.4299
 6539SOL     OW22154   0.838   1.876   9.180  0.0050  0.4330 -0.6708
 6539SOL    HW122155   0.920   1.862   9.227 -0.0194  2.9397  0.2242
 6539SOL    HW222156   0.864   1.893   9.090  0.3771 -0.0254 -0.6477
 6540SOL     OW22157   4.670   6.311   3.822  0.0899 -0.4260 -0.2157
 6540SOL    HW122158   4.692   6.400   3.851  0.1110 -0.6590  0.4874
 6540SOL    HW222159   4.630   6.324   3.735 -2.0620  0.5037  0.8638
 6541SOL     OW22160   0.277   0.171   1.542  0.4230  0.0344  0.7800
 6541SOL    HW122161   0.369   0.156   1.566  0.2902 -0.6082  0.9078
 6541SOL    HW222162   0.249   0.088   1.503  0.7746  1.1811 -2.0622
 6542SOL     OW22163   6.905   5.309   3.999 -0.3322  0.3474  0.3259
 6542SOL    HW122164   6.991   5.271   4.018 -0.8836 -0.7538  0.6656
 6542SOL    HW222165   6.924   5.399   3.971  0.9034  0.2137  0.7066
 6543SOL     OW22166   8.404   3.397   2.383 -0.6382  0.1852 -0.1105
 6543SOL    HW122167   8.324   3.420   2.336 -0.3563  0.5923 -0.4004
 6543SOL    HW222168   8.386   3.417   2.474 -0.8745  0.2537 -0.1733
 6544SOL     OW22169   9.465   4.517   3.796  0.3531  0.3898  0.6959
 6544SOL    HW122170   9.519   4.587   3.833  1.9296 -1.0877  1.2462
 6544SOL    HW222171   9.387   4.515   3.852 -0.5132  2.8113 -0.3493
 6545SOL     OW22172   9.967   3.531   2.239  0.3960  0.4846 -0.1065
 6545SOL    HW122173   9.951   3.437   2.227  2.1052 -0.0088  1.2359
 6545SOL    HW222174   9.902   3.558   2.303  0.7717 -0.0971  0.5313
 6546SOL     OW22175   5.671   5.056   4.028 -0.0598 -0.1576 -0.3077
 6546SOL    HW122176   5.677   5.148   4.002 -0.6517  0.1146  0.5153
 6546SOL    HW222177   5.680   5.056   4.123  1.3487 -1.0878 -0.4262
 6547SOL     OW22178   7.984   5.919   5.571 -0.9690 -0.1544  0.0713
 6547SOL    HW122179   7.983   5.885   5.660  0.3418  1.1416  0.5914
 6547SOL    HW222180   8.073   5.951   5.558 -0.9819 -0.8161 -1.8997
 6548SOL     OW22181   7.787   2.595  10.033 -0.2171  0.7990  0.3261
 6548SOL    HW122182   7.791   2.675   9.980 -0.4083  1.1287  0.8099
 6548SOL    HW222183   7.762   2.625  10.120  0.8238  0.3222  0.7830
 6549SOL     OW22184   4.892   8.729   1.337 -0.5804 -0.1188 -0.0685
 6549SOL    HW122185   4.959   8.732   1.406 -1.3481  1.0897  0.6465
 6549SOL    HW222186   4.939   8.752   1.257 -0.3071  1.6299  0.5808
 6550SOL     OW22187   0.761   2.159   2.169 -0.2013 -0.1480  0.3029
 6550SOL    HW122188   0.751   2.107   2.249 -0.0068  1.8163  1.6293
 6550SOL    HW222189   0.824   2.227   2.191 -0.4961  0.7165 -1.3841
 6551SOL     OW22190   6.901   0.660   6.127 -0.1182  0.1233 -0.0142
 6551SOL    HW122191   6.971   0.708   6.084 -0.0809  0.1366  0.0608
 6551SOL    HW222192   6.867   0.721   6.194 -1.7137  0.9671 -1.5452
 6552SOL     OW22193   3.599   1.809   4.810  0.3100  0.2954  0.1455
 6552SOL    HW122194   3.635   1.792   4.896 -0.2362  0.3249  0.3860
 6552SOL    HW222195   3.620   1.730   4.759  1.0618  0.4865  0.1549
 6553SOL     OW22196   1.483   3.474   5.494 -0.2203 -0.0392  0.5971
 6553SOL    HW122197   1.483   3.384   5.526 -0.5442 -1.2203 -2.5702
 6553SOL    HW222198   1.575   3.500   5.492 -0.0100 -0.8506 -0.0091
 6554SOL     OW22199   1.965   0.764   8.623 -0.6105  0.0192  0.4215
 6554SOL    HW122200   2.058   0.788   8.626 -0.0943 -1.7835 -0.0422
 6554SOL    HW222201   1.929   0.815   8.551  0.3073 -0.1246 -0.1563
 6555SOL     OW22202   3.579   9.836   4.474 -0.0754 -0.3375 -0.2651
 6555SOL    HW122203   3.668   9.869   4.486  0.1836 -0.6599 -1.2508
 6555SOL    HW222204   3.527   9.883   4.539  1.1828 -1.6765  1.7686
 6556SOL     OW22205   4.662   9.091   0.111  0.7098 -0.6422  0.2031
 6556SOL    HW122206   4.654   9.054   0.023  0.3255 -0.4640  0.1635
 6556SOL    HW222207   4.576   9.078   0.151  1.6504 -3.2098  1.5392
 6557SOL     OW22208   7.239   9.762   2.138  0.0670  0.2691  0.5768
 6557SOL    HW122209   7.237   9.828   2.069 -0.1454  0.9860  1.2553
 6557SOL    HW222210   7.155   9.717   2.131  0.4334 -0.2972 -0.2316
 6558SOL     OW22211   0.291   4.582   2.732  0.8070  0.5309 -0.1027
 6558SOL    HW122212   0.286   4.590   2.827 -2.0914 -0.2237 -0.1450
 6558SOL    HW222213   0.326   4.494   2.717  0.4639  0.3266  0.2765
 6559SOL     OW22214   8.712   1.548   6.022  0.2573  0.0095  0.2816
 6559SOL    HW122215   8.761   1.514   5.947  0.1029  2.3315 -0.9093
 6559SOL    HW222216   8.780   1.573   6.085  0.4999  0.4071 -0.1325
 6560SOL     OW22217   2.620   8.911   2.301  0.3596 -0.7432 -0.3321
 6560SOL    HW122218   2.586   9.000   2.299  0.9806 -0.5057 -0.3121
 6560SOL    HW222219   2.679   8.909   2.376  0.0841 -1.2667 -0.1259
 6561SOL     OW22220   3.577   7.286   8.518  0.0093  0.3344 -0.0090
 6561SOL    HW122221   3.641   7.333   8.465  0.7445  0.1414  0.7076
 6561SOL    HW222222   3.572   7.336   8.599  0.6236 -0.6910  0.6662
 6562SOL     OW22223   6.961   0.408   0.039 -0.0143  0.0038  0.1222
 6562SOL    HW122224   6.953   0.337  -0.024 -0.7002 -1.1204  1.4424
 6562SOL    HW222225   6.971   0.487  -0.015 -0.9050 -0.8872 -1.3847
 6563SOL     OW22226   8.612   4.265   5.885 -0.2669  0.5362 -0.1879
 6563SOL    HW122227   8.537   4.206   5.888  1.0191 -1.1840 -1.1204
 6563SOL    HW222228   8.615   4.305   5.972 -1.3907 -0.4837  0.3206
 6564SOL     OW22229   1.175   6.512   5.982  0.4787 -0.0876 -0.0442
 6564SOL    HW122230   1.250   6.468   6.022 -0.2148 -1.7913 -0.5585
 6564SOL    HW222231   1.160   6.589   6.037  1.1178 -1.0077  1.4529
 6565SOL     OW22232   0.218   2.084   4.830 -0.1404  0.3716 -0.7141
 6565SOL    HW122233   0.188   2.081   4.921 -0.2136 -0.7493 -0.7723
 6565SOL    HW222234   0.166   2.154   4.790 -1.0101  0.0131 -0.2127
 6566SOL     OW22235   1.980   4.474   6.527 -0.3059  0.4353 -0.1134
 6566SOL    HW122236   1.998   4.507   6.615 -0.1555  0.8063 -0.2815
 6566SOL    HW222237   2.054   4.506   6.474 -0.3215  0.0907 -0.3412
 6567SOL     OW22238   1.759   6.358   7.224 -0.0205  0.0392  0.2015
 6567SOL    HW122239   1.782   6.298   7.295  0.6896  2.6173  2.2096
 6567SOL    HW222240   1.793   6.315   7.145  1.8086 -1.4858  1.7681
 6568SOL     OW22241   4.649   5.612   1.869  0.2706  0.5342 -0.2794
 6568SOL    HW122242   4.662   5.695   1.915  2.6106  0.9838 -1.6441
 6568SOL    HW222243   4.654   5.545   1.937  0.5307  1.3830  0.5392
 6569SOL     OW22244   4.399   9.716   0.114  0.0606  0.1538  0.1865
 6569SOL    HW122245   4.336   9.649   0.139  0.3421 -0.7277 -1.4246
 6569SOL    HW222246   4.455   9.674   0.049  2.1389  1.0142  1.3794
 6570SOL     OW22247   3.833   9.147   7.304  0.6843 -0.4779 -0.0879
 6570SOL    HW122248   3.920   9.134   7.342  0.5245 -3.3240 -0.5490
 6570SOL    HW222249   3.791   9.211   7.361  2.3703 -0.5822  1.3281
 6571SOL     OW22250   7.094   3.233   3.735  0.1301 -0.2828  0.2420
 6571SOL    HW122251   7.034   3.177   3.685 -2.2334  1.4317  1.0662
 6571SOL    HW222252   7.096   3.193   3.822 -1.4271  0.7791  0.7836
 6572SOL     OW22253   7.612   1.898   3.977 -0.2512 -0.4008  0.1829
 6572SOL    HW122254   7.633   1.936   4.061 -2.2411 -0.3890  0.7084
 6572SOL    HW222255   7.552   1.961   3.936  0.4857 -0.5243 -1.1451
 6573SOL     OW22256   9.079   7.314   5.868  0.1140  0.1657 -0.0418
 6573SOL    HW122257   9.027   7.235   5.853 -0.2093 -0.1579  2.5343
 6573SOL    HW222258   9.128   7.327   5.786 -1.4232 -1.4792 -1.2551
 6574SOL     OW22259   3.752   4.776   3.899  0.0496  0.1186  0.2411
 6574SOL    HW122260   3.658   4.795   3.893  0.0472 -0.0457 -0.2549
 6574SOL    HW222261   3.794   4.848   3.852  0.1296 -0.2380 -0.2364
 6575SOL     OW22262   3.952   3.167   4.618  0.2742 -0.2540 -0.1342
 6575SOL    HW122263   3.881   3.212   4.573  0.6086  0.8368  0.4247
 6575SOL    HW222264   3.937   3.185   4.711  0.3586 -1.3682  0.1051
 6576SOL     OW22265   8.908   4.650   2.608 -0.4670 -0.1379  0.2504
 6576SOL    HW122266   8.909   4.659   2.703  0.0515  0.0628  0.2273
 6576SOL    HW222267   8.900   4.555   2.593  1.6321 -0.3780  0.4998
 6577SOL     OW22268   3.455   8.937   8.096 -0.1397  0.9149  0.2374
 6577SOL    HW122269   3.470   8.876   8.024  0.6239  1.6467 -0.2364
 6577SOL    HW222270   3.381   8.990   8.068 -0.2007  0.8304  0.2360
 6578SOL     OW22271   0.330   5.833   4.587  0.4096  0.4337 -0.0505
 6578SOL    HW122272   0.327   5.830   4.683  1.7810  2.0091  0.0572
 6578SOL    HW222273   0.315   5.925   4.566  0.6515  0.1802 -1.3455
 6579SOL     OW22274   2.914   2.386   6.587  0.1831 -0.2025 -0.4030
 6579SOL    HW122275   2.854   2.426   6.651 -0.1613  2.3203 -2.2530
 6579SOL    HW222276   3.001   2.413   6.615  0.0342  0.8774 -0.9596
 6580SOL     OW22277   3.610   6.063   5.649 -0.4643  0.3568  0.5707
 6580SOL    HW122278   3.518   6.088   5.648  0.5033  4.1109 -0.1052
 6580SOL    HW222279   3.630   6.042   5.557  0.1129  2.6018  0.1657
 6581SOL     OW22280   0.136   4.198   0.901 -0.0964 -0.3804 -0.7136
 6581SOL    HW122281   0.076   4.266   0.929 -0.8173 -0.8926 -0.9760
 6581SOL    HW222282   0.080   4.132   0.859  0.4776 -1.5256  0.2795
 6582SOL     OW22283   6.009   9.300   2.948  0.2475  0.2959  0.7984
 6582SOL    HW122284   5.932   9.243   2.951  0.0705  0.6040  2.2589
 6582SOL    HW222285   6.018   9.323   2.855 -1.9470  0.9699  0.7325
 6583SOL     OW22286   3.427   3.513   1.154 -0.0518 -0.4480  0.7951
 6583SOL    HW122287   3.430   3.508   1.250 -1.0742 -1.8232  0.7836
 6583SOL    HW222288   3.448   3.424   1.125  0.9764  0.1385 -0.2818
 6584SOL     OW22289   1.627   8.357   6.391 -0.4444 -0.3331 -0.3906
 6584SOL    HW122290   1.696   8.300   6.426  0.1930  0.4185 -0.4202
 6584SOL    HW222291   1.561   8.296   6.356  1.6023 -1.0497 -3.1339
 6585SOL     OW22292   9.019   1.481   9.513 -0.4645  0.0320  0.2210
 6585SOL    HW122293   8.981   1.406   9.559  1.0552 -1.0483 -0.2274
 6585SOL    HW222294   9.095   1.444   9.466  0.0312  1.7619 -0.3709
 6586SOL     OW22295   7.194   2.407   4.089  0.0333 -0.4511  0.5641
 6586SOL    HW122296   7.250   2.477   4.122 -1.4232  0.5391  1.0072
 6586SOL    HW222297   7.230   2.385   4.003 -0.6512  2.2153 -0.4311
 6587SOL     OW22298   6.617   7.824   3.671  0.0170  0.1839  0.1705
 6587SOL    HW122299   6.599   7.867   3.588  0.0955  1.3307  0.7332
 6587SOL    HW222300   6.676   7.752   3.649  0.5646  0.8834 -0.6703
 6588SOL     OW22301   6.860   3.339   6.267  0.8246  0.0121 -0.0257
 6588SOL    HW122302   6.775   3.383   6.265  0.4312 -0.6056  1.7293
 6588SOL    HW222303   6.918   3.396   6.218 -0.7266  0.1666 -1.7594
 6589SOL     OW22304   0.654   2.961   2.041 -0.0663 -0.6023  0.2596
 6589SOL    HW122305   0.608   2.880   2.060  0.7834 -0.9960  0.6406
 6589SOL    HW222306   0.713   2.939   1.968  1.8453 -0.9391  1.8791
 6590SOL     OW22307   3.403   1.706   3.487  1.1390 -0.0049 -0.6772
 6590SOL    HW122308   3.496   1.687   3.498  1.0542  0.2037  0.4174
 6590SOL    HW222309   3.365   1.624   3.455  1.5277 -0.3880 -0.1674
 6591SOL     OW22310   6.886   7.817   2.920  0.3613 -0.5472 -0.5759
 6591SOL    HW122311   6.932   7.812   2.836 -0.3697 -0.5173 -0.9840
 6591SOL    HW222312   6.794   7.825   2.896  0.0665 -1.4239  0.2411
 6592SOL     OW22313   6.501   4.846   8.976 -0.1749  0.6380 -0.3625
 6592SOL    HW122314   6.563   4.778   9.004 -0.2385  0.4655 -0.6363
 6592SOL    HW222315   6.415   4.813   9.001 -0.2191  0.5491 -0.6265
 6593SOL     OW22316   2.714   5.679   2.075  0.0342  0.4399  0.3299
 6593SOL    HW122317   2.701   5.767   2.110  1.0658  1.1883 -1.1367
 6593SOL    HW222318   2.651   5.672   2.004 -0.3250 -0.1577  0.7048
 6594SOL     OW22319   9.834   7.899   0.729 -0.2562 -0.5275 -0.5857
 6594SOL    HW122320   9.870   7.878   0.642 -2.0325  1.5016 -1.8492
 6594SOL    HW222321   9.814   7.992   0.725 -2.7723 -0.9479  1.1465
 6595SOL     OW22322   9.378   4.055   5.697 -0.4460  0.0648 -0.1246
 6595SOL    HW122323   9.415   4.141   5.719 -0.3687 -0.2028  0.8400
 6595SOL    HW222324   9.302   4.047   5.756 -1.6335  0.3168 -1.5935
 6596SOL     OW22325   6.185   5.387   3.247 -0.3200 -0.5045 -0.4119
 6596SOL    HW122326   6.227   5.304   3.267  0.2973 -0.3261 -0.9634
 6596SOL    HW222327   6.255   5.452   3.249 -0.5809 -0.1785 -1.1743
 6597SOL     OW22328   9.142   9.416   4.109 -0.1268  0.4242  0.1232
 6597SOL    HW122329   9.202   9.404   4.183 -0.6026  0.2961  0.4885
 6597SOL    HW222330   9.183   9.485   4.057  0.9473 -0.4786 -0.2542
 6598SOL     OW22331   7.708   8.629   8.560 -0.0689  0.3509  0.5191
 6598SOL    HW122332   7.723   8.723   8.568 -1.4363  0.4824  1.7727
 6598SOL    HW222333   7.722   8.610   8.468  0.0093  1.8223  0.2189
 6599SOL     OW22334   5.107   8.010   5.861 -0.1728  0.4265 -0.4160
 6599SOL    HW122335   5.063   8.052   5.934  3.1632  0.3146  1.7600
 6599SOL    HW222336   5.083   7.917   5.869  1.3781  0.1623  1.4930
 6600SOL     OW22337   5.773   4.421   4.223 -0.3294  0.2289  0.4745
 6600SOL    HW122338   5.756   4.331   4.197  0.3668  0.2356 -0.0191
 6600SOL    HW222339   5.866   4.422   4.247  0.1495  1.2233 -1.3124
 6601SOL     OW22340   6.574   6.612   1.383  0.3668  0.4070 -0.0735
 6601SOL    HW122341   6.527   6.667   1.321 -0.2502 -0.4148 -0.3451
 6601SOL    HW222342   6.507   6.578   1.442  0.5607 -0.9973 -0.6422
 6602SOL     OW22343   2.368   5.550   2.168  0.0154 -0.5608  0.0351
 6602SOL    HW122344   2.364   5.629   2.222  1.7573  0.6803 -1.6211
 6602SOL    HW222345   2.297   5.561   2.105  0.1942 -0.3909 -0.1331
 6603SOL     OW22346   6.136   6.333   5.766  0.2408  0.1686  0.1323
 6603SOL    HW122347   6.068   6.334   5.833  0.8685  1.4409  0.7765
 6603SOL    HW222348   6.210   6.290   5.808  0.6340  0.9656  0.2802
 6604SOL     OW22349   0.024   9.738   6.998  0.1647 -0.1576  0.2044
 6604SOL    HW122350  -0.057   9.722   7.045  0.6039  0.7318  1.2779
 6604SOL    HW222351   0.092   9.740   7.066  0.4796  3.6741 -0.1047
 6605SOL     OW22352   9.547   5.541   6.631 -0.0328 -0.0934  0.6891
 6605SOL    HW122353   9.460   5.528   6.594 -0.2051 -0.3171  1.1590
 6605SOL    HW222354   9.530   5.561   6.723  0.4798 -1.6145  1.1195
 6606SOL     OW22355   0.719   1.585   3.568  0.0820 -0.6500  0.9861
 6606SOL    HW122356   0.682   1.498   3.553 -0.9298 -0.1730  0.6775
 6606SOL    HW222357   0.654   1.631   3.621 -0.5407  0.7591 -0.9460
 6607SOL     OW22358   7.065   4.657   5.032 -0.5610  0.1691 -0.2546
 6607SOL    HW122359   7.043   4.698   4.947  0.6589  0.9656 -0.2009
 6607SOL    HW222360   7.057   4.728   5.095 -1.6393 -0.4682  0.3412
 6608SOL     OW22361   2.987   2.872   1.301 -0.0735  0.1589  0.3331
 6608SOL    HW122362   3.037   2.795   1.329  0.4109  0.3498  0.0012
 6608SOL    HW222363   2.916   2.879   1.365 -0.8796 -1.3324 -0.3735
 6609SOL     OW22364   0.434   0.780   4.072 -0.0129 -0.0429  0.2466
 6609SOL    HW122365   0.429   0.791   3.977  1.0869  2.7186  0.4736
 6609SOL    HW222366   0.516   0.731   4.086 -1.1389 -2.1491 -0.3102
 6610SOL     OW22367   6.915   5.776   4.133  0.1996 -0.2351 -0.5728
 6610SOL    HW122368   6.867   5.717   4.191  1.7123 -1.9974 -1.0797
 6610SOL    HW222369   6.956   5.839   4.193  0.5971 -1.1946  0.1726
 6611SOL     OW22370   4.455   8.590   0.422  0.3545  0.1318 -0.4001
 6611SOL    HW122371   4.526   8.637   0.465 -0.8048  0.8182  0.7871
 6611SOL    HW222372   4.397   8.563   0.493  0.2482 -1.8624 -1.1842
 6612SOL     OW22373  10.122  10.102   4.982  0.1458  0.7327  0.0829
 6612SOL    HW122374  10.147  10.024   4.931  0.4038  0.0725  1.2138
 6612SOL    HW222375  10.028  10.090   4.998  0.4367  0.0244  1.3206
 6613SOL     OW22376   8.963   7.904   3.409  0.3695  0.6195  0.0855
 6613SOL    HW122377   9.035   7.896   3.347  1.1200  1.1494  0.8823
 6613SOL    HW222378   8.984   7.981   3.461 -0.0173 -0.0711  1.2977
 6614SOL     OW22379   9.435   4.568   4.866  0.2629 -0.2825  0.0554
 6614SOL    HW122380   9.413   4.532   4.952  0.1258 -4.3600 -1.5556
 6614SOL    HW222381   9.363   4.628   4.847  0.2998  0.7007  2.7524
 6615SOL     OW22382   5.913   8.334   5.259  0.3605  0.1184  0.1001
 6615SOL    HW122383   5.896   8.322   5.353  0.5217 -3.3188 -0.2707
 6615SOL    HW222384   5.838   8.386   5.228  0.0826  0.9176  2.0058
 6616SOL     OW22385   4.219   8.098   1.266  0.0857  0.0146  0.6369
 6616SOL    HW122386   4.136   8.050   1.271  0.0117  0.1562  0.7867
 6616SOL    HW222387   4.196   8.182   1.226  0.3548 -0.3855 -0.3794
 6617SOL     OW22388   3.961  10.111   4.161  0.2423  0.2849  0.4959
 6617SOL    HW122389   3.892  10.154   4.211 -1.1847 -0.8104 -0.5090
 6617SOL    HW222390   3.923  10.028   4.133  1.0276  0.7994 -2.2963
 6618SOL     OW22391   2.034   6.529   9.915  0.6682 -0.3564 -0.3827
 6618SOL    HW122392   2.055   6.589   9.844 -0.3915  0.1200 -0.2905
 6618SOL    HW222393   1.939   6.524   9.916  0.6982 -0.9297  0.5340
 6619SOL     OW22394   5.171   1.970   5.124  0.2419 -0.0943 -0.1513
 6619SOL    HW122395   5.240   2.024   5.161  0.7575  0.1035 -1.3710
 6619SOL    HW222396   5.179   1.982   5.029  0.1894 -2.0674 -0.4299
 6620SOL     OW22397   0.403   5.541   8.483 -0.2392  0.2818 -0.3828
 6620SOL    HW122398   0.418   5.520   8.391 -0.2084 -0.8803 -0.1196
 6620SOL    HW222399   0.324   5.595   8.483 -1.3498 -1.3263 -0.9241
 6621SOL     OW22400   3.227   2.219   4.854 -0.3892 -0.2548 -0.3951
 6621SOL    HW122401   3.169   2.262   4.791  1.0833 -1.5317 -2.7356
 6621SOL    HW222402   3.283   2.288   4.887 -2.0719  0.6755  0.5731
 6622SOL     OW22403   8.138   9.495   3.975 -0.1049  0.2585 -0.4530
 6622SOL    HW122404   8.137   9.559   4.046  3.0976 -0.6560  0.4987
 6622SOL    HW222405   8.146   9.547   3.895  0.5266  1.1084  0.1596
 6623SOL     OW22406   1.526   4.331   1.395 -0.3256 -0.7118 -0.2175
 6623SOL    HW122407   1.456   4.352   1.334  0.4516 -0.0971 -0.8995
 6623SOL    HW222408   1.572   4.257   1.355 -0.1038 -0.6114 -0.1487
 6624SOL     OW22409   5.970   4.064   2.168 -0.4731  0.0299  0.5679
 6624SOL    HW122410   6.050   4.114   2.153 -0.4214 -0.0636  0.5320
 6624SOL    HW222411   5.911   4.125   2.211 -0.2422 -0.0176  0.9590
 6625SOL     OW22412   1.853   0.370   2.551  0.7039 -0.5989 -0.0323
 6625SOL    HW122413   1.802   0.342   2.475  1.1784 -1.3320 -0.0882
 6625SOL    HW222414   1.944   0.354   2.527  0.9639  0.6706  0.0844
 6626SOL     OW22415   2.475   0.982   5.859 -0.1769 -0.7865 -0.1133
 6626SOL    HW122416   2.554   0.929   5.859 -0.3645 -1.0777 -0.9934
 6626SOL    HW222417   2.407   0.923   5.825 -0.4501 -0.0864 -0.8014
 6627SOL     OW22418   1.619   3.162   6.131  0.4278  0.8466  0.3164
 6627SOL    HW122419   1.603   3.216   6.208 -0.4135  1.2131 -0.1097
 6627SOL    HW222420   1.669   3.087   6.165 -2.2751 -0.3856  1.7237
 6628SOL     OW22421   9.223   1.098   4.231 -0.4188  0.9254 -0.0748
 6628SOL    HW122422   9.217   1.190   4.208  0.5175  1.0214  0.0551
 6628SOL    HW222423   9.294   1.064   4.177 -0.1578  0.4902  0.5388
 6629SOL     OW22424   2.023   4.081   7.935 -0.0800 -0.3858  0.4147
 6629SOL    HW122425   2.080   4.088   8.011  1.9182 -1.1979 -0.9680
 6629SOL    HW222426   2.059   4.143   7.872 -0.8856 -0.7182 -0.3826
 6630SOL     OW22427   6.839   5.330   2.871  0.2192  0.3425  0.0584
 6630SOL    HW122428   6.781   5.253   2.867 -0.1464  0.6268 -0.1585
 6630SOL    HW222429   6.926   5.293   2.883  0.0195 -0.1016  0.1807
 6631SOL     OW22430   8.699   6.297   7.935  0.1194 -0.2404  0.2002
 6631SOL    HW122431   8.717   6.330   7.847 -0.3382 -0.5358 -0.0071
 6631SOL    HW222432   8.618   6.341   7.961 -0.5864 -1.3170 -0.1460
 6632SOL     OW22433   0.389   0.823   3.329  0.4895 -0.3469 -0.6038
 6632SOL    HW122434   0.412   0.893   3.267  0.9482 -1.4763 -1.7443
 6632SOL    HW222435   0.295   0.833   3.343  0.6267  0.7644 -0.4081
 6633SOL     OW22436   9.722   7.963   5.176 -0.5800  0.3143  0.1920
 6633SOL    HW122437   9.816   7.968   5.195 -0.5240  0.6382 -0.1572
 6633SOL    HW222438   9.683   7.928   5.257  0.2005 -2.9046 -0.7420
 6634SOL     OW22439   1.393   0.411   1.905 -0.5803  0.0831  0.3468
 6634SOL    HW122440   1.432   0.449   1.827 -0.7577  0.2332  0.3301
 6634SOL    HW222441   1.316   0.364   1.873 -0.4974 -0.0880  0.3973
 6635SOL     OW22442   9.120   7.046   4.641  0.0753 -0.3518  0.7538
 6635SOL    HW122443   9.086   7.050   4.731  0.0595  0.9563  0.6891
 6635SOL    HW222444   9.205   7.089   4.646 -0.1013  0.0836  0.0582
 6636SOL     OW22445   3.824   3.162   1.192 -0.6707  0.5169  0.0238
 6636SOL    HW122446   3.794   3.123   1.110 -0.4443  1.3338 -0.4518
 6636SOL    HW222447   3.914   3.189   1.174  0.2693 -1.5811  1.3312
 6637SOL     OW22448   1.128   3.515   8.417 -0.3496  0.2640  0.3657
 6637SOL    HW122449   1.191   3.559   8.359  0.3004  0.3530  1.1333
 6637SOL    HW222450   1.090   3.446   8.362 -2.2716  2.4953 -1.2472
 6638SOL     OW22451   6.444   0.177  10.161  0.4698 -0.4782  0.2044
 6638SOL    HW122452   6.402   0.101  10.120 -0.4839 -1.0613  2.1936
 6638SOL    HW222453   6.477   0.145  10.245  2.3189  0.7061 -0.0319
 6639SOL     OW22454   0.627  10.183   6.087 -0.0807  0.5553  0.1199
 6639SOL    HW122455   0.657  10.245   6.019  0.7878 -0.9193 -0.8758
 6639SOL    HW222456   0.707  10.156   6.131 -0.5450  0.7381  1.0759
 6640SOL     OW22457   5.549   1.788   8.279 -0.0849 -0.2958 -0.8159
 6640SOL    HW122458   5.617   1.842   8.238 -1.7400  2.7932  0.2917
 6640SOL    HW222459   5.551   1.814   8.371 -1.4142 -1.6554 -0.3905
 6641SOL     OW22460   8.606   0.249   6.653  0.1126  0.3460 -0.2459
 6641SOL    HW122461   8.581   0.300   6.576 -0.4069  0.1410 -0.2152
 6641SOL    HW222462   8.618   0.314   6.722 -2.2055  0.3246  0.2428
 6642SOL     OW22463   7.849   6.145   6.032  0.5610  0.1264 -0.0848
 6642SOL    HW122464   7.934   6.149   5.988  0.3700 -1.2847 -0.6076
 6642SOL    HW222465   7.822   6.054   6.023 -2.0425  1.0253 -1.8916
 6643SOL     OW22466   6.431   7.505   5.426  0.0127 -0.0541 -0.3525
 6643SOL    HW122467   6.361   7.562   5.460 -1.5771 -1.4240 -1.2397
 6643SOL    HW222468   6.397   7.474   5.342  0.6790 -2.5946  0.2867
 6644SOL     OW22469   7.856   3.116   0.580 -0.1237 -0.7117 -0.1686
 6644SOL    HW122470   7.868   3.192   0.636 -1.1553 -1.8268  1.6333
 6644SOL    HW222471   7.943   3.079   0.570  0.2393  0.1609 -0.2586
 6645SOL     OW22472   0.001   4.899   1.065 -0.4737 -0.3837 -0.1764
 6645SOL    HW122473  -0.061   4.933   1.001 -2.3836  0.4922  2.0606
 6645SOL    HW222474   0.060   4.973   1.083 -0.4653 -0.3632 -0.2863
 6646SOL     OW22475   8.685   9.768   5.033 -0.1604  0.2239 -1.0015
 6646SOL    HW122476   8.767   9.747   5.079 -0.3456  0.0617 -0.7412
 6646SOL    HW222477   8.629   9.807   5.100 -0.3923  0.0882 -1.1171
 6647SOL     OW22478   2.067   3.818   7.851 -0.0367 -0.1293  0.1963
 6647SOL    HW122479   2.144   3.833   7.796  0.2527 -1.3022  0.2632
 6647SOL    HW222480   2.051   3.902   7.893  0.8822  0.2736 -0.2423
 6648SOL     OW22481   2.645   5.579   4.633  0.2858  0.0376 -0.1443
 6648SOL    HW122482   2.697   5.504   4.662 -0.2632 -0.2824  0.0184
 6648SOL    HW222483   2.709   5.639   4.594  0.6286 -0.8704 -1.0135
 6649SOL     OW22484   0.621  10.111   3.083  0.0168  0.2294 -0.5864
 6649SOL    HW122485   0.545  10.162   3.055  0.2638  0.2799 -1.1943
 6649SOL    HW222486   0.651  10.154   3.163 -0.9493 -0.1561 -0.0117
 6650SOL     OW22487   1.513   3.282   6.777 -0.1537 -0.3986  0.4973
 6650SOL    HW122488   1.465   3.288   6.694 -0.0460  0.6789  0.5112
 6650SOL    HW222489   1.450   3.245   6.838 -0.2110 -1.2781 -0.0856
 6651SOL     OW22490   9.279   7.881   1.742 -0.1321 -1.0292  0.3372
 6651SOL    HW122491   9.225   7.927   1.677  0.6922 -1.7044 -0.8251
 6651SOL    HW222492   9.369   7.905   1.720  0.1717 -1.5171  1.0468
 6652SOL     OW22493   9.260   9.731   5.875 -0.4055  0.0570  0.0220
 6652SOL    HW122494   9.179   9.707   5.919  0.6447  1.1451  2.6736
 6652SOL    HW222495   9.261   9.827   5.876  1.4871  0.0567  1.2108
 6653SOL     OW22496   7.416   2.018   8.241  0.5739  0.0017 -0.2958
 6653SOL    HW122497   7.406   2.043   8.333 -1.6174  1.5365 -0.9218
 6653SOL    HW222498   7.411   1.922   8.242 -1.5435  0.0948  0.9726
 6654SOL     OW22499   8.281   4.627   0.153 -0.0196  0.6222 -0.4473
 6654SOL    HW122500   8.321   4.709   0.181  2.6575 -0.8651  0.2972
 6654SOL    HW222501   8.257   4.582   0.234  2.2368 -1.0617 -0.6688
 6655SOL     OW22502   0.966   7.582   2.442  0.0407  0.1416 -0.4549
 6655SOL    HW122503   1.027   7.649   2.412  2.2332 -0.6612  1.9892
 6655SOL    HW222504   1.003   7.500   2.411 -0.3036 -0.2845  0.2357
 6656SOL     OW22505   8.996   4.458   4.474  0.7415 -0.0276  0.4683
 6656SOL    HW122506   9.063   4.500   4.420  1.7971 -0.3937  1.4741
 6656SOL    HW222507   9.009   4.495   4.561 -1.3734  1.0590  0.3642
 6657SOL     OW22508   5.659   1.148   6.894 -0.8890 -0.2755  0.6599
 6657SOL    HW122509   5.589   1.157   6.830 -0.2533  1.5896  0.2011
 6657SOL    HW222510   5.723   1.215   6.870 -0.2228 -0.1331  2.6847
 6658SOL     OW22511   8.389   5.483   7.958  0.2083 -0.4749  0.2281
 6658SOL    HW122512   8.470   5.443   7.991 -0.7540 -3.0533 -0.4185
 6658SOL    HW222513   8.322   5.417   7.973 -1.5523  1.1120 -0.4692
 6659SOL     OW22514   6.761   7.138   1.680 -0.6863 -0.3846  0.0312
 6659SOL    HW122515   6.747   7.232   1.669 -1.1728 -0.2722  1.5183
 6659SOL    HW222516   6.679   7.106   1.718 -1.1113 -1.6862 -1.9169
 6660SOL     OW22517   5.230   5.198   1.224 -0.0353 -0.5529  0.0554
 6660SOL    HW122518   5.298   5.136   1.196 -1.2423 -2.3321  1.0193
 6660SOL    HW222519   5.268   5.242   1.300 -0.1932 -1.9981  0.9837
 6661SOL     OW22520   9.237   1.218   1.042 -0.0731 -0.1261 -0.3663
 6661SOL    HW122521   9.236   1.193   1.134  0.0572 -0.4656 -0.4554
 6661SOL    HW222522   9.330   1.234   1.023 -0.3218  2.2727  0.1796
 6662SOL     OW22523   2.371   6.837   3.156  0.3590 -0.1717 -0.4120
 6662SOL    HW122524   2.380   6.878   3.070 -1.1749 -1.5474 -1.2567
 6662SOL    HW222525   2.461   6.817   3.183  0.9425  1.4257 -1.0971
 6663SOL     OW22526   8.143   0.083   7.591  0.0281 -0.4270  0.1857
 6663SOL    HW122527   8.238   0.082   7.594  0.0232 -1.0863  0.3330
 6663SOL    HW222528   8.118  -0.010   7.592 -0.6552 -0.2510  1.5092
 6664SOL     OW22529   0.411   8.694   9.373  0.4166  0.3570  0.0586
 6664SOL    HW122530   0.477   8.649   9.320 -0.7864  0.7351 -1.8032
 6664SOL    HW222531   0.408   8.783   9.338 -1.0511  0.3491  0.1367
 6665SOL     OW22532   8.195   8.263   9.808  0.3140  0.1144  0.0635
 6665SOL    HW122533   8.285   8.287   9.828 -0.0669  0.6975  1.0697
 6665SOL    HW222534   8.204   8.194   9.742  1.4988 -0.1722  0.5080
 6666SOL     OW22535   5.189   0.840   3.776  0.1875  0.4100  0.0852
 6666SOL    HW122536   5.220   0.751   3.759  1.8524  0.8813  0.5636
 6666SOL    HW222537   5.267   0.888   3.802 -0.9543  1.6450  1.3264
 6667SOL     OW22538   6.768   4.014   4.691 -0.0505 -1.0255 -0.0441
 6667SOL    HW122539   6.741   3.928   4.659  0.2929 -1.2252  0.1934
 6667SOL    HW222540   6.816   4.053   4.618 -0.3801 -0.9566 -0.2207
 6668SOL     OW22541   5.921   9.842   5.473 -0.0558  0.0170 -0.0453
 6668SOL    HW122542   5.873   9.838   5.390  0.3706 -0.8294 -0.2569
 6668SOL    HW222543   5.963   9.756   5.480  1.5193  0.7845  0.0945
 6669SOL     OW22544   3.232   6.594   1.907  0.1363  0.1659  0.2343
 6669SOL    HW122545   3.141   6.563   1.908  0.1102  0.2328  0.0227
 6669SOL    HW222546   3.240   6.647   1.986 -0.0174  0.1763  0.2433
 6670SOL     OW22547   6.831   7.730   5.496 -0.0276  0.3809 -0.1896
 6670SOL    HW122548   6.828   7.775   5.412 -0.6713  0.1022 -0.3178
 6670SOL    HW222549   6.791   7.645   5.479  0.9213 -0.1340  0.1189
 6671SOL     OW22550   6.961   4.622   5.868 -0.1982  0.4422 -0.3673
 6671SOL    HW122551   6.989   4.714   5.870 -1.2253  0.7889 -1.2776
 6671SOL    HW222552   7.039   4.573   5.842 -0.1523  1.2824 -1.8604
 6672SOL     OW22553   9.909   8.092   3.464  0.3122  0.0628  0.0619
 6672SOL    HW122554   9.881   8.045   3.543 -1.7429  1.3952  0.1602
 6672SOL    HW222555   9.948   8.024   3.408  1.5604 -0.9457  2.0727
 6673SOL     OW22556   7.769   2.582   4.368  0.0067  0.7107 -0.0685
 6673SOL    HW122557   7.735   2.666   4.399 -1.1826  0.2646 -0.1131
 6673SOL    HW222558   7.690   2.532   4.345  0.5281 -1.3417  2.3622
 6674SOL     OW22559   4.606   1.384   2.459  0.3941  0.3565  0.1290
 6674SOL    HW122560   4.690   1.404   2.501  0.6413  0.7272 -0.5359
 6674SOL    HW222561   4.602   1.289   2.459  1.2040  0.3082 -0.5708
 6675SOL     OW22562   9.863   9.175   8.742  0.6417  0.1595 -0.5121
 6675SOL    HW122563   9.848   9.267   8.765  0.7760 -0.2282  1.2016
 6675SOL    HW222564   9.822   9.126   8.814  0.9355 -1.1098 -1.2029
 6676SOL     OW22565   1.149   1.501   8.251  0.5360 -0.0675  0.0955
 6676SOL    HW122566   1.107   1.581   8.218  1.3388  0.0674 -0.6034
 6676SOL    HW222567   1.104   1.430   8.206  0.9150  0.0645 -0.4839
 6677SOL     OW22568   5.240   3.502   3.203  0.3753  0.3455  0.0847
 6677SOL    HW122569   5.175   3.459   3.148  1.6676 -0.6194 -0.7166
 6677SOL    HW222570   5.318   3.509   3.147  1.4409  0.1172  1.5190
 6678SOL     OW22571   3.694   0.451   5.316  0.1549  0.0407  0.2089
 6678SOL    HW122572   3.675   0.418   5.228 -1.9780 -1.7838  1.3101
 6678SOL    HW222573   3.615   0.498   5.342  0.7962  0.6233  1.1481
 6679SOL     OW22574   1.534   8.610   3.961  0.1736 -0.0081  0.3356
 6679SOL    HW122575   1.615   8.649   3.928  1.4180 -2.2873  0.6126
 6679SOL    HW222576   1.488   8.579   3.883  0.0367  0.3795  0.2598
 6680SOL     OW22577   2.221   0.130   3.080  0.0357  0.0715  0.1296
 6680SOL    HW122578   2.275   0.061   3.041  0.0269  0.8401 -1.2621
 6680SOL    HW222579   2.131   0.104   3.058 -0.0835 -0.4471  1.2057
 6681SOL     OW22580   8.165   3.572   1.649  0.2003  0.0918 -0.1151
 6681SOL    HW122581   8.190   3.663   1.666  0.0934 -0.0348  0.7591
 6681SOL    HW222582   8.248   3.526   1.638  0.2237  0.9686 -4.3786
 6682SOL     OW22583   0.264   0.463   5.264 -0.1601 -0.4169  0.4684
 6682SOL    HW122584   0.324   0.406   5.216  1.0957  0.0332  1.4712
 6682SOL    HW222585   0.179   0.421   5.254  0.5614 -1.8872  0.2746
 6683SOL     OW22586   7.424   3.624   1.298 -0.3939 -0.2479  0.8168
 6683SOL    HW122587   7.445   3.683   1.226 -1.1386  1.7940  2.2539
 6683SOL    HW222588   7.484   3.551   1.287 -0.2823  0.1811 -1.6878
 6684SOL     OW22589   4.800   4.764   3.983  0.7470 -0.0046 -0.2942
 6684SOL    HW122590   4.847   4.839   3.945  0.7644 -1.1778 -2.7108
 6684SOL    HW222591   4.869   4.713   4.027  1.1532  0.1380 -0.7540
 6685SOL     OW22592   0.601   9.345   1.408 -0.3034  0.4760 -0.3144
 6685SOL    HW122593   0.575   9.257   1.379 -0.6742  0.1197  1.0689
 6685SOL    HW222594   0.519   9.393   1.416  0.0304  1.5749 -2.9541
 6686SOL     OW22595   8.092   9.527   5.801 -0.1898  0.2961  0.1410
 6686SOL    HW122596   8.152   9.512   5.874  1.7111  1.2980 -1.1690
 6686SOL    HW222597   8.041   9.446   5.794  1.4045 -0.7917  0.9455
 6687SOL     OW22598   1.338   5.255   0.039 -0.1949 -0.3394 -0.0360
 6687SOL    HW122599   1.361   5.163   0.055 -0.5895 -0.4970 -0.3761
 6687SOL    HW222600   1.370   5.301   0.117 -0.9066 -0.9133  0.5982
 6688SOL     OW22601   2.931   9.566   7.682  0.2412 -0.0152  0.4552
 6688SOL    HW122602   3.008   9.530   7.725 -0.5030 -0.7969  1.1505
 6688SOL    HW222603   2.906   9.641   7.736 -0.9471 -1.2481  1.6861
 6689SOL     OW22604   1.477   8.561   3.336  0.2044 -0.1300  0.0120
 6689SOL    HW122605   1.398   8.512   3.313 -0.3482 -0.0988  1.7758
 6689SOL    HW222606   1.549   8.507   3.305 -0.5114  0.1972 -2.3112
 6690SOL     OW22607   7.726   9.220   5.682 -0.1977  0.0627 -0.1029
 6690SOL    HW122608   7.745   9.169   5.603 -1.4739  2.1097 -1.8026
 6690SOL    HW222609   7.804   9.274   5.695 -0.0719 -0.1193 -0.0931
 6691SOL     OW22610   6.237   3.637   4.776 -0.2998  0.2138  0.0003
 6691SOL    HW122611   6.247   3.713   4.719 -1.7586 -1.8467 -3.1640
 6691SOL    HW222612   6.173   3.582   4.731  0.8570 -2.9886  2.0863
 6692SOL     OW22613   6.783   5.172   6.493  0.3400  0.4506  0.9076
 6692SOL    HW122614   6.820   5.249   6.449  1.7885  0.1262  1.5515
 6692SOL    HW222615   6.691   5.171   6.464  0.2071  2.5945  1.1302
 6693SOL     OW22616   4.801   2.065   9.836 -0.2368  0.7495 -0.4009
 6693SOL    HW122617   4.731   2.007   9.867 -0.7992  1.4082 -0.4275
 6693SOL    HW222618   4.881   2.014   9.847 -0.5074  0.6823  1.4742
 6694SOL     OW22619   2.700   9.190   6.688 -0.7444  0.1961 -0.6571
 6694SOL    HW122620   2.693   9.192   6.593  4.2948 -0.7889 -1.1775
 6694SOL    HW222621   2.770   9.252   6.709 -2.6825  1.4251  2.5632
 6695SOL     OW22622   3.271   0.683   9.439 -0.0584  0.1252  0.2630
 6695SOL    HW122623   3.344   0.631   9.407 -0.6910 -0.7859  0.2730
 6695SOL    HW222624   3.310   0.748   9.496  0.6511 -0.9610  1.0286
 6696SOL     OW22625   7.703   6.879   6.204  0.1493  0.4481  0.4008
 6696SOL    HW122626   7.701   6.799   6.152  0.4459  0.1245  0.8783
 6696SOL    HW222627   7.611   6.907   6.209 -0.1690 -0.7408  1.5611
 6697SOL     OW22628   4.384   7.146   6.455 -0.2132  0.0893  0.1657
 6697SOL    HW122629   4.328   7.105   6.520 -1.2235  1.9155  0.4846
 6697SOL    HW222630   4.325   7.203   6.405  0.5688 -1.1207 -2.2399
 6698SOL     OW22631   2.835   5.830   1.234 -0.3671 -0.2518  0.6747
 6698SOL    HW122632   2.855   5.880   1.312 -0.7462  1.3362 -0.2268
 6698SOL    HW222633   2.877   5.878   1.163 -0.7168 -1.2232 -0.2086
 6699SOL     OW22634   9.243   1.629   8.218 -0.1549  0.3842  0.1228
 6699SOL    HW122635   9.317   1.595   8.167 -0.3061  0.1836  0.0372
 6699SOL    HW222636   9.208   1.553   8.264 -0.2703  0.4920  0.2136
 6700SOL     OW22637   2.546   5.748   1.860 -0.4278  0.6027  0.2779
 6700SOL    HW122638   2.585   5.834   1.846 -0.1455  0.4075 -0.1281
 6700SOL    HW222639   2.479   5.740   1.792  1.1946 -0.4981 -1.2346
 6701SOL     OW22640   9.165   7.476   0.051  0.1119 -0.0503  0.1009
 6701SOL    HW122641   9.156   7.388   0.016 -0.4290 -0.2318  0.6908
 6701SOL    HW222642   9.090   7.524   0.016 -0.0624 -0.0526  0.4683
 6702SOL     OW22643   1.768   3.587   0.666  0.3247  0.2206  0.5520
 6702SOL    HW122644   1.698   3.555   0.722 -0.5271  0.2339 -0.4869
 6702SOL    HW222645   1.848   3.548   0.702 -0.3173 -0.4760  1.2223
 6703SOL     OW22646   1.353   6.376   9.218 -0.3944 -0.2491  0.2850
 6703SOL    HW122647   1.337   6.467   9.241 -0.2046 -0.1534  0.0377
 6703SOL    HW222648   1.398   6.339   9.293  3.5140  0.9897 -1.3106
 6704SOL     OW22649   4.310   6.559   5.726 -0.0267 -0.1325  0.3226
 6704SOL    HW122650   4.264   6.600   5.799 -1.3785  0.9504 -1.1101
 6704SOL    HW222651   4.376   6.623   5.700  1.8445 -1.3608  1.8674
 6705SOL     OW22652   8.742   1.025   7.759 -0.6484  0.2010  0.2585
 6705SOL    HW122653   8.771   0.939   7.790 -2.1655  0.0585  1.2951
 6705SOL    HW222654   8.670   1.007   7.699  1.2405  0.5758 -2.2278
 6706SOL     OW22655   1.942   1.163   3.940  0.6055 -0.4500 -0.5655
 6706SOL    HW122656   2.036   1.147   3.938  0.8187  0.7217 -3.5866
 6706SOL    HW222657   1.905   1.097   3.880  0.1146  2.0677 -3.1853
 6707SOL     OW22658   5.764   7.385   9.755 -0.4968  0.2630  0.7075
 6707SOL    HW122659   5.846   7.372   9.708 -0.0949  3.6313  0.3244
 6707SOL    HW222660   5.783   7.358   9.845  0.9108  0.6213  0.5280
 6708SOL     OW22661   1.349   4.648   5.834  0.2269 -0.0980  0.4656
 6708SOL    HW122662   1.361   4.669   5.742 -1.8571 -0.5413  0.0574
 6708SOL    HW222663   1.314   4.559   5.834  2.0873 -0.8687  1.8056
 6709SOL     OW22664  10.094   0.654   5.513  0.1825 -0.1354  0.3151
 6709SOL    HW122665  10.094   0.664   5.609  0.3298 -0.4006  0.3446
 6709SOL    HW222666  10.185   0.635   5.492 -0.3219 -2.9034  0.4366
 6710SOL     OW22667   4.109   3.248   3.155  0.0440  0.1894 -0.3143
 6710SOL    HW122668   4.197   3.285   3.159 -0.1734  0.7110 -0.3763
 6710SOL    HW222669   4.069   3.271   3.239 -0.3886  0.8476 -0.6937
 6711SOL     OW22670   4.725   8.091   2.747 -1.3775 -0.0082 -0.4533
 6711SOL    HW122671   4.801   8.036   2.729 -0.5222  0.9092  0.2435
 6711SOL    HW222672   4.651   8.031   2.746 -0.7171 -0.8171 -1.7222
 6712SOL     OW22673  10.123   4.935   6.669  0.2523 -0.8428  0.1003
 6712SOL    HW122674  10.218   4.943   6.667  0.1780  0.4205  0.9360
 6712SOL    HW222675  10.101   4.923   6.761 -0.5567  1.2633  0.2102
 6713SOL     OW22676   8.212   4.258   3.884  0.0361  0.0060  0.2101
 6713SOL    HW122677   8.252   4.258   3.797  0.0557 -2.1961  0.1802
 6713SOL    HW222678   8.139   4.196   3.877 -2.6630  3.0304  0.6019
 6714SOL     OW22679   7.455   8.700   1.338 -0.0206 -0.3123 -0.2111
 6714SOL    HW122680   7.477   8.620   1.290  0.4737  0.2647 -0.9532
 6714SOL    HW222681   7.517   8.702   1.411 -0.6988 -1.1318  0.3985
 6715SOL     OW22682   9.529   0.299   7.038 -0.4599  0.0408 -0.2807
 6715SOL    HW122683   9.590   0.360   7.079 -0.4546 -0.3364  0.2848
 6715SOL    HW222684   9.477   0.353   6.978 -0.1708  0.5199 -0.0999
 6716SOL     OW22685   9.678   9.656   0.366 -0.0279 -0.8844  0.1748
 6716SOL    HW122686   9.640   9.570   0.384 -0.4382 -0.5825  0.7551
 6716SOL    HW222687   9.718   9.682   0.449  0.6206 -0.7770 -0.1707
 6717SOL     OW22688   6.947   6.077   1.047 -0.3187  0.0405 -0.3957
 6717SOL    HW122689   6.952   6.067   0.952 -0.5454  0.5199 -0.4597
 6717SOL    HW222690   7.027   6.123   1.071  0.0622 -0.6780 -0.2693
 6718SOL     OW22691   4.369   8.949   0.712 -0.9565 -0.3879  0.5652
 6718SOL    HW122692   4.414   9.031   0.733  1.1382 -1.3719  0.0657
 6718SOL    HW222693   4.361   8.904   0.795 -0.1403 -0.6382  0.5071
 6719SOL     OW22694   3.928   2.167   8.156 -0.7163 -0.1381 -0.2432
 6719SOL    HW122695   3.950   2.259   8.171 -1.9585 -0.1569  1.9451
 6719SOL    HW222696   3.953   2.151   8.065 -0.6686  2.4109 -0.7197
 6720SOL     OW22697   8.967   4.085   8.893 -0.3256  0.2615  0.2835
 6720SOL    HW122698   8.948   4.031   8.816  0.1569  1.0741 -0.4256
 6720SOL    HW222699   9.040   4.141   8.865  1.8110 -1.4437  2.2812
 6721SOL     OW22700   7.696   6.351   7.497 -0.2214  0.0616 -0.1060
 6721SOL    HW122701   7.641   6.349   7.575 -1.7249 -1.1010 -1.1567
 6721SOL    HW222702   7.768   6.290   7.515 -0.6050 -0.2536  0.3461
 6722SOL     OW22703   6.555   5.771   0.149  0.3329 -0.2138 -0.4437
 6722SOL    HW122704   6.571   5.843   0.209 -0.6081 -0.1487 -0.2531
 6722SOL    HW222705   6.566   5.809   0.062  1.0262 -0.1397 -0.3223
 6723SOL     OW22706   2.841   9.895   5.785 -0.3274 -0.6379  0.0772
 6723SOL    HW122707   2.900   9.932   5.720 -1.1221  0.6889  0.1016
 6723SOL    HW222708   2.885   9.815   5.814  1.1762  0.0103 -0.3402
 6724SOL     OW22709   8.701   0.281   5.692 -0.3160 -0.3638 -0.1306
 6724SOL    HW122710   8.683   0.374   5.698  1.3705 -0.0982  1.5664
 6724SOL    HW222711   8.787   0.276   5.651  0.0210 -1.1063  0.6318
 6725SOL     OW22712   5.014   1.903   1.795  0.4935  0.5487  0.3952
 6725SOL    HW122713   4.957   1.860   1.860 -2.4136  2.4630 -0.7716
 6725SOL    HW222714   5.025   1.838   1.726 -0.3846  0.1932  0.5814
 6726SOL     OW22715   0.540   8.667   1.757  0.8298  0.1715 -0.4114
 6726SOL    HW122716   0.530   8.735   1.823  1.7152  1.8070 -1.9136
 6726SOL    HW222717   0.467   8.608   1.773  0.3300  1.1971  1.2523
 6727SOL     OW22718   6.125   4.046   9.351 -0.3056 -0.4370  0.5706
 6727SOL    HW122719   6.179   4.124   9.358 -1.3289  0.2553  0.9278
 6727SOL    HW222720   6.148   4.008   9.266 -0.4235  0.7424 -0.0028
 6728SOL     OW22721   0.074   4.198   8.522 -0.2881  0.6009  0.2324
 6728SOL    HW122722   0.030   4.258   8.462 -0.0527  0.3338 -0.2140
 6728SOL    HW222723   0.155   4.174   8.477  0.4429  1.2965  1.1626
 6729SOL     OW22724  10.161   0.451   6.015 -0.3747 -0.0832 -0.0529
 6729SOL    HW122725  10.115   0.508   5.953 -1.5152 -1.8823 -0.9104
 6729SOL    HW222726  10.094   0.389   6.045  1.0433 -1.5784  0.1186
 6730SOL     OW22727   8.899   9.394   9.303 -0.4237 -0.3965 -0.1299
 6730SOL    HW122728   8.853   9.444   9.370 -1.2402  1.4840 -2.0203
 6730SOL    HW222729   8.838   9.392   9.229  2.2253  1.7076 -2.5145
 6731SOL     OW22730   3.462   6.957   8.778 -0.1345 -0.3250  0.0013
 6731SOL    HW122731   3.518   6.906   8.837  0.8352  0.4748 -0.2117
 6731SOL    HW222732   3.447   7.039   8.825 -0.8623 -0.4024 -0.0899
 6732SOL     OW22733   7.499   4.749   6.846 -0.4047  0.4381 -0.0960
 6732SOL    HW122734   7.451   4.678   6.803 -1.2049  0.6576  0.4259
 6732SOL    HW222735   7.486   4.733   6.939  1.0023  0.1884  0.0587
 6733SOL     OW22736   0.015   6.956   1.629  0.4964 -0.4330  0.1750
 6733SOL    HW122737   0.032   7.017   1.557 -0.1879 -0.7104 -0.2322
 6733SOL    HW222738   0.088   6.894   1.625  1.2545  0.4248  0.6665
 6734SOL     OW22739   5.944   7.316   5.280 -0.3534 -0.3469 -0.2804
 6734SOL    HW122740   5.901   7.394   5.315 -1.3439 -0.7992 -0.4704
 6734SOL    HW222741   5.888   7.243   5.309  1.0654 -1.0704  0.6935
 6735SOL     OW22742   3.552   9.865   9.135 -0.2210  0.5758 -0.1254
 6735SOL    HW122743   3.599   9.889   9.214 -0.1149 -0.0819  0.0126
 6735SOL    HW222744   3.468   9.831   9.166  0.0926 -0.3395 -0.2488
 6736SOL     OW22745   7.343   2.918   8.813 -0.0855  0.3664  0.1396
 6736SOL    HW122746   7.346   3.006   8.850  1.8150 -0.0768  1.1289
 6736SOL    HW222747   7.372   2.861   8.885  1.4728 -0.7493 -1.3399
 6737SOL     OW22748   0.246   2.693   5.275 -0.0185  0.4129  0.7357
 6737SOL    HW122749   0.340   2.701   5.260 -0.1219 -0.0761 -0.2056
 6737SOL    HW222750   0.210   2.669   5.190 -0.7143 -1.7516  1.6029
 6738SOL     OW22751   6.975   2.997   9.633  0.1257  0.2929  0.1324
 6738SOL    HW122752   6.966   2.923   9.572 -0.8194 -1.2176  2.0477
 6738SOL    HW222753   7.055   3.041   9.604  0.0552 -0.7584 -1.8016
 6739SOL     OW22754   3.627   1.335   8.013 -0.1325  0.5831  0.1152
 6739SOL    HW122755   3.710   1.367   8.048 -0.4195 -0.1284  1.4834
 6739SOL    HW222756   3.574   1.315   8.090  0.3299 -3.9877 -0.5680
 6740SOL     OW22757   9.958   1.797   0.074 -0.3168 -0.2123  0.4296
 6740SOL    HW122758   9.988   1.754  -0.006  0.1013  2.6894 -1.0170
 6740SOL    HW222759   9.864   1.779   0.077 -0.1619 -1.1575 -0.1884
 6741SOL     OW22760   2.725   6.973   0.870 -0.3125  0.3825 -0.6529
 6741SOL    HW122761   2.639   7.015   0.883  0.1012  1.5017 -1.4538
 6741SOL    HW222762   2.708   6.905   0.804 -0.3565  1.3928 -1.7043
 6742SOL     OW22763   5.785   9.471   7.815 -0.0680 -0.5967 -0.4852
 6742SOL    HW122764   5.700   9.461   7.859  0.4922 -2.9223  0.1035
 6742SOL    HW222765   5.837   9.522   7.877 -0.4498 -0.7274 -0.0481
 6743SOL     OW22766   3.433   5.473   2.188 -0.2885 -0.2649 -0.0167
 6743SOL    HW122767   3.389   5.420   2.255 -1.3922 -1.7056 -1.8464
 6743SOL    HW222768   3.363   5.525   2.149  0.0745 -0.6565 -1.1873
 6744SOL     OW22769   8.210   5.260   7.951  0.2168  0.0934 -0.0659
 6744SOL    HW122770   8.132   5.303   7.987  0.4443  1.0579 -0.6976
 6744SOL    HW222771   8.187   5.168   7.948 -0.1700  0.0998  1.6457
 6745SOL     OW22772   4.979   0.214   9.528 -0.5144  0.0094 -0.2439
 6745SOL    HW122773   4.954   0.287   9.584 -0.0467  2.1264 -2.7118
 6745SOL    HW222774   4.899   0.189   9.482 -0.3778 -0.1568 -0.3965
 6746SOL     OW22775   3.492  10.190   9.171  0.0463 -0.1813  0.1035
 6746SOL    HW122776   3.526  10.183   9.082 -1.1260  0.3849 -0.3933
 6746SOL    HW222777   3.565  10.228   9.221  0.9120 -1.0539 -0.4702
 6747SOL     OW22778   3.124   0.541   1.306  0.3519 -0.0454  0.1313
 6747SOL    HW122779   3.127   0.456   1.262  1.9318 -0.7145  1.4959
 6747SOL    HW222780   3.030   0.559   1.316 -0.0021 -1.1694 -0.9952
 6748SOL     OW22781   3.495   4.663   8.484  0.3111 -0.1220 -0.6264
 6748SOL    HW122782   3.576   4.686   8.528 -0.2423  1.3866 -0.3808
 6748SOL    HW222783   3.506   4.695   8.394 -0.3414  0.8372 -0.3674
 6749SOL     OW22784   3.614   5.474   3.993  0.3913 -0.4442  0.6546
 6749SOL    HW122785   3.669   5.552   3.993  0.0406 -0.0603 -3.8811
 6749SOL    HW222786   3.675   5.401   4.003  1.1895  0.2200  0.6671
 6750SOL     OW22787   0.140   5.950   3.858 -0.4922  0.1189 -0.1295
 6750SOL    HW122788   0.223   5.942   3.905 -0.3032 -0.5465 -0.5711
 6750SOL    HW222789   0.145   6.037   3.818  0.8359 -0.6534 -1.7141
 6751SOL     OW22790   1.350   2.391   7.500 -0.1316  0.0045  0.1209
 6751SOL    HW122791   1.365   2.430   7.586 -2.7052  1.0524  0.1184
 6751SOL    HW222792   1.438   2.382   7.463  0.8685  1.2973  2.0900
 6752SOL     OW22793   5.107   8.991   2.894 -0.2936  0.6765 -1.1041
 6752SOL    HW122794   5.158   8.920   2.853 -0.6437  0.9400 -2.0155
 6752SOL    HW222795   5.018   8.976   2.864 -0.8779 -0.1266  0.9843
 6753SOL     OW22796   5.198   9.875   5.225  0.2744  0.1970  0.6257
 6753SOL    HW122797   5.108   9.878   5.193  0.2781  0.5135  0.6452
 6753SOL    HW222798   5.248   9.840   5.152  0.0436 -0.5475  0.8191
 6754SOL     OW22799   6.204   9.563   3.946 -0.0794  1.0082  0.1388
 6754SOL    HW122800   6.114   9.558   3.915  0.8368  1.7906 -2.7803
 6754SOL    HW222801   6.202   9.630   4.014 -1.2584  2.7362 -1.5658
 6755SOL     OW22802   0.029   0.595   0.866 -0.5964 -0.5635 -0.7261
 6755SOL    HW122803   0.036   0.534   0.940  0.3870  0.3341 -0.0595
 6755SOL    HW222804   0.050   0.681   0.904 -1.6757  0.1546 -1.7103
 6756SOL     OW22805   2.047   1.507   3.138 -0.0680  0.4833 -0.4196
 6756SOL    HW122806   2.052   1.423   3.093 -0.0820  1.2045 -1.8056
 6756SOL    HW222807   2.068   1.487   3.229  1.5988 -0.7517 -1.0487
 6757SOL     OW22808   3.910   8.205   9.610 -0.0280 -0.3914  0.1016
 6757SOL    HW122809   3.994   8.244   9.584 -0.3921 -0.4561 -1.1833
 6757SOL    HW222810   3.883   8.256   9.687  0.6665  0.3355 -0.1300
 6758SOL     OW22811   5.601   9.456   7.137 -0.6023 -1.0819 -0.4501
 6758SOL    HW122812   5.565   9.377   7.177 -1.6381 -0.2369  0.2923
 6758SOL    HW222813   5.640   9.505   7.209 -1.2455 -0.2283 -0.6668
 6759SOL     OW22814   1.338   3.950   2.809 -0.3963 -0.2694  0.1042
 6759SOL    HW122815   1.338   3.855   2.798 -0.3882 -0.3852  1.0420
 6759SOL    HW222816   1.326   3.985   2.721 -1.9662 -1.1521 -0.0324
 6760SOL     OW22817   1.487   0.016   1.350 -0.5583 -0.0229 -0.9158
 6760SOL    HW122818   1.445  -0.004   1.267 -0.7244 -1.3597 -0.5352
 6760SOL    HW222819   1.578  -0.009   1.338 -0.9493 -1.9671 -0.1525
 6761SOL     OW22820   8.450   9.128   7.785 -0.5716  0.1688  0.2417
 6761SOL    HW122821   8.416   9.085   7.707 -0.1928  0.9297 -0.3441
 6761SOL    HW222822   8.435   9.221   7.770  1.3557  0.4817  0.1627
 6762SOL     OW22823   4.769   6.834   6.818  0.3567  0.5295  0.0664
 6762SOL    HW122824   4.803   6.775   6.886 -1.8089  0.8746  1.4982
 6762SOL    HW222825   4.676   6.813   6.812  0.6509  0.0155 -3.3598
 6763SOL     OW22826   9.629   1.451   3.620  0.3065 -0.1332 -0.0492
 6763SOL    HW122827   9.588   1.366   3.604  0.8540 -0.6558  1.2204
 6763SOL    HW222828   9.668   1.442   3.707  1.4862  0.9873 -0.4535
 6764SOL     OW22829   2.834   8.201   0.617 -0.0692  0.0678  0.4990
 6764SOL    HW122830   2.778   8.219   0.541 -0.6975 -0.2815  0.8767
 6764SOL    HW222831   2.902   8.143   0.583 -0.1378  0.2066  0.1207
 6765SOL     OW22832   0.902   5.939   3.385 -0.1220  0.0521  0.3150
 6765SOL    HW122833   0.807   5.947   3.391 -0.3956 -1.2134 -1.7338
 6765SOL    HW222834   0.927   5.886   3.461 -1.3711 -1.6388 -0.4090
 6766SOL     OW22835   2.895   2.643   7.736 -0.6142 -0.7608 -0.0355
 6766SOL    HW122836   2.860   2.716   7.788 -0.9380 -0.5347 -0.5604
 6766SOL    HW222837   2.970   2.681   7.690 -0.6140 -0.8365 -0.0964
 6767SOL     OW22838   5.258   0.233   8.151 -0.4284  0.5556 -0.8397
 6767SOL    HW122839   5.202   0.161   8.181  1.0402 -0.2567 -0.0031
 6767SOL    HW222840   5.278   0.283   8.231 -0.3102  1.1051 -1.2048
 6768SOL     OW22841   9.663   1.736   8.752 -0.0492 -0.1812 -0.7811
 6768SOL    HW122842   9.657   1.692   8.667  0.1475 -2.2961  0.2711
 6768SOL    HW222843   9.650   1.828   8.732  2.7273 -0.3115 -3.4715
 6769SOL     OW22844   1.518   1.837   0.513  0.1731  0.1137 -0.0441
 6769SOL    HW122845   1.547   1.759   0.465  0.8921  1.1980 -1.4198
 6769SOL    HW222846   1.423   1.835   0.505  0.2662  0.0762 -1.2049
 6770SOL     OW22847   6.474   1.106   7.219  0.3185 -0.0476 -0.0154
 6770SOL    HW122848   6.476   1.197   7.247  1.2501 -0.4668  1.3177
 6770SOL    HW222849   6.455   1.111   7.125 -0.9647  1.4466  0.3002
 6771SOL     OW22850   0.367   7.159   3.704  0.0121  0.2052 -0.0474
 6771SOL    HW122851   0.389   7.216   3.777 -0.8679  0.5961 -0.0806
 6771SOL    HW222852   0.303   7.209   3.653  0.9979  0.1705 -1.3784
 6772SOL     OW22853   9.398   7.078   7.533 -0.2865 -0.1976 -0.0073
 6772SOL    HW122854   9.372   7.164   7.565  0.3778  0.3511 -0.9050
 6772SOL    HW222855   9.332   7.055   7.468  0.3685  0.3374 -0.8846
 6773SOL     OW22856   8.820   0.196   9.917  0.4327  0.1748 -0.0944
 6773SOL    HW122857   8.742   0.206   9.972  0.6802  0.1895  0.2547
 6773SOL    HW222858   8.804   0.253   9.842  0.7903  1.3820  0.7291
 6774SOL     OW22859   7.112   7.562   2.761 -0.4662 -0.0878 -0.3700
 6774SOL    HW122860   7.049   7.511   2.711 -1.3159  1.4163 -0.8475
 6774SOL    HW222861   7.061   7.603   2.830 -0.0779  1.4069 -0.9578
 6775SOL     OW22862   8.284   1.638   2.993  0.0434 -0.4009  0.0284
 6775SOL    HW122863   8.261   1.730   3.008  2.1400  0.4932 -1.8715
 6775SOL    HW222864   8.320   1.608   3.076  2.0305  1.3981 -0.1256
 6776SOL     OW22865   3.366   9.314   1.706 -0.3914  0.0177  0.1000
 6776SOL    HW122866   3.416   9.248   1.754 -0.5008 -0.3343 -0.2641
 6776SOL    HW222867   3.400   9.308   1.616 -0.7883  0.0775 -0.0534
 6777SOL     OW22868   2.631   7.194   2.449 -0.4544 -0.1216 -0.5770
 6777SOL    HW122869   2.709   7.208   2.502 -1.3531  0.5182  0.6014
 6777SOL    HW222870   2.574   7.140   2.503 -1.6207  1.0237 -0.6340
 6778SOL     OW22871   5.899   4.758   0.289  0.5189  0.0749  0.7142
 6778SOL    HW122872   5.952   4.695   0.241  0.6262 -0.0953  1.0576
 6778SOL    HW222873   5.903   4.838   0.235  1.4297  0.1789  0.9176
 6779SOL     OW22874   0.848   6.623   6.502  0.2986 -0.6039  0.1183
 6779SOL    HW122875   0.836   6.642   6.409 -2.1050 -0.2783  0.4668
 6779SOL    HW222876   0.894   6.539   6.503  0.5542 -0.4993 -1.3577
 6780SOL     OW22877   2.315   2.960   0.740  0.3846  0.4591 -0.6551
 6780SOL    HW122878   2.249   2.902   0.702  0.3559 -0.8098  1.2253
 6780SOL    HW222879   2.285   3.048   0.720 -1.1855 -0.1286 -0.9623
 6781SOL     OW22880   9.419   1.741   2.952 -0.1521 -0.0220  0.3021
 6781SOL    HW122881   9.498   1.688   2.961 -1.1914 -1.8901 -1.3150
 6781SOL    HW222882   9.442   1.808   2.888 -0.0358 -0.9062 -0.5924
 6782SOL     OW22883   9.595   1.381   1.378  0.0886 -0.3024  0.5351
 6782SOL    HW122884   9.602   1.476   1.369 -0.9105 -0.2566  0.2697
 6782SOL    HW222885   9.682   1.348   1.353  0.5539  0.5638  0.9998
 6783SOL     OW22886   8.301   6.039   3.423 -0.3555  0.0382 -0.1768
 6783SOL    HW122887   8.316   6.117   3.370 -0.6544 -0.0465 -0.3849
 6783SOL    HW222888   8.206   6.032   3.431 -0.2874  0.9747  1.7409
 6784SOL     OW22889   3.591   6.772   5.801  0.0148 -0.0363  0.2804
 6784SOL    HW122890   3.646   6.832   5.751 -1.2174 -0.0523 -1.1441
 6784SOL    HW222891   3.615   6.787   5.893  2.0818  0.2224 -0.2913
 6785SOL     OW22892   4.653   9.309   3.062 -0.3863  0.5087 -0.0439
 6785SOL    HW122893   4.672   9.243   3.129  1.2144  0.6456 -0.3513
 6785SOL    HW222894   4.557   9.311   3.057 -0.4635 -1.4290  0.3124
 6786SOL     OW22895   8.118   9.461   2.212  0.2240 -0.0330  0.1504
 6786SOL    HW122896   8.178   9.532   2.236  0.6315 -0.7122  1.1462
 6786SOL    HW222897   8.152   9.428   2.129  1.9347 -1.1877  1.2839
 6787SOL     OW22898   9.149   7.196   3.565 -0.0859  0.1749  0.2232
 6787SOL    HW122899   9.111   7.281   3.541  0.7427  0.3826 -0.3490
 6787SOL    HW222900   9.242   7.204   3.544 -0.6471 -2.2530 -3.7290
 6788SOL     OW22901   8.494  10.048   2.815  0.0102 -0.0309  0.3138
 6788SOL    HW122902   8.410  10.083   2.786 -0.0889 -1.0419 -0.6573
 6788SOL    HW222903   8.499   9.962   2.775  1.2047 -0.2618  0.9342
 6789SOL     OW22904   5.941   8.401   5.795  0.4096 -0.1106 -0.3462
 6789SOL    HW122905   6.007   8.468   5.781  1.8155 -1.5596 -0.8250
 6789SOL    HW222906   5.946   8.381   5.889 -0.6864  1.1178 -0.0115
 6790SOL     OW22907   1.908   6.810   0.176  0.2006 -0.0960 -0.2051
 6790SOL    HW122908   1.981   6.753   0.151 -1.1822 -1.4884 -1.1673
 6790SOL    HW222909   1.894   6.793   0.269 -1.0820 -2.3822 -0.7864
 6791SOL     OW22910   8.604   8.472   5.708  0.0955  0.1250 -0.3993
 6791SOL    HW122911   8.687   8.519   5.697  1.0792 -1.2240  1.0237
 6791SOL    HW222912   8.552   8.498   5.632  1.4222  1.8137 -0.7750
 6792SOL     OW22913   6.101   9.239   6.460  0.0878 -0.6950 -0.8094
 6792SOL    HW122914   6.088   9.151   6.496 -0.4540 -0.9763 -1.6680
 6792SOL    HW222915   6.013   9.269   6.438 -0.0495  1.1829  2.0011
 6793SOL     OW22916   0.795   5.260   4.810 -0.0357  0.1014 -0.6799
 6793SOL    HW122917   0.702   5.252   4.789 -0.1783  1.4697 -0.6430
 6793SOL    HW222918   0.838   5.274   4.726 -0.0894  1.2983 -0.5141
 6794SOL     OW22919   7.561   0.796   7.966  0.3716  0.1662  0.1666
 6794SOL    HW122920   7.641   0.787   8.017  0.5575  2.6647  0.3871
 6794SOL    HW222921   7.566   0.728   7.899  2.0574 -0.5059  0.9740
 6795SOL     OW22922   8.171   0.885   1.429 -0.2577  0.7124  0.0724
 6795SOL    HW122923   8.256   0.930   1.430 -0.0717  0.3581  0.8952
 6795SOL    HW222924   8.167   0.843   1.343  0.0356  1.4106 -0.2899
 6796SOL     OW22925   3.744   5.434   5.197 -0.1072  0.3125 -0.0777
 6796SOL    HW122926   3.753   5.429   5.293 -1.3238  1.0570  0.0819
 6796SOL    HW222927   3.785   5.353   5.166 -2.0823 -1.2626  1.2540
 6797SOL     OW22928   1.534   4.680   8.593  0.1756  0.4251 -0.0694
 6797SOL    HW122929   1.628   4.677   8.612  0.5309  3.9486 -0.7552
 6797SOL    HW222930   1.528   4.672   8.498 -0.3143 -0.8986  0.0661
 6798SOL     OW22931   9.251   5.407   3.483  0.0578 -1.0342  0.0287
 6798SOL    HW122932   9.186   5.380   3.548 -0.7507  1.8839  0.5288
 6798SOL    HW222933   9.200   5.457   3.419  1.5231 -0.2374 -0.5298
 6799SOL     OW22934   5.269   1.074   5.145  0.2261 -0.2728  0.3547
 6799SOL    HW122935   5.307   1.115   5.067 -0.1425  1.0426  0.8577
 6799SOL    HW222936   5.328   1.002   5.166  1.1957  0.3528 -0.2077
 6800SOL     OW22937   8.839   0.664   9.719 -0.4947 -0.9218 -0.6136
 6800SOL    HW122938   8.796   0.642   9.636 -0.5897 -1.1805 -0.4966
 6800SOL    HW222939   8.777   0.722   9.763  0.3014  0.6131 -1.4742
 6801SOL     OW22940   9.887   7.629   1.257  0.0878  0.0056  0.0740
 6801SOL    HW122941   9.913   7.634   1.349  1.2646 -1.6425 -0.1482
 6801SOL    HW222942   9.939   7.698   1.215  0.4488 -0.0382  0.4438
 6802SOL     OW22943   0.894   6.644   5.122 -0.0551 -0.1806 -0.0640
 6802SOL    HW122944   0.934   6.710   5.178  1.7239 -0.2882 -1.1538
 6802SOL    HW222945   0.885   6.567   5.178  0.4305  0.1322  0.4528
 6803SOL     OW22946   6.276   0.587   9.139 -0.1291  0.2389  0.3335
 6803SOL    HW122947   6.341   0.532   9.181 -0.8823 -0.8935  0.0211
 6803SOL    HW222948   6.217   0.526   9.095 -1.3487  1.2605  0.5275
 6804SOL     OW22949   1.391   9.576   4.960  0.2940  0.2755 -0.3717
 6804SOL    HW122950   1.316   9.526   4.993  0.3671  0.3773 -0.0515
 6804SOL    HW222951   1.355   9.628   4.887 -0.0842  0.8037  0.1897
 6805SOL     OW22952   7.735   5.368   2.982  0.2350 -0.0859  0.0901
 6805SOL    HW122953   7.740   5.421   2.902  1.5787 -0.1428  0.1249
 6805SOL    HW222954   7.663   5.407   3.032 -0.3251  0.2240 -0.9516
 6806SOL     OW22955   5.731   7.778   8.210 -0.3431  0.2605  0.1892
 6806SOL    HW122956   5.708   7.685   8.208  0.1295  0.1569 -0.3853
 6806SOL    HW222957   5.732   7.805   8.118  0.3393  0.6356  0.3074
 6807SOL     OW22958   5.145   1.592   7.064  0.0300 -0.0276  0.7866
 6807SOL    HW122959   5.138   1.594   6.968 -0.7070  1.0840  0.8508
 6807SOL    HW222960   5.141   1.499   7.086  0.8260 -0.3379 -0.3037
 6808SOL     OW22961   0.344   3.587   0.101  0.3607  0.2178 -0.0749
 6808SOL    HW122962   0.387   3.501   0.097 -0.1103 -0.3017  3.8365
 6808SOL    HW222963   0.412   3.649   0.076  1.7784 -1.0415  0.5545
 6809SOL     OW22964   3.084   6.663   2.350  0.0211  0.2709  0.0120
 6809SOL    HW122965   3.118   6.679   2.437 -0.2737 -0.7221  0.3222
 6809SOL    HW222966   3.007   6.721   2.343  0.3721  0.7606  0.1953
 6810SOL     OW22967   5.433   1.346   4.629 -0.1201  0.3698 -0.2423
 6810SOL    HW122968   5.372   1.323   4.559  2.4023  0.0163 -2.3923
 6810SOL    HW222969   5.489   1.268   4.638  0.5977  1.0179  1.0915
 6811SOL     OW22970   6.490   5.343   8.880  0.5025 -0.1796 -0.0394
 6811SOL    HW122971   6.559   5.393   8.923 -0.7388  0.6003  1.0828
 6811SOL    HW222972   6.499   5.255   8.916 -0.7834  0.5581  2.2003
 6812SOL     OW22973   9.636   6.210   2.830 -0.0935  0.6311  0.7266
 6812SOL    HW122974   9.623   6.304   2.847  1.3516  0.8924  0.4551
 6812SOL    HW222975   9.596   6.196   2.745  1.2713  1.4106 -0.0741
 6813SOL     OW22976   3.141   1.458   3.584 -0.1322 -0.5020 -0.1545
 6813SOL    HW122977   3.116   1.379   3.537  1.0792 -1.8556  1.4342
 6813SOL    HW222978   3.216   1.493   3.536 -0.3748 -0.5706 -0.5799
 6814SOL     OW22979   1.556   5.038   3.405 -0.4034  0.0789  0.5692
 6814SOL    HW122980   1.626   5.047   3.341 -0.7804 -0.7394  0.0369
 6814SOL    HW222981   1.509   5.122   3.400 -0.2282  0.1490  0.0191
 6815SOL     OW22982   8.288   0.260   2.430  0.2740  0.1802 -0.0588
 6815SOL    HW122983   8.240   0.316   2.369  0.7077 -0.5326 -1.0780
 6815SOL    HW222984   8.231   0.254   2.507  0.5834  2.6374  0.3876
 6816SOL     OW22985   1.381   2.810   5.144 -0.0839  0.6066  0.1847
 6816SOL    HW122986   1.306   2.774   5.192  0.5653  0.9743  1.4904
 6816SOL    HW222987   1.446   2.740   5.145  0.6777  1.3244  1.5724
 6817SOL     OW22988   8.649   7.570   8.104 -0.1345 -0.2283  0.2137
 6817SOL    HW122989   8.635   7.568   8.009  2.5587 -0.3242 -0.2291
 6817SOL    HW222990   8.619   7.657   8.131 -1.6541 -0.4993 -0.6004
 6818SOL     OW22991   8.142   8.725   5.307 -0.2169 -0.1678 -0.6218
 6818SOL    HW122992   8.049   8.712   5.288 -0.5807 -0.8375  1.4332
 6818SOL    HW222993   8.187   8.657   5.257 -0.8564 -0.0288 -1.3951
 6819SOL     OW22994   6.914   6.536   3.067 -0.1167 -0.1957  0.3654
 6819SOL    HW122995   6.852   6.538   2.994  1.0335  0.2669 -0.6129
 6819SOL    HW222996   6.956   6.450   3.061 -0.8255 -0.6130  1.1828
 6820SOL     OW22997   8.090  10.039   0.664  0.3341 -0.5368  0.7073
 6820SOL    HW122998   8.065  10.021   0.754 -0.9157 -2.7004 -0.0336
 6820SOL    HW222999   8.026  10.104   0.634 -0.0901 -0.8265  0.9760
 6821SOL     OW23000   4.866   3.444   9.878 -0.0402 -0.5372  0.6265
 6821SOL    HW123001   4.807   3.399   9.939  0.1994  0.7611  1.8436
 6821SOL    HW223002   4.894   3.523   9.925 -1.9580  1.9232 -2.1793
 6822SOL     OW23003   3.295   7.888   1.065  0.6357 -0.2121  0.6317
 6822SOL    HW123004   3.377   7.841   1.047  1.2723  0.1137  2.6405
 6822SOL    HW223005   3.228   7.819   1.062  1.0631 -0.6063 -0.2448
 6823SOL     OW23006   1.641   3.525   2.903 -0.6482  0.2012  0.0074
 6823SOL    HW123007   1.657   3.451   2.845 -1.7352  0.4127 -0.5787
 6823SOL    HW223008   1.550   3.549   2.887 -0.8876  0.4313  1.6215
 6824SOL     OW23009   5.750   3.562   4.117  0.5475  0.1031  0.3324
 6824SOL    HW123010   5.796   3.504   4.057 -0.8340 -0.5108 -0.1551
 6824SOL    HW223011   5.779   3.650   4.093  2.1422 -0.3211  0.6389
 6825SOL     OW23012   3.523   3.499   1.579  0.5405 -0.3003  0.4509
 6825SOL    HW123013   3.533   3.415   1.535  0.7194 -2.1567  3.8291
 6825SOL    HW223014   3.431   3.523   1.566  0.2162 -1.5761  0.3505
 6826SOL     OW23015   4.385   0.580  10.050 -0.1540  0.2286  0.2799
 6826SOL    HW123016   4.321   0.628   9.997  0.0574  0.4352  0.2128
 6826SOL    HW223017   4.385   0.625  10.134  0.6787  0.8824 -0.0653
 6827SOL     OW23018   0.851   2.249   6.381 -0.0506  0.0527  0.7181
 6827SOL    HW123019   0.758   2.234   6.399  0.1672 -0.9436  1.0434
 6827SOL    HW223020   0.865   2.341   6.404 -1.2799  0.6304 -0.7255
 6828SOL     OW23021   6.414   0.828   6.885  0.7295 -0.0801  0.0864
 6828SOL    HW123022   6.324   0.841   6.855  1.1822  0.4495 -1.0442
 6828SOL    HW223023   6.426   0.733   6.886  0.2511 -0.1424 -0.0161
 6829SOL     OW23024   0.043   9.967   2.253 -0.1219  0.2114  0.0528
 6829SOL    HW123025   0.097   9.888   2.238 -0.2312  0.4271 -1.5441
 6829SOL    HW223026   0.031   9.969   2.348  0.6849 -1.1759  0.2117
 6830SOL     OW23027   6.930   0.072   1.487  0.7706 -0.7180 -0.0909
 6830SOL    HW123028   7.020   0.094   1.463  0.4311 -0.8232 -1.4752
 6830SOL    HW223029   6.910   0.129   1.561  1.3722  0.5694 -0.9082
 6831SOL     OW23030   9.783   5.663   0.501  0.6785 -0.1937 -0.5352
 6831SOL    HW123031   9.696   5.701   0.504 -0.8962 -3.6391 -0.0480
 6831SOL    HW223032   9.792   5.628   0.412  1.0431 -0.9605 -0.2085
 6832SOL     OW23033   7.230   2.087   7.674  0.0978 -0.0724 -0.6480
 6832SOL    HW123034   7.302   2.138   7.711 -1.9598  0.8118  2.3170
 6832SOL    HW223035   7.246   1.998   7.703  0.6717 -0.1100 -1.0721
 6833SOL     OW23036   7.023   6.154   9.017 -0.0660  0.2248  0.5978
 6833SOL    HW123037   7.003   6.110   9.100 -0.5002 -1.9298 -0.5988
 6833SOL    HW223038   7.014   6.085   8.951  0.2564  1.9052 -1.2473
 6834SOL     OW23039   4.602   2.167   6.331  0.0143 -0.2862  0.2881
 6834SOL    HW123040   4.620   2.076   6.355  1.3721 -0.0482  0.2066
 6834SOL    HW223041   4.585   2.164   6.237  1.3806 -0.2751  0.0337
 6835SOL     OW23042   5.359   0.221   1.826  0.3100  0.2021 -0.3187
 6835SOL    HW123043   5.408   0.220   1.744  1.9167  1.2644  0.5912
 6835SOL    HW223044   5.297   0.294   1.815 -0.9402 -0.9985 -1.3835
 6836SOL     OW23045   3.745   2.861   2.918  0.0729  0.0971  0.1951
 6836SOL    HW123046   3.697   2.932   2.961 -0.4592  0.0235 -0.2605
 6836SOL    HW223047   3.691   2.784   2.933 -0.8847  0.3312 -1.8399
 6837SOL     OW23048   1.467   0.097   2.176 -0.3442 -0.4236  0.4520
 6837SOL    HW123049   1.442   0.094   2.269  0.8330  0.2304  0.7965
 6837SOL    HW223050   1.399   0.047   2.132 -1.1891 -0.3319  1.6132
 6838SOL     OW23051   9.027   4.748   8.967 -0.3744 -0.6017  0.2736
 6838SOL    HW123052   8.996   4.791   9.047 -1.2729  0.4400 -0.6281
 6838SOL    HW223053   9.122   4.764   8.967 -0.5225  0.3172  0.5735
 6839SOL     OW23054   3.276   3.615   3.643 -0.1936 -0.0534 -0.3642
 6839SOL    HW123055   3.316   3.528   3.635  0.5344  0.1470  0.9355
 6839SOL    HW223056   3.307   3.663   3.566  0.8125 -0.3895 -0.1756
 6840SOL     OW23057   7.369   1.699   7.065 -0.5774 -0.0514 -0.4671
 6840SOL    HW123058   7.376   1.763   7.136 -2.6780 -1.2513  0.8672
 6840SOL    HW223059   7.429   1.731   6.997  2.7225  0.2893  2.4582
 6841SOL     OW23060   2.299   6.985   0.554 -0.0331  0.4090 -0.0122
 6841SOL    HW123061   2.376   7.042   0.558  0.1616  0.0963  0.7736
 6841SOL    HW223062   2.335   6.896   0.556 -0.3475  0.2592 -0.9835
 6842SOL     OW23063   1.764   7.138   8.817  0.6734 -0.3001  0.1980
 6842SOL    HW123064   1.851   7.110   8.790  0.1384 -0.2960 -1.6125
 6842SOL    HW223065   1.768   7.143   8.913  2.2132 -1.7633  0.2210
 6843SOL     OW23066   8.325   0.300   1.876  0.1176  0.1743  0.3717
 6843SOL    HW123067   8.236   0.330   1.861  0.5432  0.7198 -1.1099
 6843SOL    HW223068   8.379   0.355   1.819  1.2628 -1.0430  0.2570
 6844SOL     OW23069   9.235   8.311   4.304 -0.2718 -0.1091 -0.5127
 6844SOL    HW123070   9.322   8.302   4.342 -0.5543 -0.2732  0.1039
 6844SOL    HW223071   9.250   8.338   4.214  0.4333 -0.6753 -0.5631
 6845SOL     OW23072   4.991   1.786   4.727  0.1515  0.3811 -0.3895
 6845SOL    HW123073   5.031   1.823   4.806  1.2668 -0.5512 -0.5129
 6845SOL    HW223074   4.978   1.862   4.669 -0.0276  0.9639  0.3973
 6846SOL     OW23075   8.792   7.151   3.718 -0.2866  0.7898 -0.0711
 6846SOL    HW123076   8.745   7.074   3.748 -0.7493  0.6512 -1.1299
 6846SOL    HW223077   8.734   7.224   3.738 -0.0369  0.8301  0.5292
 6847SOL     OW23078   2.094   1.396   1.544 -0.1286  0.5973 -0.1776
 6847SOL    HW123079   2.032   1.325   1.559  0.1606  0.7343  1.8427
 6847SOL    HW223080   2.163   1.357   1.490  1.3100 -1.4255  2.9695
 6848SOL     OW23081   3.036   3.546   3.719 -0.0259 -0.0742 -0.1712
 6848SOL    HW123082   3.126   3.569   3.695 -1.1233  2.6696 -1.9049
 6848SOL    HW223083   3.023   3.588   3.804  0.5418 -1.0964  0.4324
 6849SOL     OW23084   5.378   8.194   4.195 -0.6340 -0.5985 -0.4874
 6849SOL    HW123085   5.465   8.229   4.211 -0.1654 -1.7169 -0.5226
 6849SOL    HW223086   5.373   8.184   4.100 -0.9170 -0.2546 -0.5105
 6850SOL     OW23087   0.140   7.675   1.623 -0.4717  0.0165 -0.3314
 6850SOL    HW123088   0.122   7.768   1.639 -0.4426 -0.0781  0.2569
 6850SOL    HW223089   0.068   7.629   1.666 -0.4521 -0.2400 -0.5712
 6851SOL     OW23090   4.759   8.611   3.826 -0.4126 -0.7421 -0.4188
 6851SOL    HW123091   4.843   8.651   3.848 -1.0449 -0.2285  1.1315
 6851SOL    HW223092   4.744   8.635   3.735 -0.5133  2.0970  0.3052
 6852SOL     OW23093   8.576   9.109   9.226  0.0420 -0.1139 -0.0590
 6852SOL    HW123094   8.502   9.140   9.277 -0.9235 -1.9519 -0.2959
 6852SOL    HW223095   8.541   9.095   9.138 -0.0636 -3.5169  0.4445
 6853SOL     OW23096   0.211   1.079   2.970  0.1200  0.3698 -0.0582
 6853SOL    HW123097   0.146   1.080   3.040  0.9983  0.5201  0.7703
 6853SOL    HW223098   0.267   1.154   2.988  0.0598  0.6985 -1.2089
 6854SOL     OW23099   6.404   9.340   1.034  0.4397 -0.1763 -0.1571
 6854SOL    HW123100   6.436   9.375   1.117  0.8599  1.5393 -0.9949
 6854SOL    HW223101   6.408   9.415   0.974 -0.5320 -1.1950 -1.5348
 6855SOL     OW23102   9.884   4.954   7.064 -0.2168  0.7374  0.6983
 6855SOL    HW123103   9.908   5.022   7.127 -1.5650  0.1472  1.8611
 6855SOL    HW223104   9.807   4.912   7.101 -0.0792 -0.6937 -0.5674
 6856SOL     OW23105   6.703   6.876   6.707  0.5264  0.2047 -0.1345
 6856SOL    HW123106   6.655   6.936   6.764 -0.8502 -0.9315 -0.0579
 6856SOL    HW223107   6.783   6.923   6.684 -0.9033  2.4087 -0.7552
 6857SOL     OW23108   0.281   1.679   0.519 -0.4959 -0.2972 -0.1891
 6857SOL    HW123109   0.186   1.676   0.517 -0.4861 -2.0485  1.0882
 6857SOL    HW223110   0.309   1.588   0.506  0.9533 -0.0169  0.7973
 6858SOL     OW23111   9.301   7.981   7.305 -0.3541  0.1851 -0.5518
 6858SOL    HW123112   9.289   8.045   7.235  0.7964  0.6248 -0.3579
 6858SOL    HW223113   9.358   7.914   7.268  1.5236  1.1994  0.4293
 6859SOL     OW23114   1.349   3.610   0.449 -0.0394 -0.3151  0.4825
 6859SOL    HW123115   1.358   3.608   0.545  0.3656 -0.3713  0.4411
 6859SOL    HW223116   1.418   3.553   0.417  1.0260  1.1640  0.0764
 6860SOL     OW23117   1.237   6.487   4.012  0.0286 -0.2954 -0.2205
 6860SOL    HW123118   1.185   6.545   3.956  0.0304 -1.5630 -1.5824
 6860SOL    HW223119   1.297   6.444   3.951  2.3172  0.7503  1.2572
 6861SOL     OW23120   9.209   1.444   0.652  0.1824  0.4034  0.1604
 6861SOL    HW123121   9.211   1.493   0.569  1.9789 -0.1586 -0.1676
 6861SOL    HW223122   9.128   1.394   0.649  0.0264  0.7075 -1.0890
 6862SOL     OW23123   9.242   3.712   3.101 -0.4572  0.6539 -0.1903
 6862SOL    HW123124   9.182   3.779   3.133 -0.4526  1.4861 -1.8644
 6862SOL    HW223125   9.306   3.760   3.048 -0.5189 -0.6752 -1.5122
 6863SOL     OW23126   8.748   2.346   1.079 -0.1075  0.1374 -0.2106
 6863SOL    HW123127   8.660   2.382   1.070  0.6654  1.7574 -1.4038
 6863SOL    HW223128   8.781   2.383   1.161  0.7064  2.2361 -1.4631
 6864SOL     OW23129   9.154   2.507   3.525  0.1950  0.3153  0.6767
 6864SOL    HW123130   9.072   2.458   3.523 -0.5562  1.5347  1.3384
 6864SOL    HW223131   9.207   2.462   3.590 -0.6128  0.5534  1.5122
 6865SOL     OW23132   1.639   7.489   9.897 -0.1300 -0.3500  0.3445
 6865SOL    HW123133   1.667   7.496   9.988  0.7315  0.5670  0.0190
 6865SOL    HW223134   1.653   7.576   9.860 -2.5472 -0.1151 -0.0904
 6866SOL     OW23135   0.263   2.945   4.254  0.6669 -0.5436 -0.4296
 6866SOL    HW123136   0.329   3.013   4.257 -0.5660  0.6340  0.8566
 6866SOL    HW223137   0.224   2.952   4.167  2.0592 -1.1012 -1.1109
 6867SOL     OW23138   8.481   2.043   9.792  0.0244  0.1545 -0.1852
 6867SOL    HW123139   8.447   2.077   9.709 -1.0014  0.0443  0.1871
 6867SOL    HW223140   8.403   2.016   9.841  0.6262  0.1572  0.7891
 6868SOL     OW23141   3.228   9.356   4.075  0.3637  0.2887 -0.3464
 6868SOL    HW123142   3.250   9.425   4.011  1.5813  0.5282  0.3036
 6868SOL    HW223143   3.285   9.375   4.150  2.1926 -2.5685 -0.9262
 6869SOL     OW23144   4.569   7.883   9.380  0.4420  0.3371  0.1211
 6869SOL    HW123145   4.575   7.810   9.319  0.9007 -0.5123  1.1547
 6869SOL    HW223146   4.483   7.922   9.364  0.6595  0.2725 -1.2133
 6870SOL     OW23147   8.440   6.716   2.657  0.3497  0.0104 -0.4936
 6870SOL    HW123148   8.418   6.807   2.637  0.2123 -0.2958 -1.8133
 6870SOL    HW223149   8.378   6.665   2.604  1.6423 -0.8454 -1.2019
 6871SOL     OW23150   5.985   4.644   7.068  0.6368 -0.5770 -0.0842
 6871SOL    HW123151   6.066   4.688   7.093 -0.9687  2.5054 -0.1880
 6871SOL    HW223152   6.003   4.607   6.981  1.2621  1.9300 -1.0399
 6872SOL     OW23153   6.557   3.811   9.219 -0.3213 -0.0695 -0.2915
 6872SOL    HW123154   6.516   3.890   9.182 -0.8224 -0.5854 -0.8499
 6872SOL    HW223155   6.630   3.844   9.271 -1.3312  0.8471  0.5497
 6873SOL     OW23156   5.476   9.710   6.367  0.2453  0.2605 -0.3802
 6873SOL    HW123157   5.451   9.681   6.455 -1.2141 -1.0862 -1.2060
 6873SOL    HW223158   5.415   9.781   6.347 -0.2500 -0.2736 -0.7860
 6874SOL     OW23159   1.606   2.411   8.287  0.4450 -0.1033  0.5410
 6874SOL    HW123160   1.628   2.453   8.370  0.5799  0.7231  0.0921
 6874SOL    HW223161   1.665   2.451   8.223 -1.2472  1.0009 -0.3901
 6875SOL     OW23162   8.178   9.499   2.645  1.0260 -0.3394  0.0106
 6875SOL    HW123163   8.105   9.482   2.586  0.9603 -0.2099  0.0548
 6875SOL    HW223164   8.183   9.595   2.651  0.5360 -0.3605  0.8309
 6876SOL     OW23165   2.360   1.199   9.334  0.4954 -0.3348 -0.3572
 6876SOL    HW123166   2.373   1.254   9.257  1.7642  2.7860  1.9797
 6876SOL    HW223167   2.444   1.154   9.346  0.5235 -0.2828 -0.3604
 6877SOL     OW23168   1.935   1.073   7.654 -0.0827 -0.4482  0.0370
 6877SOL    HW123169   1.880   1.092   7.579  1.1439  1.1220 -0.4755
 6877SOL    HW223170   1.895   1.122   7.726 -1.3675 -2.1010  0.5007
 6878SOL     OW23171   4.289   6.501   2.969 -0.6603 -0.2513 -0.3576
 6878SOL    HW123172   4.222   6.468   3.029 -1.7253  0.4173 -1.1443
 6878SOL    HW223173   4.247   6.576   2.926  1.6020  1.9099  1.1532
 6879SOL     OW23174   5.312   0.744   1.985  0.0810 -0.6386 -0.0275
 6879SOL    HW123175   5.367   0.673   2.019 -0.3692 -0.9442  0.0713
 6879SOL    HW223176   5.276   0.708   1.903  0.9243 -0.0187 -0.6862
 6880SOL     OW23177   6.944   6.703   5.931  0.1353  0.2935  0.4488
 6880SOL    HW123178   6.904   6.630   5.883  2.0274  1.0127 -2.3496
 6880SOL    HW223179   6.872   6.741   5.980 -1.7940 -0.8808 -1.3584
 6881SOL     OW23180   6.724   2.404   5.341 -0.0980 -0.1599 -0.5950
 6881SOL    HW123181   6.808   2.373   5.375 -0.4426 -1.0389 -0.5504
 6881SOL    HW223182   6.739   2.498   5.324  0.0655  0.3032  1.9493
 6882SOL     OW23183   3.560   2.681   2.980 -0.6160  0.1107 -0.5391
 6882SOL    HW123184   3.528   2.592   2.998  1.2068 -0.6629 -1.0405
 6882SOL    HW223185   3.526   2.733   3.053  0.0063 -1.3931  0.8708
 6883SOL     OW23186   6.689   7.092   2.066  0.1421 -0.6728 -0.0867
 6883SOL    HW123187   6.688   7.173   2.118  2.2841 -0.1884 -0.7289
 6883SOL    HW223188   6.609   7.096   2.014 -0.7735  0.0553  1.3418
 6884SOL     OW23189   2.388   3.478   0.827  0.5851 -0.1433 -0.7634
 6884SOL    HW123190   2.399   3.490   0.921 -1.4330 -0.6746 -0.4257
 6884SOL    HW223191   2.322   3.544   0.802 -1.0584 -1.8996 -1.2310
 6885SOL     OW23192   6.729   5.955   3.997  0.3202  0.1328  0.0086
 6885SOL    HW123193   6.759   5.882   4.051 -0.7625 -0.4413 -0.1401
 6885SOL    HW223194   6.638   5.970   4.025 -0.1360  0.0600 -1.3889
 6886SOL     OW23195   8.463   7.639   1.264  0.2386  0.6980  0.2146
 6886SOL    HW123196   8.446   7.589   1.184  0.2216  0.3477  0.4359
 6886SOL    HW223197   8.427   7.726   1.246  0.9114  0.8499 -0.4392
 6887SOL     OW23198   2.082   9.704   7.721  0.3054 -0.6626  0.2629
 6887SOL    HW123199   2.041   9.768   7.781  0.9962  0.5120 -0.4945
 6887SOL    HW223200   2.139   9.652   7.778 -0.7549 -1.0436  1.0032
 6888SOL     OW23201   0.799   7.944   4.308  0.0604 -0.4788 -0.5252
 6888SOL    HW123202   0.770   8.028   4.345  0.2432  0.0526 -1.5687
 6888SOL    HW223203   0.830   7.894   4.384 -0.8653  0.0635  0.2204
 6889SOL     OW23204   7.420   1.907   9.073 -0.6033  0.0102 -0.2541
 6889SOL    HW123205   7.461   1.883   8.989  2.0431 -1.0735  1.2650
 6889SOL    HW223206   7.466   1.853   9.138 -2.0624  1.4015  1.9921
 6890SOL     OW23207   2.987   2.174   8.328 -0.3477 -0.0557  0.0516
 6890SOL    HW123208   2.984   2.196   8.235 -1.2583 -2.5988 -0.5685
 6890SOL    HW223209   3.078   2.147   8.344 -0.2044  0.3351 -0.1032
 6891SOL     OW23210   5.430   2.875   4.466 -0.7434  0.5057  0.4652
 6891SOL    HW123211   5.340   2.906   4.478 -1.3677 -1.9319  2.4824
 6891SOL    HW223212   5.461   2.857   4.554  0.8456 -1.0801 -0.4020
 6892SOL     OW23213   9.304   8.080   3.663 -0.4683  0.1194 -0.1281
 6892SOL    HW123214   9.238   8.132   3.710 -1.6575 -0.2309 -1.3636
 6892SOL    HW223215   9.254   8.035   3.594  1.0036 -0.4841 -0.8213
 6893SOL     OW23216   4.808   2.238   6.969  0.0401  0.1047 -0.4651
 6893SOL    HW123217   4.768   2.233   6.882 -0.2832 -0.0938 -0.3079
 6893SOL    HW223218   4.898   2.265   6.952  0.2041 -0.7107 -0.9277
 6894SOL     OW23219   6.184   9.592   6.215  0.9967  0.1115 -0.1582
 6894SOL    HW123220   6.152   9.585   6.125  1.2081  0.0364 -0.2271
 6894SOL    HW223221   6.164   9.507   6.254 -1.1179  0.9033  0.5212
 6895SOL     OW23222   1.071   1.345   5.221  0.1892 -0.5432  0.0552
 6895SOL    HW123223   1.071   1.440   5.224  0.4302 -0.4923 -1.3121
 6895SOL    HW223224   1.095   1.323   5.131 -0.1037 -1.8923  0.2844
 6896SOL     OW23225   3.313   0.526   2.809  0.0548 -0.7833  0.5892
 6896SOL    HW123226   3.273   0.609   2.781 -1.2906 -1.3964  0.6537
 6896SOL    HW223227   3.400   0.551   2.841  0.6747  0.2414 -1.8242
 6897SOL     OW23228   8.167   7.133   4.628 -0.5194  0.3238 -0.3375
 6897SOL    HW123229   8.196   7.224   4.629 -1.8924  0.7687  1.6550
 6897SOL    HW223230   8.098   7.128   4.694 -0.2968 -2.2188 -0.2140
 6898SOL     OW23231   8.491   9.415   1.537  0.3002 -0.6848 -0.6315
 6898SOL    HW123232   8.499   9.320   1.529  0.5513 -0.5284 -2.4086
 6898SOL    HW223233   8.458   9.443   1.452  0.8543  0.8887 -0.3362
 6899SOL     OW23234   2.701   6.770   5.091 -0.0077 -0.1017 -0.3187
 6899SOL    HW123235   2.765   6.725   5.037 -0.0795 -1.9130  1.0703
 6899SOL    HW223236   2.625   6.712   5.092 -0.0527 -0.0589  1.6062
 6900SOL     OW23237   8.263   3.552   5.484 -0.5488  0.5927  0.3538
 6900SOL    HW123238   8.247   3.639   5.521  0.3694  0.8221  0.2333
 6900SOL    HW223239   8.272   3.568   5.390 -1.0684  0.2680  0.2480
 6901SOL     OW23240  10.079   3.933   5.435  1.0051  0.8997  0.6159
 6901SOL    HW123241  10.145   3.921   5.366  0.3087  1.3231 -0.1321
 6901SOL    HW223242  10.000   3.959   5.388  0.2981  0.3702  1.5122
 6902SOL     OW23243   9.455   1.325   4.416  0.3517  0.1160  0.1192
 6902SOL    HW123244   9.500   1.242   4.406  2.3983  1.0753  1.0454
 6902SOL    HW223245   9.404   1.316   4.497  0.5959 -0.2163  0.2312
 6903SOL     OW23246   6.805   2.172   5.753  0.2577  0.1372  0.2847
 6903SOL    HW123247   6.722   2.124   5.759 -1.0165  2.3249  0.6203
 6903SOL    HW223248   6.825   2.174   5.659  0.1641 -0.7601  0.2407
 6904SOL     OW23249   6.602   3.216   9.369 -0.1574 -0.6590  0.2035
 6904SOL    HW123250   6.681   3.258   9.335  0.0158 -2.4511 -1.6477
 6904SOL    HW223251   6.531   3.276   9.344  0.6256  1.2780  2.4347
 6905SOL     OW23252   6.691   2.437   8.728  0.1655 -0.0801  0.4232
 6905SOL    HW123253   6.601   2.433   8.760  0.0258 -0.9065 -0.0638
 6905SOL    HW223254   6.715   2.346   8.712  1.2454  0.0920  0.9676
 6906SOL     OW23255   6.645   6.370   7.579 -0.4478  0.2204  0.0531
 6906SOL    HW123256   6.568   6.417   7.612  1.3939  1.8116  2.2927
 6906SOL    HW223257   6.647   6.289   7.629 -0.5561  0.2576  0.1181
 6907SOL     OW23258   4.744   5.593   8.979 -0.1488  0.5654  0.0992
 6907SOL    HW123259   4.821   5.644   8.952  0.1710  0.5301  0.9166
 6907SOL    HW223260   4.722   5.627   9.066 -1.6779  1.2643 -0.5505
 6908SOL     OW23261   4.537   9.936   3.777 -0.2979 -0.1118  0.3087
 6908SOL    HW123262   4.558   9.964   3.687 -1.5780  0.7779  0.2651
 6908SOL    HW223263   4.471   9.868   3.766 -0.3583 -0.0949  0.5685
 6909SOL     OW23264   8.491   6.913  10.001 -0.7633  0.2967  0.1494
 6909SOL    HW123265   8.467   6.885   9.913 -3.0622 -1.9580  1.4541
 6909SOL    HW223266   8.529   6.835  10.041  2.2240  1.8539  0.5521
 6910SOL     OW23267   1.209   2.751   1.734  0.0043 -0.4645  0.2736
 6910SOL    HW123268   1.241   2.841   1.729  1.9476 -1.1203  0.4005
 6910SOL    HW223269   1.238   2.710   1.653 -0.3099 -1.1404  0.4985
 6911SOL     OW23270   4.490   6.397   6.404  0.1896 -0.3308 -0.3518
 6911SOL    HW123271   4.464   6.487   6.426  1.1201 -0.4223  1.1817
 6911SOL    HW223272   4.450   6.343   6.472 -0.2681 -1.0681 -1.2033
 6912SOL     OW23273   6.010   7.112   9.116 -0.5841 -0.3319 -0.2944
 6912SOL    HW123274   6.105   7.123   9.121 -0.6221  0.1475 -0.6384
 6912SOL    HW223275   5.985   7.081   9.203 -0.2604  0.6129  0.1318
 6913SOL     OW23276   9.124   9.723   4.474  0.2590 -0.3754  0.0842
 6913SOL    HW123277   9.038   9.760   4.494 -0.2604  0.1195 -2.8652
 6913SOL    HW223278   9.138   9.658   4.543 -1.7868  0.6295  1.4982
 6914SOL     OW23279   9.023   1.278   4.932 -0.2866  0.1988 -0.7555
 6914SOL    HW123280   9.020   1.188   4.900 -0.0940 -0.0152 -0.1733
 6914SOL    HW223281   9.014   1.271   5.027  0.6469  0.7247 -0.6160
 6915SOL     OW23282   9.877   5.862   3.899 -0.1508  0.2351  0.4983
 6915SOL    HW123283   9.849   5.776   3.867  1.3290  0.1032 -0.5095
 6915SOL    HW223284   9.929   5.898   3.827  0.5884  1.2854  1.5397
 6916SOL     OW23285   8.508   6.977   3.036  0.2176 -0.1779  0.0933
 6916SOL    HW123286   8.577   7.042   3.052  0.4065 -0.4112  0.2316
 6916SOL    HW223287   8.526   6.945   2.947 -0.3495  0.5292 -0.2809
 6917SOL     OW23288   6.231   2.118   5.765 -0.2533  0.2927 -0.2979
 6917SOL    HW123289   6.228   2.025   5.788  1.3976  0.4520  0.7338
 6917SOL    HW223290   6.281   2.121   5.683 -0.6256  0.2342 -0.5257
 6918SOL     OW23291   2.057   8.999   2.024  0.2475 -0.1671 -0.1545
 6918SOL    HW123292   2.090   9.008   2.114 -1.7345  0.1268  0.5624
 6918SOL    HW223293   1.995   8.927   2.029  0.7649 -0.7113 -1.4926
 6919SOL     OW23294   6.081   2.596   2.353  0.5383  0.4573  0.5496
 6919SOL    HW123295   6.056   2.652   2.427  1.8626  1.6120  0.1493
 6919SOL    HW223296   6.147   2.647   2.306  3.0086 -2.0869  1.0803
 6920SOL     OW23297   5.051   8.308   4.913  0.3469  0.1187  0.0699
 6920SOL    HW123298   4.966   8.337   4.881 -0.6867 -0.0442  2.5463
 6920SOL    HW223299   5.113   8.372   4.880 -0.8595  0.7049 -1.0614
 6921SOL     OW23300   1.129   0.309   9.352  0.2689 -0.3427  0.7344
 6921SOL    HW123301   1.134   0.298   9.257 -1.4289 -1.1046  0.7166
 6921SOL    HW223302   1.204   0.365   9.374  1.0756 -0.7290 -0.9529
 6922SOL     OW23303   7.259   4.151   5.146  0.2770 -0.5358  0.6488
 6922SOL    HW123304   7.296   4.194   5.069  0.8513  0.1138  1.2778
 6922SOL    HW223305   7.198   4.086   5.111  0.0020  0.2399 -0.3389
 6923SOL     OW23306   0.027   6.341   5.246 -0.0482  0.3105 -0.0211
 6923SOL    HW123307  -0.036   6.368   5.180 -0.8138 -0.3103  0.4434
 6923SOL    HW223308   0.042   6.248   5.229 -0.5622  0.0505  0.9289
 6924SOL     OW23309   9.612   8.655   8.137  0.4131  0.2771  0.6213
 6924SOL    HW123310   9.569   8.739   8.121  0.0143  0.2873  1.7180
 6924SOL    HW223311   9.628   8.654   8.232  0.8287 -0.6856  0.5445
 6925SOL     OW23312   4.545   4.331   3.369  0.3237  0.5014 -0.1987
 6925SOL    HW123313   4.602   4.396   3.331  0.6777 -0.8297 -2.0021
 6925SOL    HW223314   4.462   4.341   3.323  0.6624 -0.9227 -1.1432
 6926SOL     OW23315   4.016   7.591   5.005 -0.5404  0.1289  0.6240
 6926SOL    HW123316   3.975   7.605   5.090  2.0637 -2.9573  2.5001
 6926SOL    HW223317   3.977   7.509   4.973  0.4118 -0.1154  0.0791
 6927SOL     OW23318   0.918   8.634   3.764 -0.1909  0.7049 -0.6081
 6927SOL    HW123319   1.009   8.643   3.792 -0.0809 -0.9508 -0.4044
 6927SOL    HW223320   0.900   8.714   3.716  1.4544  0.9358 -0.8607
 6928SOL     OW23321   8.280   3.638   9.636 -0.3318  0.3991  0.2840
 6928SOL    HW123322   8.221   3.665   9.566 -0.6911  0.8168  0.7476
 6928SOL    HW223323   8.231   3.573   9.686  0.7860 -1.7061 -1.2615
 6929SOL     OW23324   2.385   7.444   3.695  0.0293 -0.1076  0.1396
 6929SOL    HW123325   2.301   7.487   3.710 -0.8204 -1.6730  0.0065
 6929SOL    HW223326   2.366   7.377   3.630  1.2165 -0.9930  0.6845
 6930SOL     OW23327   6.827   4.171   9.518  0.2824 -0.2860 -0.7056
 6930SOL    HW123328   6.754   4.230   9.501  0.6344  0.3350 -0.1178
 6930SOL    HW223329   6.893   4.226   9.560  0.6129 -1.0964 -0.1306
 6931SOL     OW23330   7.095   7.236   0.408  0.1998  0.6056  0.2378
 6931SOL    HW123331   7.124   7.325   0.428  1.3770  0.1870  0.3953
 6931SOL    HW223332   7.124   7.183   0.481 -1.7631  0.3096  0.8483
 6932SOL     OW23333   9.383   0.538   2.994  0.1195 -0.6655  0.0411
 6932SOL    HW123334   9.324   0.495   2.932 -1.8840  1.0226  0.7094
 6932SOL    HW223335   9.414   0.615   2.948  0.7851 -0.8530  0.1692
 6933SOL     OW23336   7.979   4.247   6.077 -0.1397 -0.1462 -0.0128
 6933SOL    HW123337   8.009   4.211   6.160  1.2419 -0.1657 -0.4966
 6933SOL    HW223338   7.884   4.249   6.084 -0.1425 -2.0765  0.7688
 6934SOL     OW23339   0.500   2.408   2.597  0.1269  0.3656  0.4846
 6934SOL    HW123340   0.480   2.360   2.677 -2.9835 -1.0006 -1.0062
 6934SOL    HW223341   0.462   2.495   2.610 -0.4829  0.1040  0.4432
 6935SOL     OW23342   7.058   1.871   7.297  0.6768  0.3099 -0.3827
 6935SOL    HW123343   7.112   1.936   7.341  0.5162  0.6541 -0.6896
 6935SOL    HW223344   6.970   1.908   7.298  0.5140 -0.0728 -0.2259
 6936SOL     OW23345   2.117   5.604   6.373 -0.4854 -0.0396 -0.0796
 6936SOL    HW123346   2.066   5.659   6.432 -2.8030 -2.0144 -0.1451
 6936SOL    HW223347   2.087   5.629   6.285 -0.0568  0.0365 -0.2031
 6937SOL     OW23348   0.162   0.691   1.233 -0.1597 -0.0644 -0.3450
 6937SOL    HW123349   0.085   0.635   1.221 -0.7616  0.4598  1.0424
 6937SOL    HW223350   0.134   0.758   1.295  0.8303  1.2649 -1.3081
 6938SOL     OW23351   0.217   7.786   5.335 -0.4151  0.0753  0.1499
 6938SOL    HW123352   0.277   7.790   5.261 -0.7974 -1.0133 -0.2232
 6938SOL    HW223353   0.272   7.766   5.411 -0.3010 -0.8464 -0.1780
 6939SOL     OW23354   2.632   6.848   9.222 -0.4404  0.2038  0.6058
 6939SOL    HW123355   2.547   6.828   9.182 -0.1020 -0.0427 -0.0126
 6939SOL    HW223356   2.692   6.855   9.147  0.3006 -0.6930  1.0897
 6940SOL     OW23357   3.536   7.816   3.897  0.5678  0.0888 -0.6292
 6940SOL    HW123358   3.591   7.884   3.938 -0.6273 -0.9137  2.7618
 6940SOL    HW223359   3.485   7.863   3.831  1.2472  2.0895  0.2375
 6941SOL     OW23360   3.226   3.888   2.354 -0.7618  0.1964 -0.0236
 6941SOL    HW123361   3.160   3.886   2.424 -2.6142  2.3628 -1.6572
 6941SOL    HW223362   3.222   3.800   2.316 -2.3163  0.1130  0.2732
 6942SOL     OW23363   0.745   3.616   8.362 -0.2841 -0.6701  0.1605
 6942SOL    HW123364   0.741   3.528   8.399  0.8453 -0.7274  0.1534
 6942SOL    HW223365   0.665   3.624   8.311 -0.4009 -1.6865  0.1855
 6943SOL     OW23366   2.199   8.837   9.048  0.1147 -0.6071  0.1846
 6943SOL    HW123367   2.274   8.894   9.030 -0.1496 -0.5794 -0.8489
 6943SOL    HW223368   2.187   8.843   9.143 -0.8146  2.2013 -0.0585
 6944SOL     OW23369   8.422   6.469   1.242  0.6543  0.0818 -0.0365
 6944SOL    HW123370   8.354   6.438   1.182 -0.0404  0.3052  0.6234
 6944SOL    HW223371   8.486   6.512   1.185  1.5137 -2.3027 -0.9399
 6945SOL     OW23372   6.408   3.159   3.667  0.7224 -0.3941 -0.1217
 6945SOL    HW123373   6.366   3.075   3.688 -1.0734  0.6290  0.5329
 6945SOL    HW223374   6.394   3.168   3.573  1.0024 -0.8750 -0.2123
 6946SOL     OW23375   8.312   6.705   7.234 -0.5856 -0.0278 -0.1670
 6946SOL    HW123376   8.240   6.686   7.295 -0.9122  1.2890 -0.1301
 6946SOL    HW223377   8.287   6.787   7.193  0.4747 -0.0268 -0.8169
 6947SOL     OW23378   3.284   4.633   2.536  0.0694 -0.0183 -0.4413
 6947SOL    HW123379   3.271   4.560   2.597 -0.0904  1.6218  1.5392
 6947SOL    HW223380   3.221   4.616   2.466 -1.5632 -0.6109  1.1132
 6948SOL     OW23381   3.378   5.186   4.357  0.3741  0.3225  0.1883
 6948SOL    HW123382   3.345   5.275   4.347  2.4209  0.9930 -0.7228
 6948SOL    HW223383   3.356   5.163   4.448 -2.8023  0.6093 -0.4424
 6949SOL     OW23384   4.830   7.727   4.131  0.1064 -0.4826  0.5432
 6949SOL    HW123385   4.877   7.645   4.118 -0.8586 -0.8952 -0.3817
 6949SOL    HW223386   4.853   7.781   4.056  0.7715  0.1174  1.1688
 6950SOL     OW23387   5.017   5.736   1.426 -0.4820  0.3701  0.2748
 6950SOL    HW123388   4.991   5.764   1.339 -1.3447  1.6466  0.9391
 6950SOL    HW223389   4.983   5.646   1.433 -0.6855  0.3750 -0.5779
 6951SOL     OW23390   4.041   5.588   4.605 -0.4208 -0.5414 -0.3466
 6951SOL    HW123391   4.038   5.501   4.567 -0.8102 -0.2400 -1.0156
 6951SOL    HW223392   4.133   5.601   4.630 -0.2758 -0.9655 -0.6638
 6952SOL     OW23393   6.801   3.401   4.519 -0.0114 -0.2545 -0.1761
 6952SOL    HW123394   6.833   3.311   4.520 -1.4592 -0.7889  0.8796
 6952SOL    HW223395   6.782   3.421   4.610 -0.4137  0.8562 -0.4921
 6953SOL     OW23396   2.129   6.290   6.969 -0.1123 -0.0142  0.2095
 6953SOL    HW123397   2.180   6.210   6.985 -1.1325 -0.3768  1.8130
 6953SOL    HW223398   2.177   6.336   6.900  0.8193 -1.7169 -0.3126
 6954SOL     OW23399   2.003   7.797   0.524  0.1676 -0.3748  0.0970
 6954SOL    HW123400   2.084   7.787   0.574  1.4135  0.5606 -1.6448
 6954SOL    HW223401   2.008   7.728   0.458 -0.0465  0.1915 -0.5172
 6955SOL     OW23402   9.543   2.818   2.138 -0.0076 -0.0753  0.0459
 6955SOL    HW123403   9.594   2.823   2.219 -0.7249  1.2850  0.4294
 6955SOL    HW223404   9.476   2.752   2.157 -0.3798  0.4753  0.6835
 6956SOL     OW23405   6.281   4.525   6.872 -0.2174 -0.2754 -0.1419
 6956SOL    HW123406   6.332   4.600   6.902  1.3905 -0.5018 -2.2024
 6956SOL    HW223407   6.192   4.558   6.864  0.3541  1.2483 -0.3804
 6957SOL     OW23408   1.987   5.421   5.417 -0.3139  0.0036 -0.3214
 6957SOL    HW123409   2.048   5.493   5.401  0.3428 -0.8913 -1.8885
 6957SOL    HW223410   1.947   5.405   5.332 -1.1808 -0.8346  0.2445
 6958SOL     OW23411  10.029   7.183   9.513  0.5912 -0.3735  0.7029
 6958SOL    HW123412  10.057   7.168   9.603  2.5263 -0.2593  0.1455
 6958SOL    HW223413   9.948   7.233   9.521  1.0486  0.1346  2.3749
 6959SOL     OW23414   0.436   4.257   1.773  0.3528  0.3654 -0.3891
 6959SOL    HW123415   0.428   4.349   1.747  1.5240  0.3893 -0.6782
 6959SOL    HW223416   0.521   4.230   1.740 -0.0680 -0.8858 -0.4541
 6960SOL     OW23417   5.355   2.585   7.725 -0.3753  0.1107  0.6151
 6960SOL    HW123418   5.294   2.578   7.799 -1.6469 -0.7153 -0.4913
 6960SOL    HW223419   5.438   2.553   7.759 -1.2390 -1.3664  1.3605
 6961SOL     OW23420   2.959   1.250   2.329 -0.4016  0.4892 -0.2130
 6961SOL    HW123421   3.002   1.322   2.377  0.0064  0.7197 -0.9169
 6961SOL    HW223422   2.986   1.171   2.376  0.1331  0.6992 -0.1600
 6962SOL     OW23423   4.641   8.239   3.772 -0.3681 -0.6720  0.2147
 6962SOL    HW123424   4.576   8.309   3.765 -1.1162 -1.4303 -0.4871
 6962SOL    HW223425   4.712   8.264   3.713 -0.7391 -0.6161 -0.2039
 6963SOL     OW23426   9.875   2.273   6.264  0.0295  0.7435 -0.1685
 6963SOL    HW123427   9.946   2.268   6.199  0.3221 -1.7774  0.2932
 6963SOL    HW223428   9.796   2.250   6.215  0.2491 -1.1589  0.3329
 6964SOL     OW23429   4.032   9.064   6.280  0.3743 -0.5270 -0.0247
 6964SOL    HW123430   4.097   9.053   6.350  2.4219  0.1790 -1.7576
 6964SOL    HW223431   4.014   8.975   6.250  0.2236 -0.7603  0.7519
 6965SOL     OW23432   4.510   0.769   6.870 -0.1222 -0.7272  0.2181
 6965SOL    HW123433   4.539   0.835   6.807  1.0877 -1.7493 -0.3054
 6965SOL    HW223434   4.535   0.805   6.955 -0.9770  0.2572  0.0573
 6966SOL     OW23435   5.562   1.726   9.697 -0.2037  0.3735 -0.1179
 6966SOL    HW123436   5.560   1.724   9.602 -2.4079  0.6447 -0.1132
 6966SOL    HW223437   5.469   1.728   9.723  0.3224 -1.1881  2.0550
 6967SOL     OW23438   9.492   2.710   8.961  0.4980  0.6648  0.0604
 6967SOL    HW123439   9.472   2.798   8.992  0.4426  0.5475  0.3621
 6967SOL    HW223440   9.499   2.719   8.866 -1.3177  0.6478 -0.0988
 6968SOL     OW23441   7.085   0.588   8.613 -0.0128  0.4322  0.1793
 6968SOL    HW123442   7.150   0.534   8.567  1.2708  2.1200 -0.0455
 6968SOL    HW223443   7.096   0.565   8.705 -0.3140 -0.5696 -0.0309
 6969SOL     OW23444   7.942   1.477   7.907  0.2538  0.3686  0.1402
 6969SOL    HW123445   7.924   1.475   8.001  0.1813  0.6046  0.1289
 6969SOL    HW223446   7.858   1.496   7.866  0.7965  2.8995  0.1681
 6970SOL     OW23447   2.592   6.437   4.883 -0.8190  0.2267  0.1063
 6970SOL    HW123448   2.672   6.387   4.866 -0.9607  0.1359 -0.2971
 6970SOL    HW223449   2.561   6.462   4.796 -0.4625  1.4683  0.3331
 6971SOL     OW23450   2.398   2.260   9.753  0.0471  0.0544 -0.6534
 6971SOL    HW123451   2.303   2.260   9.741 -0.4091  0.5806  2.4948
 6971SOL    HW223452   2.414   2.325   9.822  2.5888 -0.7159 -0.4610
 6972SOL     OW23453   2.072   0.992   0.114  0.0039 -0.0217 -0.0854
 6972SOL    HW123454   1.998   1.013   0.056 -1.0384  0.1538  1.2769
 6972SOL    HW223455   2.103   1.077   0.144  0.0674 -0.1467  0.2018
 6973SOL     OW23456   4.657   5.694   5.172 -0.1204  0.4638  0.0919
 6973SOL    HW123457   4.613   5.779   5.168 -0.3510  0.3338 -0.1691
 6973SOL    HW223458   4.696   5.691   5.260  1.5823  1.6658 -0.6104
 6974SOL     OW23459   0.089   7.398   8.487  0.0939 -0.0148 -0.1898
 6974SOL    HW123460   0.020   7.430   8.429 -1.1092 -0.3183  1.0624
 6974SOL    HW223461   0.136   7.334   8.434 -0.1679  0.6653 -1.2701
 6975SOL     OW23462   6.630   8.067   0.282  0.1220 -0.7394  0.2967
 6975SOL    HW123463   6.592   8.110   0.206  1.1458  0.4267  0.4249
 6975SOL    HW223464   6.588   7.981   0.285 -2.6894  0.6037  0.6058
 6976SOL     OW23465   3.007   8.463   9.917 -0.2133 -0.0796 -0.4726
 6976SOL    HW123466   3.006   8.440  10.010  0.2150  2.5299  0.2203
 6976SOL    HW223467   2.944   8.403   9.877  1.0977 -2.6054  1.1400
 6977SOL     OW23468   0.382   9.555   8.980  0.1346  0.1571  0.6277
 6977SOL    HW123469   0.320   9.486   8.956  0.6517 -0.2460  0.4427
 6977SOL    HW223470   0.341   9.599   9.054 -0.2105 -0.3341  0.7321
 6978SOL     OW23471   9.138   0.876   3.493 -0.2505  0.3272  0.2749
 6978SOL    HW123472   9.054   0.877   3.448  0.0275 -0.6114 -0.2856
 6978SOL    HW223473   9.191   0.815   3.442  0.9872  1.4258  0.2214
 6979SOL     OW23474   5.946   1.959   6.891  0.7420 -0.3289 -0.3793
 6979SOL    HW123475   5.945   2.054   6.881 -1.0846 -0.3914 -0.9384
 6979SOL    HW223476   6.007   1.943   6.964  0.6209  1.2981  0.0869
 6980SOL     OW23477   5.330   1.185   0.255 -0.3425 -0.3362 -0.1021
 6980SOL    HW123478   5.248   1.231   0.236  1.2699  2.1044 -1.3766
 6980SOL    HW223479   5.356   1.148   0.171  0.5660  0.1007 -0.0165
 6981SOL     OW23480   4.512   1.279   5.809 -0.4420 -0.1973 -0.0146
 6981SOL    HW123481   4.588   1.222   5.806  0.1615  0.5662  0.5751
 6981SOL    HW223482   4.532   1.343   5.878 -0.0641  2.1746 -2.2522
 6982SOL     OW23483   4.988   6.060   0.905  0.4377  0.0559 -0.0062
 6982SOL    HW123484   4.907   6.053   0.956 -0.8783 -0.0759 -2.0773
 6982SOL    HW223485   5.031   5.975   0.915  1.2903  0.7330  2.6130
 6983SOL     OW23486   3.203   2.477   2.962 -0.1889 -0.0172 -0.2158
 6983SOL    HW123487   3.209   2.571   2.983 -0.5890  0.1201 -0.7102
 6983SOL    HW223488   3.293   2.446   2.968  0.2804  0.8693 -2.1713
 6984SOL     OW23489   5.112   9.890   5.998  0.0684 -0.1335  0.2380
 6984SOL    HW123490   5.166   9.846   5.932 -0.7625  1.0841 -1.2917
 6984SOL    HW223491   5.039   9.831   6.013  0.0589 -0.2425 -0.2279
 6985SOL     OW23492   5.831   7.236   3.233  0.4442 -0.4362 -0.6899
 6985SOL    HW123493   5.778   7.191   3.299 -0.7042  1.5299 -0.2426
 6985SOL    HW223494   5.917   7.244   3.275  0.4147 -1.3932 -0.4219
 6986SOL     OW23495   0.040   2.760   7.180  0.3555 -0.2852  0.0597
 6986SOL    HW123496   0.042   2.664   7.180  0.4111 -0.2849 -0.4937
 6986SOL    HW223497   0.027   2.784   7.088  2.5698  0.2755 -0.1325
 6987SOL     OW23498   5.474   3.320   2.152 -0.4448 -0.3048  0.0421
 6987SOL    HW123499   5.460   3.330   2.246 -2.2692 -2.0716 -0.0117
 6987SOL    HW223500   5.547   3.378   2.132 -0.4315  0.5390  2.4415
 6988SOL     OW23501   4.795   4.303   1.115  1.1292 -0.2031  0.1326
 6988SOL    HW123502   4.819   4.395   1.120  1.4438 -0.2322 -0.6960
 6988SOL    HW223503   4.708   4.302   1.076  1.4196 -0.2850 -0.5250
 6989SOL     OW23504   1.160   9.623   9.958 -0.0676  0.1298 -0.2870
 6989SOL    HW123505   1.234   9.613  10.019 -0.6791  1.8238  0.7708
 6989SOL    HW223506   1.119   9.536   9.956  0.5260 -0.2006  0.9943
 6990SOL     OW23507   9.003   7.136   0.225 -0.0123 -0.4437  0.2305
 6990SOL    HW123508   8.938   7.197   0.258 -0.1586  0.0212 -0.9044
 6990SOL    HW223509   9.026   7.169   0.138 -1.9676 -3.3526 -1.4851
 6991SOL     OW23510   6.165   4.904   0.257 -0.2348 -0.1082 -0.3338
 6991SOL    HW123511   6.218   4.983   0.261  0.8590 -0.7805 -1.2718
 6991SOL    HW223512   6.139   4.896   0.165  0.0037 -1.0431 -0.3327
 6992SOL     OW23513   4.506   9.781   5.701  0.3704  0.9004  0.5543
 6992SOL    HW123514   4.544   9.797   5.787 -0.2386  0.3278  0.9400
 6992SOL    HW223515   4.445   9.708   5.715  1.0247  0.1104 -0.5618
 6993SOL     OW23516   8.207   0.695   0.385  0.3227  0.3588 -0.7001
 6993SOL    HW123517   8.116   0.670   0.400  0.3336  0.6623 -0.1214
 6993SOL    HW223518   8.238   0.635   0.317  0.1089 -0.6601  0.0840
 6994SOL     OW23519   0.283   0.846   8.033  0.0525 -0.4146 -0.1417
 6994SOL    HW123520   0.244   0.769   8.074 -0.5608  0.2129  0.4708
 6994SOL    HW223521   0.328   0.812   7.956  0.2580 -1.4557  0.4284
 6995SOL     OW23522  10.181   2.137   6.545  0.5389 -0.2005 -0.0830
 6995SOL    HW123523  10.129   2.214   6.569  0.4179 -0.8185  1.6818
 6995SOL    HW223524  10.263   2.173   6.513  0.1719  0.6928 -0.0495
 6996SOL     OW23525   8.215  10.067   2.737 -0.0462 -0.2778 -0.1714
 6996SOL    HW123526   8.134  10.072   2.687 -1.5619 -1.8731  2.0394
 6996SOL    HW223527   8.202  10.127   2.811  0.3801 -1.2584  0.7147
 6997SOL     OW23528   5.143   8.450   1.988 -0.0320 -0.2940 -0.0863
 6997SOL    HW123529   5.168   8.541   2.000  0.7003 -0.6406  1.2096
 6997SOL    HW223530   5.051   8.453   1.963  0.1876  0.8281 -0.7685
 6998SOL     OW23531   9.841   0.347   4.471  0.1556 -0.3080 -0.2452
 6998SOL    HW123532   9.833   0.432   4.514  0.7953 -0.2021 -0.3300
 6998SOL    HW223533   9.906   0.361   4.402  2.1643 -1.4888  1.3404
 6999SOL     OW23534   2.228   5.925   7.447  0.4379  0.4140  0.5686
 6999SOL    HW123535   2.251   6.018   7.443  2.6732 -0.1733 -0.4419
 6999SOL    HW223536   2.285   5.883   7.384 -0.5706 -1.6753  1.0085
 7000SOL     OW23537   6.393   0.003   9.310 -0.1822 -0.1827  0.5607
 7000SOL    HW123538   6.379   0.051   9.229 -0.2834 -0.6111  0.3224
 7000SOL    HW223539   6.424   0.068   9.373 -3.2506  0.8299  1.1169
 7001SOL     OW23540   2.393   7.125   2.917 -0.2550  0.2854  0.4029
 7001SOL    HW123541   2.363   7.160   3.001 -0.9048  2.5835 -0.7402
 7001SOL    HW223542   2.486   7.145   2.914  0.0062 -0.8225  1.0630
 7002SOL     OW23543   7.626   0.339   4.878  0.2560  0.1965  0.4561
 7002SOL    HW123544   7.596   0.301   4.795  1.2762  1.7348 -0.6389
 7002SOL    HW223545   7.721   0.344   4.869  0.3913  0.2345  1.7928
 7003SOL     OW23546   2.093   2.897   1.586  0.3236  0.3221  0.4112
 7003SOL    HW123547   2.112   2.970   1.645 -2.5388  0.2850  1.4584
 7003SOL    HW223548   2.018   2.853   1.626 -0.1409 -1.1637 -1.9898
 7004SOL     OW23549   0.191   8.918   4.989 -0.1576 -0.3499  0.3509
 7004SOL    HW123550   0.160   8.889   5.075 -1.0630  1.9455  0.8423
 7004SOL    HW223551   0.265   8.976   5.009 -0.0943 -0.1578 -0.4330
 7005SOL     OW23552   9.080   3.452   9.265  0.1609 -0.3891  0.7955
 7005SOL    HW123553   9.136   3.382   9.298  0.3564  0.2429  1.7992
 7005SOL    HW223554   9.121   3.533   9.296 -0.4097  0.1480  0.1640
 7006SOL     OW23555   4.898   6.704   2.122 -0.4485 -0.1728 -0.3142
 7006SOL    HW123556   4.807   6.682   2.139 -0.3446 -0.0392  0.4438
 7006SOL    HW223557   4.940   6.701   2.209 -0.1052  1.5021 -0.4029
 7007SOL     OW23558   0.953   7.641   6.355 -0.3162  0.0284  0.0348
 7007SOL    HW123559   0.947   7.678   6.443  1.4671  1.2199 -0.3199
 7007SOL    HW223560   0.893   7.693   6.302 -0.7777 -0.1559  0.3782
 7008SOL     OW23561  10.153   2.097   7.107 -0.0900 -0.2977 -0.4742
 7008SOL    HW123562  10.248   2.091   7.118  0.1091  1.4019 -1.1292
 7008SOL    HW223563  10.133   2.031   7.041  0.4977 -1.3426  0.3764
 7009SOL     OW23564   0.515   0.826   9.551 -0.4485  0.1635 -0.1466
 7009SOL    HW123565   0.567   0.818   9.471 -0.8975 -0.7229 -0.3577
 7009SOL    HW223566   0.425   0.838   9.520 -0.7375 -1.0012  0.2220
 7010SOL     OW23567   6.077   6.327   9.911  0.2417  0.1041  0.1770
 7010SOL    HW123568   5.985   6.302   9.912  0.6096 -1.2938  0.4473
 7010SOL    HW223569   6.080   6.411   9.957 -0.9111  0.2163  0.0569
 7011SOL     OW23570   8.088   9.600   7.131 -0.5867  0.3766  0.0953
 7011SOL    HW123571   8.170   9.644   7.110 -1.4234  0.5511 -2.9169
 7011SOL    HW223572   8.038   9.664   7.182  0.1984  1.0955 -0.0415
 7012SOL     OW23573   9.828   0.635   6.192 -0.3308  0.4971  0.1767
 7012SOL    HW123574   9.780   0.703   6.237 -0.3290  2.4335 -2.6039
 7012SOL    HW223575   9.765   0.596   6.131  1.0232  1.7288 -2.0971
 7013SOL     OW23576   6.013   7.535   2.936 -0.0453 -0.4088  0.5446
 7013SOL    HW123577   6.080   7.504   2.875  0.8076  0.4711  1.0251
 7013SOL    HW223578   5.973   7.611   2.893 -1.2792 -1.3932 -0.0819
 7014SOL     OW23579   7.930   0.057   9.363  0.3366 -0.3793 -0.0989
 7014SOL    HW123580   7.841   0.088   9.344  0.3882 -0.6354 -0.7580
 7014SOL    HW223581   7.935   0.057   9.459  0.4446  1.9836 -0.0712
 7015SOL     OW23582   6.055   9.791   4.923  0.6210 -0.3464  0.4227
 7015SOL    HW123583   6.071   9.702   4.954 -1.5206 -0.2037  2.0511
 7015SOL    HW223584   6.073   9.787   4.829  1.8490 -2.1540  0.7029
 7016SOL     OW23585   0.171   2.211   2.553 -0.5495  0.3810  0.1716
 7016SOL    HW123586   0.173   2.296   2.509 -1.1084  0.1278 -0.3619
 7016SOL    HW223587   0.146   2.232   2.643 -1.5946  0.7069 -0.1816
 7017SOL     OW23588   5.705   9.342   8.666  0.1129  0.2058 -0.0823
 7017SOL    HW123589   5.668   9.368   8.582  0.7650  1.4997  0.0232
 7017SOL    HW223590   5.771   9.276   8.644 -2.7555 -2.7542 -0.2061
 7018SOL     OW23591   7.733   7.393   5.864  0.0613  0.3323 -0.6592
 7018SOL    HW123592   7.656   7.336   5.858  0.0434  0.3440 -0.5480
 7018SOL    HW223593   7.744   7.427   5.775 -0.5929  1.0165 -0.4851
 7019SOL     OW23594   0.045   0.616   7.472 -0.3047  0.1965  0.9702
 7019SOL    HW123595   0.022   0.564   7.395 -0.2765  0.0479  1.0617
 7019SOL    HW223596  -0.023   0.594   7.537  0.1141 -0.2731  1.2532
 7020SOL     OW23597   0.315   9.467   1.871  0.2951  0.1560 -0.4176
 7020SOL    HW123598   0.348   9.380   1.849  0.4005  0.4051 -1.2367
 7020SOL    HW223599   0.221   9.461   1.855  0.2677  0.1234 -0.2467
 7021SOL     OW23600   7.256   0.751   6.001  0.0429 -0.4141  0.4928
 7021SOL    HW123601   7.196   0.684   5.969  0.6040  0.0456 -1.5817
 7021SOL    HW223602   7.280   0.721   6.089 -1.6066 -1.6485  0.5610
 7022SOL     OW23603   7.203   7.670   3.073 -0.0900  0.0161  0.4436
 7022SOL    HW123604   7.261   7.627   3.010  1.2108  1.6959  0.4649
 7022SOL    HW223605   7.250   7.666   3.156 -1.1919 -0.9560  1.0356
 7023SOL     OW23606   9.992   2.700   3.011 -0.5309 -0.0404 -0.0142
 7023SOL    HW123607   9.910   2.680   3.055 -0.6126  2.6288  1.1674
 7023SOL    HW223608  10.057   2.642   3.052 -1.4309 -0.6893  0.4990
 7024SOL     OW23609   8.850   3.218   7.202  0.0694 -0.6708 -0.2939
 7024SOL    HW123610   8.792   3.142   7.208  0.2653 -0.7648  0.4078
 7024SOL    HW223611   8.791   3.292   7.188 -0.4546 -0.3906  2.9603
 7025SOL     OW23612   2.140   9.787   0.536  0.0650 -0.5413 -0.0377
 7025SOL    HW123613   2.116   9.783   0.443 -0.2535 -0.7253  0.0499
 7025SOL    HW223614   2.074   9.733   0.580 -0.0113 -0.1428  0.3429
 7026SOL     OW23615   3.816   9.717   3.486  0.1371  0.1677 -0.6521
 7026SOL    HW123616   3.883   9.783   3.503  2.6587 -2.6149  0.7573
 7026SOL    HW223617   3.858   9.655   3.426 -1.6864 -0.8530 -0.9142
 7027SOL     OW23618   5.019   3.965   0.625 -0.1193 -0.0386  0.0915
 7027SOL    HW123619   5.046   4.041   0.677  1.2815  0.0214 -0.7067
 7027SOL    HW223620   4.924   3.961   0.636 -0.0252  0.9299  1.3567
 7028SOL     OW23621   4.348   9.363   2.311 -0.0805  0.2714 -0.4018
 7028SOL    HW123622   4.363   9.292   2.373  0.6789 -1.2996 -2.3068
 7028SOL    HW223623   4.274   9.335   2.258 -0.5441  1.4464 -0.4007
 7029SOL     OW23624   5.152   3.381  10.012  0.0514  0.1748  0.4322
 7029SOL    HW123625   5.109   3.316   9.957 -0.2408  0.0109  0.8545
 7029SOL    HW223626   5.080   3.435  10.045  0.0892 -0.6479  1.8555
 7030SOL     OW23627   1.393   3.848   0.354 -0.2337  0.4878 -0.1189
 7030SOL    HW123628   1.404   3.754   0.369  0.9326  0.4103 -1.3254
 7030SOL    HW223629   1.333   3.876   0.423 -1.7601 -1.4038 -0.6196
 7031SOL     OW23630   0.285   0.042   5.451 -0.2838 -0.0122 -0.0932
 7031SOL    HW123631   0.293   0.048   5.546  0.1716 -2.2802  0.0324
 7031SOL    HW223632   0.375   0.045   5.419 -0.4356  0.7498 -0.4652
 7032SOL     OW23633   7.718   4.585   6.772  0.1933  0.0044  0.8767
 7032SOL    HW123634   7.788   4.624   6.719  0.3744 -0.2191  0.9513
 7032SOL    HW223635   7.684   4.658   6.824  0.3161  0.1295  0.7824
 7033SOL     OW23636   0.631   0.318   6.332 -0.1255  0.2954 -0.2021
 7033SOL    HW123637   0.543   0.300   6.364  0.4066  0.5196  1.3970
 7033SOL    HW223638   0.676   0.234   6.337 -0.2969  0.1365 -1.2089
 7034SOL     OW23639   9.418   8.670   9.034 -0.5444  0.1608  0.4690
 7034SOL    HW123640   9.435   8.620   9.114  1.2585  0.9697  0.6161
 7034SOL    HW223641   9.354   8.736   9.060  0.6113  0.9178  1.4489
 7035SOL     OW23642   1.476   9.505   5.234 -0.5824 -0.1096 -0.1910
 7035SOL    HW123643   1.571   9.498   5.243 -0.6482 -1.0048 -0.1253
 7035SOL    HW223644   1.462   9.535   5.144 -0.2898 -1.5590 -0.7279
 7036SOL     OW23645   7.092   2.320   5.013  0.2637  0.2385 -0.2839
 7036SOL    HW123646   7.074   2.231   5.046  0.9368  0.5757  1.0486
 7036SOL    HW223647   7.007   2.352   4.983 -0.4150 -0.0538  1.2777
 7037SOL     OW23648   4.018   6.058   1.142 -0.2398  0.0329 -0.0974
 7037SOL    HW123649   4.068   5.991   1.189 -1.4978 -1.3477 -0.6901
 7037SOL    HW223650   4.009   6.023   1.053 -0.1403  1.4181 -0.6699
 7038SOL     OW23651   7.921   4.200   8.130  0.3852  0.2186  0.1264
 7038SOL    HW123652   7.906   4.275   8.188  1.4954  0.5267  0.0262
 7038SOL    HW223653   7.988   4.230   8.069  0.2694 -0.6011 -0.4106
 7039SOL     OW23654   9.125   9.274   4.453 -0.1432 -0.3199 -0.5150
 7039SOL    HW123655   9.054   9.231   4.405  0.5952 -1.5274 -0.5608
 7039SOL    HW223656   9.156   9.207   4.514  0.5960  0.3754 -0.1247
 7040SOL     OW23657   2.548  10.182   6.920 -0.3302  0.0428 -0.2061
 7040SOL    HW123658   2.505  10.251   6.870 -1.2223 -2.3205 -2.8719
 7040SOL    HW223659   2.641  10.192   6.901  0.0643  3.0885  2.8807
 7041SOL     OW23660   2.866   1.730   6.830  0.3276  0.0041  0.2634
 7041SOL    HW123661   2.783   1.701   6.867  0.3061 -0.5368 -0.2114
 7041SOL    HW223662   2.903   1.653   6.789  0.7985  0.3813 -0.0303
 7042SOL     OW23663   6.141   9.953   8.779 -0.7059 -0.5377 -0.2502
 7042SOL    HW123664   6.083   9.935   8.853 -0.2595  1.8557  0.7349
 7042SOL    HW223665   6.192  10.029   8.807  1.6009 -1.4624 -1.8383
 7043SOL     OW23666   0.742   0.779   6.925  0.0117 -0.0439  0.2962
 7043SOL    HW123667   0.719   0.824   7.007  0.8182 -0.1555  0.5982
 7043SOL    HW223668   0.697   0.828   6.857 -1.5355 -0.5918  0.9050
 7044SOL     OW23669   9.100   2.120   1.370 -0.2916  0.5734  0.1284
 7044SOL    HW123670   9.189   2.157   1.373 -0.6728  1.4395  0.9421
 7044SOL    HW223671   9.095   2.064   1.447 -0.0478 -0.4313 -0.5746
 7045SOL     OW23672   4.889   0.998   6.379  0.3123 -0.2077 -0.3267
 7045SOL    HW123673   4.975   1.036   6.395  0.8301 -0.3215 -2.6676
 7045SOL    HW223674   4.907   0.912   6.341 -0.8317 -0.4976 -0.2301
 7046SOL     OW23675   8.208   9.760   3.533 -0.1232  0.1511 -0.8271
 7046SOL    HW123676   8.229   9.853   3.539 -0.3802  0.1801 -0.3129
 7046SOL    HW223677   8.184   9.747   3.442 -0.3513  0.6492 -0.8416
 7047SOL     OW23678   3.043   4.252   1.371 -0.0879 -0.0221 -0.1594
 7047SOL    HW123679   3.033   4.241   1.466  0.8500  0.4124 -0.0049
 7047SOL    HW223680   2.968   4.205   1.334 -2.4175  2.6611  0.9230
 7048SOL     OW23681   8.284   7.012   0.482 -0.8351 -0.3707  0.2362
 7048SOL    HW123682   8.230   7.050   0.413 -0.1854 -0.5453 -0.3752
 7048SOL    HW223683   8.300   6.922   0.452 -0.8641 -0.5644  0.7989
 7049SOL     OW23684   7.983   4.775   2.837 -0.5321  0.2298  0.1443
 7049SOL    HW123685   7.955   4.826   2.914  0.9899  2.2052 -0.5655
 7049SOL    HW223686   8.069   4.742   2.861  0.2008  1.3426 -0.9154
 7050SOL     OW23687   9.508   9.846   2.862 -0.3935  0.4186 -0.5940
 7050SOL    HW123688   9.571   9.835   2.791 -1.7913  1.6094 -2.0664
 7050SOL    HW223689   9.426   9.871   2.818 -2.1526 -1.9774  1.1692
 7051SOL     OW23690   1.973  10.172   0.283  0.5324  0.1397  0.5368
 7051SOL    HW123691   1.894  10.220   0.310  0.8188 -0.0298  1.6732
 7051SOL    HW223692   2.035  10.241   0.260  0.0640  0.2747 -0.3779
 7052SOL     OW23693   6.786   6.505   5.829  0.3468  0.4874  0.3482
 7052SOL    HW123694   6.712   6.472   5.777  0.8623  2.5251 -1.7425
 7052SOL    HW223695   6.856   6.441   5.814 -0.0774  0.0972  0.0197
 7053SOL     OW23696   5.964   7.383   9.410 -0.0988  0.3227  0.4605
 7053SOL    HW123697   6.037   7.387   9.349 -1.6741 -0.3370 -1.5406
 7053SOL    HW223698   5.960   7.470   9.450  0.4767  1.0315 -0.9911
 7054SOL     OW23699   4.093   0.471   3.914  0.1501  0.1287  0.2065
 7054SOL    HW123700   4.158   0.540   3.902  0.2999  0.0203  0.3857
 7054SOL    HW223701   4.112   0.407   3.846 -0.6246  0.7502 -0.5989
 7055SOL     OW23702   3.429   2.384   2.173  0.7195  0.1003 -0.2415
 7055SOL    HW123703   3.516   2.394   2.213  0.1307 -0.7451  1.3243
 7055SOL    HW223704   3.369   2.416   2.241 -0.1761  0.9488 -1.4271
 7056SOL     OW23705   7.173   5.616   7.843 -0.6559  0.4172 -0.3754
 7056SOL    HW123706   7.251   5.624   7.898 -0.9664 -1.5983  0.4090
 7056SOL    HW223707   7.144   5.706   7.828  1.2207  1.1302  0.1804
 7057SOL     OW23708   5.105   0.370   2.463 -0.2225 -0.2920  0.3455
 7057SOL    HW123709   5.011   0.356   2.452 -0.2427  0.5417 -0.6895
 7057SOL    HW223710   5.145   0.328   2.387  0.1583  0.2387  0.2484
 7058SOL     OW23711   1.164   0.509   7.452  0.2453 -0.5322 -0.2978
 7058SOL    HW123712   1.206   0.543   7.530  0.6862  0.4158 -0.9345
 7058SOL    HW223713   1.094   0.452   7.484 -1.9083  2.6494  0.8400
 7059SOL     OW23714   4.656   9.612  10.169 -0.3912  0.0641  0.2673
 7059SOL    HW123715   4.621   9.525  10.191 -0.2285 -0.1582 -0.3519
 7059SOL    HW223716   4.706   9.598  10.089  1.9521  0.1668  1.6400
 7060SOL     OW23717  10.160   3.400  10.127  0.0488  0.1829 -0.0724
 7060SOL    HW123718  10.190   3.356  10.207 -0.3782  2.6345  1.4740
 7060SOL    HW223719  10.071   3.429  10.147  0.3192  1.7423 -1.0463
 7061SOL     OW23720   7.338   4.563   5.114 -0.2398 -0.3864 -0.2600
 7061SOL    HW123721   7.405   4.628   5.092 -0.6177 -0.1567 -0.7475
 7061SOL    HW223722   7.255   4.609   5.100 -0.5011  0.0444  2.4960
 7062SOL     OW23723   0.222   9.805   6.354 -0.6996 -0.5920  0.1366
 7062SOL    HW123724   0.206   9.783   6.446 -1.7991 -0.3347  0.0118
 7062SOL    HW223725   0.155   9.869   6.333 -0.1280 -0.2666 -0.7081
 7063SOL     OW23726   9.394   6.063   8.688  0.1645 -0.0999 -0.0994
 7063SOL    HW123727   9.337   5.991   8.716  2.3612 -1.7081  0.4912
 7063SOL    HW223728   9.482   6.024   8.689  1.2023  2.1375 -1.4703
 7064SOL     OW23729   4.472  10.073   8.737  0.3546  0.5947 -0.1036
 7064SOL    HW123730   4.549  10.129   8.747  0.2370  0.6967  0.2208
 7064SOL    HW223731   4.486  10.029   8.653  0.4783  1.0642 -0.3374
 7065SOL     OW23732   1.189   9.495   9.172  0.1465 -0.5487 -0.1005
 7065SOL    HW123733   1.193   9.490   9.268 -2.1863 -0.1120  0.0544
 7065SOL    HW223734   1.254   9.431   9.142  0.8611 -0.7380  1.7555
 7066SOL     OW23735   3.430   6.313   8.592 -0.2224 -0.1932 -0.0955
 7066SOL    HW123736   3.336   6.299   8.603 -0.2192 -2.5240 -2.4003
 7066SOL    HW223737   3.439   6.346   8.503  1.0840  0.7982  0.3904
 7067SOL     OW23738  10.047   5.953   1.217 -0.4420  0.3243 -0.3495
 7067SOL    HW123739  10.138   5.972   1.194 -0.5237  2.4509  0.9617
 7067SOL    HW223740  10.054   5.888   1.287 -0.0101 -0.8102 -1.4145
 7068SOL     OW23741   7.873   3.981   1.335  0.6134 -0.1574 -0.3910
 7068SOL    HW123742   7.831   4.028   1.263 -2.6807  1.3121  2.3553
 7068SOL    HW223743   7.844   3.890   1.325 -0.5361  0.2115 -0.4232
 7069SOL     OW23744  10.086   8.931   3.012 -0.0647 -0.1232 -0.3118
 7069SOL    HW123745  10.019   8.956   3.076 -1.1517  0.9991 -1.8582
 7069SOL    HW223746  10.169   8.940   3.060 -0.9049 -0.2288  1.2123
 7070SOL     OW23747   6.995   7.504   3.184 -0.2942  0.2331 -0.1731
 7070SOL    HW123748   7.066   7.560   3.153  0.2581  0.0540  0.7476
 7070SOL    HW223749   6.915   7.550   3.157  0.1637  0.4625 -1.1687
 7071SOL     OW23750   5.749   7.502   7.965 -0.5632 -0.1122  0.0983
 7071SOL    HW123751   5.734   7.442   7.892 -2.4723 -0.2243  0.5531
 7071SOL    HW223752   5.783   7.582   7.924  0.0026 -0.7707 -0.7230
 7072SOL     OW23753   3.986   9.378   1.871  0.8469  0.1262  0.4771
 7072SOL    HW123754   4.030   9.365   1.955  0.2406 -1.8114  0.5182
 7072SOL    HW223755   3.998   9.295   1.824 -0.0675  0.6732 -0.7584
 7073SOL     OW23756   2.874   6.355   0.540 -0.0980 -0.5830 -0.5480
 7073SOL    HW123757   2.859   6.272   0.494  0.2003 -0.3504 -1.0609
 7073SOL    HW223758   2.899   6.417   0.472 -0.4503 -0.0285 -0.1825
 7074SOL     OW23759   4.737   4.156   1.968 -0.0139  0.2616  0.4172
 7074SOL    HW123760   4.754   4.149   2.062  1.4947  0.1082  0.1433
 7074SOL    HW223761   4.810   4.110   1.926  0.2002  1.7263 -0.8768
 7075SOL     OW23762   1.752   1.491   5.034 -0.3181 -0.3043 -0.4434
 7075SOL    HW123763   1.703   1.427   5.084  0.0914 -0.3311 -0.0715
 7075SOL    HW223764   1.779   1.556   5.098 -1.8693  0.9566 -1.0331
 7076SOL     OW23765   3.293   0.991   3.316 -0.2612  0.1408 -0.5437
 7076SOL    HW123766   3.311   0.898   3.303  0.9591 -0.5075  4.5497
 7076SOL    HW223767   3.376   1.034   3.295  0.7364 -0.5345  1.7994
 7077SOL     OW23768   6.282   3.804   5.967 -0.2326  0.2574 -0.2042
 7077SOL    HW123769   6.298   3.869   6.036 -0.9731  0.6605 -0.4086
 7077SOL    HW223770   6.221   3.742   6.008 -0.1168  0.1054 -0.2635
 7078SOL     OW23771   8.245   1.946   3.289 -0.0115  0.7999  0.3858
 7078SOL    HW123772   8.328   1.992   3.299  0.9720 -0.9857  0.5159
 7078SOL    HW223773   8.254   1.895   3.209 -1.3752  1.4036 -0.1693
 7079SOL     OW23774   9.496   2.422   0.734 -0.2435 -0.2142 -0.1139
 7079SOL    HW123775   9.563   2.385   0.792  1.0170  0.2948 -1.2210
 7079SOL    HW223776   9.434   2.351   0.721  0.6946 -1.0707  0.0064
 7080SOL     OW23777   7.721   9.054   4.186  0.4576 -0.0854 -0.1042
 7080SOL    HW123778   7.751   9.115   4.254  0.9700 -1.1177  0.6035
 7080SOL    HW223779   7.673   9.109   4.125  2.3386  1.3423 -0.3632
 7081SOL     OW23780   6.872   2.431   8.972  0.3565  0.3114 -0.4390
 7081SOL    HW123781   6.800   2.422   8.910  0.7038  2.9062 -1.2676
 7081SOL    HW223782   6.932   2.360   8.950  0.4217  1.1307 -3.0204
 7082SOL     OW23783   0.211   5.809   9.158  0.4180  0.1165 -0.1905
 7082SOL    HW123784   0.143   5.756   9.115 -0.8766  1.3356  0.2989
 7082SOL    HW223785   0.174   5.829   9.244  2.2007 -0.7367  0.7810
 7083SOL     OW23786   0.731   5.631   8.352  0.4076  0.6015  0.5197
 7083SOL    HW123787   0.669   5.648   8.281 -1.0975 -0.1229  1.6060
 7083SOL    HW223788   0.723   5.538   8.369  1.9452  0.4698  0.5827
 7084SOL     OW23789   7.126   9.486   1.864 -0.3380 -0.1168 -0.0648
 7084SOL    HW123790   7.039   9.480   1.905  0.0680  1.8821  1.1857
 7084SOL    HW223791   7.133   9.578   1.839  1.0441 -0.4827 -1.0637
 7085SOL     OW23792   7.690   4.189   2.374  0.4031  0.0315 -0.5610
 7085SOL    HW123793   7.654   4.275   2.353 -2.2908 -0.7833  0.4559
 7085SOL    HW223794   7.766   4.207   2.429  0.8475  1.7997 -1.7282
 7086SOL     OW23795   8.223   3.986   4.336  0.0862 -0.2769  0.5228
 7086SOL    HW123796   8.280   4.013   4.264  2.0123 -1.0734  1.7276
 7086SOL    HW223797   8.186   4.069   4.368  1.1928  0.3383  0.2527
 7087SOL     OW23798   7.608   3.829  10.177  0.1082 -0.2532  0.1541
 7087SOL    HW123799   7.524   3.874  10.190  0.3090  0.0670  0.3685
 7087SOL    HW223800   7.613   3.814  10.083  0.9741  2.0530 -0.2152
 7088SOL     OW23801   3.255   8.840   2.346  0.4273  0.5677 -0.5691
 7088SOL    HW123802   3.269   8.745   2.347 -0.1645  0.4642  1.9158
 7088SOL    HW223803   3.197   8.855   2.271  0.3974 -1.0500 -0.8999
 7089SOL     OW23804   8.952   1.015   7.210  0.1813 -0.1400  0.3756
 7089SOL    HW123805   8.886   1.036   7.143 -1.3463 -0.3812  1.7847
 7089SOL    HW223806   9.021   0.969   7.162 -0.8062 -0.1414 -1.0719
 7090SOL     OW23807   2.349   8.920   0.160 -0.4714  0.0655 -0.0172
 7090SOL    HW123808   2.305   8.838   0.184 -2.2941  0.5749 -1.4147
 7090SOL    HW223809   2.289   8.961   0.097  0.9816  1.9005 -0.2506
 7091SOL     OW23810   4.107   4.519   7.013  0.0576  0.4278  0.3336
 7091SOL    HW123811   4.095   4.492   7.104 -1.5165 -0.8045 -0.2261
 7091SOL    HW223812   4.107   4.438   6.963  1.2804  1.0764 -0.7338
 7092SOL     OW23813   1.981   1.636   1.874  0.2193  0.1658  0.3558
 7092SOL    HW123814   1.977   1.644   1.779  1.4767 -0.0802  0.2730
 7092SOL    HW223815   1.933   1.556   1.894  0.9030 -0.3880 -0.1816
 7093SOL     OW23816   5.381   9.198   3.239  0.5509 -0.0547  0.1457
 7093SOL    HW123817   5.475   9.212   3.252  0.5607  1.4429 -1.4059
 7093SOL    HW223818   5.349   9.171   3.326  2.2579  0.2128  0.8820
 7094SOL     OW23819   3.083   0.279   0.859  0.1061 -0.0958 -0.4564
 7094SOL    HW123820   3.101   0.344   0.792  1.5201  0.1326  0.1466
 7094SOL    HW223821   2.987   0.272   0.859  0.0705  0.0279 -2.3607
 7095SOL     OW23822   8.933   4.175   2.161 -0.7615  0.4869 -0.2681
 7095SOL    HW123823   8.913   4.121   2.238  2.0084 -0.4204 -0.1458
 7095SOL    HW223824   8.972   4.114   2.098 -2.6881  1.2955 -2.3027
 7096SOL     OW23825   3.275   9.487   8.926 -0.5975 -0.1028 -0.0185
 7096SOL    HW123826   3.256   9.393   8.933 -1.4902  0.1589  1.1194
 7096SOL    HW223827   3.192   9.530   8.943  0.2326  0.9556  1.5068
 7097SOL     OW23828   9.604   5.427   8.081 -0.3513  0.3490  0.5724
 7097SOL    HW123829   9.567   5.358   8.135  1.2670 -2.4950 -1.7437
 7097SOL    HW223830   9.699   5.414   8.087 -0.0719  1.3225 -1.2253
 7098SOL     OW23831  10.130   1.694   4.772 -0.0236 -0.3071  0.5247
 7098SOL    HW123832  10.115   1.684   4.866 -0.2252  1.6469  0.7250
 7098SOL    HW223833  10.079   1.623   4.732 -0.5880 -0.6683  1.8448
 7099SOL     OW23834   8.870   1.702   9.457  0.5456  0.3140 -0.3438
 7099SOL    HW123835   8.782   1.674   9.481  0.5918 -1.6352 -2.2563
 7099SOL    HW223836   8.926   1.630   9.487  1.1368  0.1892 -1.7180
 7100SOL     OW23837   9.134   7.119   0.532  0.2070  0.4227  0.2041
 7100SOL    HW123838   9.062   7.118   0.595 -0.4421 -1.7039 -0.5245
 7100SOL    HW223839   9.091   7.123   0.447  0.6865 -4.5712 -0.4327
 7101SOL     OW23840   9.039   9.687   9.001 -0.2767 -0.2562  0.2590
 7101SOL    HW123841   9.095   9.764   9.009  0.6585 -1.0978  1.7903
 7101SOL    HW223842   8.952   9.723   8.980  0.5402  1.0978 -0.9082
 7102SOL     OW23843   1.092   3.146   7.301  0.1218 -0.1327  0.1282
 7102SOL    HW123844   1.028   3.211   7.271 -1.2521 -0.6124  1.8850
 7102SOL    HW223845   1.161   3.198   7.342  0.2537  0.3466 -0.7047
 7103SOL     OW23846   1.892   2.734   0.387  0.4697 -0.0617 -0.2480
 7103SOL    HW123847   1.923   2.645   0.368 -2.3706 -1.0329 -0.5678
 7103SOL    HW223848   1.894   2.778   0.302 -0.3378 -0.5468 -0.5209
 7104SOL     OW23849   3.676   2.159   3.934  0.1677 -0.2460  0.5182
 7104SOL    HW123850   3.752   2.196   3.890  0.1976 -0.8923  0.0275
 7104SOL    HW223851   3.649   2.086   3.879  0.7339 -1.6122  2.0038
 7105SOL     OW23852   3.806   1.398   6.076  0.0775  0.1469 -0.2154
 7105SOL    HW123853   3.844   1.485   6.081  0.4126  0.0263 -0.6568
 7105SOL    HW223854   3.844   1.350   6.150 -2.3255  1.2303  1.8061
 7106SOL     OW23855   0.999   0.086   1.025  0.2577  0.0708  0.6271
 7106SOL    HW123856   1.028   0.111   0.938  0.4691 -2.0834  0.0530
 7106SOL    HW223857   0.940   0.011   1.010 -1.6323  1.1978  2.1395
 7107SOL     OW23858   0.910   5.790   5.304 -0.5764  0.2453 -0.1898
 7107SOL    HW123859   0.916   5.765   5.212  2.0320 -3.8408  0.9130
 7107SOL    HW223860   0.858   5.721   5.345  0.7176  0.4024  1.8508
 7108SOL     OW23861   3.413   0.798   1.277 -0.2111  0.0462 -0.3473
 7108SOL    HW123862   3.333   0.779   1.324 -1.6639  1.4186 -2.1716
 7108SOL    HW223863   3.441   0.714   1.241 -0.9469 -0.4029  0.1193
 7109SOL     OW23864   5.005   1.847   7.186  0.4432  0.3247  0.3259
 7109SOL    HW123865   5.032   1.757   7.169  1.6121  0.6328  0.5112
 7109SOL    HW223866   4.922   1.856   7.140 -0.0229 -1.0532  0.8758
 7110SOL     OW23867   7.168   5.891   3.360 -0.0082 -0.5982  0.1578
 7110SOL    HW123868   7.196   5.952   3.429  0.8341 -0.8304  0.0262
 7110SOL    HW223869   7.233   5.821   3.363  0.5446 -0.1694 -1.4557
 7111SOL     OW23870   2.266   5.339   7.347  0.3654 -0.1708  0.1552
 7111SOL    HW123871   2.236   5.270   7.407  0.3717 -0.1014  0.2364
 7111SOL    HW223872   2.268   5.296   7.261  2.5749 -0.9256  0.5488
 7112SOL     OW23873   9.444   1.557   2.460 -0.3737 -0.3648  0.5362
 7112SOL    HW123874   9.500   1.532   2.387 -0.8808 -2.6781  0.8943
 7112SOL    HW223875   9.497   1.617   2.512  0.4348  0.3253 -1.0452
 7113SOL     OW23876   6.157   8.576   8.291 -0.1428  0.1305  0.4788
 7113SOL    HW123877   6.135   8.668   8.307  0.3744  0.4239 -0.4598
 7113SOL    HW223878   6.169   8.539   8.378 -1.8448  0.5868  0.9223
 7114SOL     OW23879   5.213   2.096   1.253 -0.3652 -0.0325 -0.6505
 7114SOL    HW123880   5.150   2.047   1.201 -0.6782  0.6404 -0.9114
 7114SOL    HW223881   5.180   2.186   1.253 -0.1658  0.0554  0.3865
 7115SOL     OW23882   3.382   9.656   3.654 -0.0605 -0.1933  0.4124
 7115SOL    HW123883   3.454   9.675   3.593 -1.1508 -0.5413 -1.0298
 7115SOL    HW223884   3.317   9.724   3.635 -1.6183 -1.9966 -0.8372
 7116SOL     OW23885   5.301   6.784   1.884 -0.2485 -0.1775 -0.0452
 7116SOL    HW123886   5.293   6.729   1.962  0.8145 -0.3383 -0.0489
 7116SOL    HW223887   5.213   6.784   1.846 -0.8644  0.1704  1.3243
 7117SOL     OW23888   3.272   6.178   7.313  0.2926 -1.0941 -0.4289
 7117SOL    HW123889   3.245   6.140   7.229  0.7460 -0.1414 -1.0071
 7117SOL    HW223890   3.202   6.240   7.335 -0.3724 -2.1355  0.4433
 7118SOL     OW23891   0.630   1.318   1.654  0.8556  0.3823 -0.0965
 7118SOL    HW123892   0.636   1.354   1.742  1.4738  3.9187 -1.5152
 7118SOL    HW223893   0.538   1.328   1.630  0.7476 -0.3070  0.0108
 7119SOL     OW23894   4.899   9.934   7.338  0.0491  0.4061  0.8039
 7119SOL    HW123895   4.864   9.869   7.276 -1.7475  0.7353  1.4378
 7119SOL    HW223896   4.829   9.998   7.348  0.9946  1.3065  1.8340
 7120SOL     OW23897   4.431   5.692   1.095  0.6889 -0.8513  0.0776
 7120SOL    HW123898   4.435   5.788   1.087 -1.8400 -0.5063  2.0912
 7120SOL    HW223899   4.483   5.673   1.174  0.0727 -0.9877  0.4526
 7121SOL     OW23900   1.157   9.761   9.334  0.0768 -0.4168 -0.0957
 7121SOL    HW123901   1.125   9.837   9.381  1.5726 -0.0788  0.4195
 7121SOL    HW223902   1.252   9.760   9.351  0.1317 -2.1861 -0.3781
 7122SOL     OW23903   8.836   2.761   6.939 -0.2579  0.1626 -0.2677
 7122SOL    HW123904   8.760   2.722   6.895  0.1669 -0.2672 -0.6252
 7122SOL    HW223905   8.906   2.696   6.928 -0.3083 -0.2391  1.5615
 7123SOL     OW23906   2.514   6.680   5.517 -0.2720  0.0750 -0.1376
 7123SOL    HW123907   2.525   6.740   5.591  1.9912  0.2923 -0.5973
 7123SOL    HW223908   2.589   6.698   5.460 -0.2145 -2.3025 -0.8953
 7124SOL     OW23909   8.751   7.953   0.166 -0.1022  0.3044  0.1505
 7124SOL    HW123910   8.836   7.952   0.210 -0.7407  1.7125  1.4468
 7124SOL    HW223911   8.754   8.030   0.109 -0.6295  0.5291  0.4264
 7125SOL     OW23912   4.293   5.654   4.647 -0.5600  0.0515 -0.0635
 7125SOL    HW123913   4.352   5.588   4.685 -1.3971 -0.6643 -0.0088
 7125SOL    HW223914   4.340   5.686   4.570 -0.7011 -1.5471 -0.8460
 7126SOL     OW23915   9.145   5.831   6.338  0.2067  0.2475  0.2291
 7126SOL    HW123916   9.123   5.898   6.402  0.4295 -0.2041  0.7865
 7126SOL    HW223917   9.240   5.826   6.340  0.1707 -0.4212  0.5454
 7127SOL     OW23918   1.758   4.083   7.923  0.2299 -0.4152 -0.3082
 7127SOL    HW123919   1.754   4.082   8.019  0.3922  1.6113 -0.2608
 7127SOL    HW223920   1.846   4.051   7.903 -0.2872 -2.2061  0.1458
 7128SOL     OW23921   4.723   8.569   8.146  0.6507  0.2032  0.1133
 7128SOL    HW123922   4.632   8.594   8.165  0.5369  1.0987 -1.4841
 7128SOL    HW223923   4.758   8.539   8.230 -1.3221 -0.7887  0.6090
 7129SOL     OW23924   8.017   0.789   6.861 -0.5581  0.5208 -0.6964
 7129SOL    HW123925   8.001   0.882   6.879 -1.5921  0.1744  0.2237
 7129SOL    HW223926   7.934   0.746   6.883  0.8900 -1.0321  2.0550
 7130SOL     OW23927   7.937   1.247   3.217  0.0445  0.0219 -0.5066
 7130SOL    HW123928   7.948   1.331   3.172  1.1004  0.8187  1.1784
 7130SOL    HW223929   7.857   1.258   3.269  0.4265  0.1276  0.0523
 7131SOL     OW23930   7.290   2.297   8.689  0.2517 -0.0370  0.3371
 7131SOL    HW123931   7.311   2.206   8.670  0.2325  0.1581 -0.6653
 7131SOL    HW223932   7.251   2.330   8.608  1.4246  1.2133  0.2537
 7132SOL     OW23933   8.606   3.489   1.598  0.2276 -0.0442 -0.5338
 7132SOL    HW123934   8.534   3.531   1.552 -0.9463 -2.1743 -0.7144
 7132SOL    HW223935   8.670   3.559   1.612 -0.5416  1.2195 -3.0471
 7133SOL     OW23936   5.511   9.483   8.818  0.0861 -0.8473  0.3228
 7133SOL    HW123937   5.435   9.425   8.818 -0.2733 -0.3870 -1.0453
 7133SOL    HW223938   5.582   9.430   8.780 -0.3135 -0.3205 -1.1921
 7134SOL     OW23939   6.571   7.235   9.783 -0.1789 -0.0097 -0.0688
 7134SOL    HW123940   6.610   7.254   9.699  2.3036 -1.8710  0.6118
 7134SOL    HW223941   6.631   7.273   9.847 -1.9332  1.2087  0.8903
 7135SOL     OW23942   7.343  10.181   8.431 -0.2651 -0.2821 -0.3604
 7135SOL    HW123943   7.290  10.161   8.508 -0.0104  1.2328  0.2382
 7135SOL    HW223944   7.298  10.139   8.358  0.1505 -2.7873  0.7807
 7136SOL     OW23945   6.596   7.728   1.489 -0.0124 -0.0365  0.0652
 7136SOL    HW123946   6.527   7.778   1.446  0.8525  0.7378 -0.4524
 7136SOL    HW223947   6.629   7.670   1.421  0.5333  0.3215  0.0217
 7137SOL     OW23948   7.729   1.027   8.132 -0.3050  1.1559  0.2131
 7137SOL    HW123949   7.642   1.054   8.161 -0.1976  3.2884 -1.3291
 7137SOL    HW223950   7.789   1.081   8.184  0.0469  0.9452  0.0259
 7138SOL     OW23951   1.947   3.302   4.325  0.1688  0.1227 -0.2679
 7138SOL    HW123952   2.037   3.271   4.323  0.3936  0.7852 -0.7505
 7138SOL    HW223953   1.924   3.315   4.233 -0.7237 -0.8917 -0.2017
 7139SOL     OW23954   7.202   4.606   7.135 -0.2896 -0.0617 -0.3865
 7139SOL    HW123955   7.198   4.544   7.062 -1.4913 -0.0355 -0.3507
 7139SOL    HW223956   7.125   4.662   7.124 -1.5020 -1.1772  1.8653
 7140SOL     OW23957   6.389   7.021   8.394  0.0092 -0.0280 -0.2218
 7140SOL    HW123958   6.297   7.015   8.368  0.6675 -3.0989 -2.1339
 7140SOL    HW223959   6.435   7.043   8.313  1.1359 -0.2125  0.3611
 7141SOL     OW23960   2.932   7.933   0.468 -0.3030  0.5399 -0.0123
 7141SOL    HW123961   2.989   7.867   0.427 -0.0265 -0.6480  2.1831
 7141SOL    HW223962   2.856   7.883   0.499 -0.4182  1.3596  1.0627
 7142SOL     OW23963   2.812   1.353   2.850  0.1321  0.2565  0.1641
 7142SOL    HW123964   2.849   1.396   2.773 -0.5983 -0.1846 -0.4400
 7142SOL    HW223965   2.768   1.275   2.815 -0.8587  0.4597  0.9291
 7143SOL     OW23966   1.246   2.650   9.159 -0.2586  0.2625  0.4891
 7143SOL    HW123967   1.319   2.694   9.115 -1.1621  0.3350 -0.9520
 7143SOL    HW223968   1.282   2.565   9.185  1.3627  1.6287  2.9023
 7144SOL     OW23969   0.004   4.376   3.914  0.1880  0.1633  0.4281
 7144SOL    HW123970  -0.056   4.434   3.869 -0.0536 -1.2986 -1.1714
 7144SOL    HW223971   0.087   4.385   3.867  0.1334 -0.8256  0.1313
 7145SOL     OW23972   8.812   5.591   5.998 -0.1345  0.2246  0.1108
 7145SOL    HW123973   8.811   5.555   6.087 -0.5673 -0.6767 -0.2428
 7145SOL    HW223974   8.821   5.514   5.942  1.5097  0.9057 -0.5801
 7146SOL     OW23975   9.362   4.186   5.933  0.2821  0.5960  0.0200
 7146SOL    HW123976   9.419   4.129   5.985 -0.8691 -1.4792 -0.9170
 7146SOL    HW223977   9.416   4.262   5.913  1.9047 -0.1937  1.2426
 7147SOL     OW23978   6.723   1.352   9.997 -0.1732 -0.3311  0.1153
 7147SOL    HW123979   6.672   1.385  10.071  2.2282  0.7814  1.3090
 7147SOL    HW223980   6.772   1.279  10.033  2.3366  1.3043  0.0770
 7148SOL     OW23981   6.806   7.377   5.870 -1.2320 -0.0820  0.0167
 7148SOL    HW123982   6.735   7.379   5.806 -1.6710 -1.2334  0.4367
 7148SOL    HW223983   6.809   7.286   5.899  0.0706  0.0708  0.4028
 7149SOL     OW23984   1.511   1.760   9.263 -0.2571 -0.2298  0.2941
 7149SOL    HW123985   1.487   1.842   9.306 -0.5901  0.0090 -0.3341
 7149SOL    HW223986   1.565   1.788   9.189 -0.8221 -0.5318 -0.2391
 7150SOL     OW23987   7.749   2.969   9.548  0.2680  0.2451 -0.0095
 7150SOL    HW123988   7.699   3.026   9.606 -0.3135 -1.0852  0.8247
 7150SOL    HW223989   7.684   2.933   9.488  0.9495  2.0468 -1.8838
 7151SOL     OW23990   0.905   3.350   7.213 -0.2832 -0.1440 -0.4469
 7151SOL    HW123991   0.837   3.282   7.214  0.0154 -0.5105  4.0548
 7151SOL    HW223992   0.856   3.432   7.206 -1.1894 -0.4548  1.7937
 7152SOL     OW23993   7.217   0.409   2.334  0.1776  0.0859 -0.3779
 7152SOL    HW123994   7.196   0.345   2.402  1.2961 -1.3963 -1.3922
 7152SOL    HW223995   7.189   0.493   2.370  0.4206 -0.7234  1.7432
 7153SOL     OW23996   7.056   2.690   8.905 -0.1773  0.1011  0.4939
 7153SOL    HW123997   7.005   2.613   8.880  0.4056 -0.5311  1.2293
 7153SOL    HW223998   6.993   2.749   8.945 -0.4318 -0.4491  0.9045
 7154SOL     OW23999   8.247   6.953   7.150 -0.5264  0.1292 -0.1199
 7154SOL    HW124000   8.162   6.974   7.188 -0.0876  0.2946  0.7843
 7154SOL    HW224001   8.227   6.923   7.061 -1.6327 -1.0132  0.5017
 7155SOL     OW24002   3.847  10.009   2.189 -0.0635  0.4662  0.4577
 7155SOL    HW124003   3.931  10.045   2.161 -1.0237  0.9590 -1.9396
 7155SOL    HW224004   3.861   9.981   2.279  2.7988  0.1035 -0.0690
 7156SOL     OW24005   9.564   1.147   2.079  0.1728  0.0988 -0.1440
 7156SOL    HW124006   9.491   1.181   2.027  0.1933  1.5633  0.7548
 7156SOL    HW224007   9.593   1.222   2.131  0.3637 -1.2428  1.7247
 7157SOL     OW24008   6.920   4.347   3.181 -0.7971 -0.0429 -0.0445
 7157SOL    HW124009   6.875   4.308   3.256 -1.5195 -0.2025 -0.5493
 7157SOL    HW224010   7.008   4.309   3.182 -0.8302 -0.0997  0.6719
 7158SOL     OW24011   5.479   4.376   5.795  0.1489  0.1693 -0.2065
 7158SOL    HW124012   5.464   4.381   5.890  0.4247 -0.1059 -0.1471
 7158SOL    HW224013   5.526   4.457   5.775 -1.8814  1.3172 -0.4933
 7159SOL     OW24014  10.085   8.334   2.027  0.3040 -0.2854 -0.1518
 7159SOL    HW124015  10.105   8.243   2.005  0.2334  0.0123 -1.5088
 7159SOL    HW224016  10.170   8.375   2.040  0.3769 -0.2824 -0.6399
 7160SOL     OW24017   8.408   9.475   7.231 -0.4215 -0.1318 -0.1237
 7160SOL    HW124018   8.372   9.562   7.212  1.9221  0.9059  0.0687
 7160SOL    HW224019   8.355   9.443   7.304 -0.3546  1.7636  0.7830
 7161SOL     OW24020   4.340   5.818   3.422  0.1362  0.1056 -0.2774
 7161SOL    HW124021   4.423   5.777   3.448 -0.2325  0.2618  1.1969
 7161SOL    HW224022   4.277   5.747   3.421  0.0150  0.2108 -0.1296
 7162SOL     OW24023   3.258   9.477   7.531 -0.5613  0.0331 -0.0078
 7162SOL    HW124024   3.348   9.498   7.505 -0.4583  0.0669  0.3758
 7162SOL    HW224025   3.207   9.553   7.503 -0.3228  0.4208  0.6045
 7163SOL     OW24026   7.082   6.127   7.078  0.8532  0.3605 -0.1895
 7163SOL    HW124027   6.993   6.151   7.103  1.1799  0.6170  0.7688
 7163SOL    HW224028   7.116   6.205   7.034 -0.1051 -0.4839 -2.5003
 7164SOL     OW24029   6.093   2.885   1.949 -0.4871  0.6332 -0.0962
 7164SOL    HW124030   6.184   2.912   1.942 -0.0743 -0.9784 -1.3434
 7164SOL    HW224031   6.055   2.945   2.013  1.8294  0.3563  1.6128
 7165SOL     OW24032   2.864   6.013   4.037 -0.2515  0.4328  0.3691
 7165SOL    HW124033   2.939   6.069   4.015  0.1038  0.4261  1.5446
 7165SOL    HW224034   2.795   6.074   4.063 -0.7909  0.4592 -1.0565
 7166SOL     OW24035   3.703   6.188   9.520 -0.1656  0.3592 -0.1123
 7166SOL    HW124036   3.702   6.095   9.497 -1.2186  0.1718  0.6223
 7166SOL    HW224037   3.629   6.225   9.471 -0.0820  0.6943  0.0134
 7167SOL     OW24038   6.397   9.086   3.114 -0.1575 -0.3850 -0.1826
 7167SOL    HW124039   6.365   9.089   3.204 -0.6451  1.5616 -0.4127
 7167SOL    HW224040   6.324   9.050   3.064  0.0256 -1.2274  0.1381
 7168SOL     OW24041   4.802   7.519   0.270  0.3867  0.0165  0.6693
 7168SOL    HW124042   4.773   7.561   0.351  0.1596  0.9237  0.1240
 7168SOL    HW224043   4.725   7.523   0.212  0.4708 -0.8445  0.4880
 7169SOL     OW24044   8.115   0.392   1.649 -0.5765  0.0125  0.0137
 7169SOL    HW124045   8.141   0.482   1.665 -3.0960  1.0238 -1.2222
 7169SOL    HW224046   8.026   0.386   1.684  0.1074 -2.4461  1.4466
 7170SOL     OW24047   6.957   1.982   6.996 -0.4175 -0.5471 -0.1695
 7170SOL    HW124048   6.905   1.937   6.929 -1.0207  1.9025 -1.4086
 7170SOL    HW224049   6.930   1.942   7.079 -3.1048 -0.4171 -0.9418
 7171SOL     OW24050   6.030   3.649   0.977 -0.2139 -0.4117 -0.5204
 7171SOL    HW124051   6.095   3.579   0.968  0.4492  0.1907 -0.4342
 7171SOL    HW224052   6.049   3.690   1.062 -0.6534 -0.1802 -0.5287
 7172SOL     OW24053   7.070   4.059   9.027  0.3948 -0.4607 -0.9066
 7172SOL    HW124054   7.110   3.997   8.965 -0.2763 -1.6339 -0.1962
 7172SOL    HW224055   6.985   4.020   9.048  0.5771 -0.0411  0.6746
 7173SOL     OW24056   7.408   8.809   6.560 -0.4196  0.3771 -0.1083
 7173SOL    HW124057   7.411   8.842   6.650  0.2072  3.7971 -1.3189
 7173SOL    HW224058   7.420   8.714   6.570 -2.1124  0.4354  3.5090
 7174SOL     OW24059   1.370   2.960   3.643  0.2014 -0.5159 -0.3842
 7174SOL    HW124060   1.352   2.879   3.690  0.8907 -0.5647 -0.1969
 7174SOL    HW224061   1.409   3.018   3.709 -0.5380  0.0655 -0.4476
 7175SOL     OW24062   5.539   0.670   6.613 -0.6189  0.7124  0.2564
 7175SOL    HW124063   5.477   0.668   6.686 -1.3802  1.8685 -0.3355
 7175SOL    HW224064   5.600   0.599   6.631 -2.4149 -0.7907  0.5884
 7176SOL     OW24065   6.897   2.705   1.347 -0.3946  0.5745 -0.0572
 7176SOL    HW124066   6.973   2.719   1.290 -0.9951  0.6896 -0.8293
 7176SOL    HW224067   6.865   2.617   1.324  0.3673 -0.0773  1.2861
 7177SOL     OW24068   3.888   4.570   0.300  0.3797 -0.3545  0.0253
 7177SOL    HW124069   3.834   4.544   0.375  1.4710 -2.7750  0.0157
 7177SOL    HW224070   3.971   4.596   0.338  0.2922  0.2722 -0.2072
 7178SOL     OW24071   3.858   7.811   8.101 -0.3824 -0.0831 -0.4786
 7178SOL    HW124072   3.913   7.804   8.023 -0.2988  2.3378 -0.6844
 7178SOL    HW224073   3.918   7.836   8.171 -0.8647  0.3305 -0.2078
 7179SOL     OW24074   9.649   0.863   4.894  0.2749  0.6349 -0.2010
 7179SOL    HW124075   9.623   0.782   4.849  2.1387 -0.1724  0.0916
 7179SOL    HW224076   9.568   0.898   4.930 -0.6672 -0.7739 -0.8916
 7180SOL     OW24077   9.636   0.392   8.589  0.4070 -0.5738  0.0116
 7180SOL    HW124078   9.583   0.436   8.523  0.2151 -0.3398  0.3202
 7180SOL    HW224079   9.672   0.463   8.642  1.1326 -0.7230 -0.2752
 7181SOL     OW24080   2.278   5.152   3.968  0.5548  0.0239  0.9235
 7181SOL    HW124081   2.210   5.107   3.917 -0.1373  0.7011  1.2314
 7181SOL    HW224082   2.360   5.126   3.927  0.0756 -0.3794  0.2052
 7182SOL     OW24083   9.126   5.121   8.001 -0.0265 -0.4775  0.5359
 7182SOL    HW124084   9.055   5.173   7.963 -0.8003 -1.5230  0.5294
 7182SOL    HW224085   9.195   5.122   7.934 -1.4487 -2.4720 -1.0163
 7183SOL     OW24086   2.825   0.344   8.656 -0.1558 -0.1690  0.5574
 7183SOL    HW124087   2.886   0.271   8.663  2.1505  1.6251 -0.0976
 7183SOL    HW224088   2.766   0.319   8.584 -0.4234 -2.0610  1.4078
 7184SOL     OW24089   4.703   5.096   5.109 -0.1976 -0.2391  0.7614
 7184SOL    HW124090   4.666   5.181   5.133 -3.1994 -1.1758 -0.3187
 7184SOL    HW224091   4.734   5.060   5.192 -2.3985  0.2936  1.8642
 7185SOL     OW24092   6.304   1.051   8.355 -0.5232  0.5665 -0.1799
 7185SOL    HW124093   6.346   1.117   8.411 -0.8910  1.4332 -0.9134
 7185SOL    HW224094   6.377   1.003   8.315 -0.2439  0.9896 -0.1846
 7186SOL     OW24095   7.585   3.095   8.025  0.2374  0.3847  0.1360
 7186SOL    HW124096   7.512   3.033   8.032  1.4000 -1.0386 -0.0522
 7186SOL    HW224097   7.612   3.112   8.115  0.3517  0.0698  0.1634
 7187SOL     OW24098   6.735   3.605   9.481 -0.1771 -0.0292 -0.3995
 7187SOL    HW124099   6.765   3.647   9.400  1.4669  1.0941  0.7456
 7187SOL    HW224100   6.798   3.534   9.496  0.3665  0.6645  0.6362
 7188SOL     OW24101   0.755   8.037   1.286  0.5697  0.0375 -0.0378
 7188SOL    HW124102   0.829   8.098   1.281 -0.7478  1.7216  0.4304
 7188SOL    HW224103   0.678   8.092   1.272 -0.6877 -1.4452  0.8698
 7189SOL     OW24104   8.256   8.122   9.123 -0.1513 -0.0765 -0.1356
 7189SOL    HW124105   8.234   8.032   9.149  1.8661 -0.4892  0.2117
 7189SOL    HW224106   8.261   8.118   9.027  2.4402 -0.9605  0.0017
 7190SOL     OW24107   8.142   6.232   4.187 -0.4426 -0.2757 -0.2043
 7190SOL    HW124108   8.143   6.186   4.103  0.8420  0.7049 -0.7462
 7190SOL    HW224109   8.065   6.288   4.182  0.7289  1.2895 -1.6028
 7191SOL     OW24110   4.466   2.318   2.176  0.3054 -0.5616  0.5255
 7191SOL    HW124111   4.494   2.393   2.124  2.0198 -0.4755  1.5238
 7191SOL    HW224112   4.405   2.270   2.119  0.0120  1.0036 -0.4995
 7192SOL     OW24113   5.958   6.445   3.521  0.1928  0.1439  0.0080
 7192SOL    HW124114   5.902   6.427   3.597  1.1192  1.8871  1.1327
 7192SOL    HW224115   6.046   6.422   3.550  0.5165  0.5645 -0.6218
 7193SOL     OW24116   6.328   3.350   9.261  0.1771  0.4231 -0.0781
 7193SOL    HW124117   6.364   3.417   9.319 -0.4062 -0.2919  1.1258
 7193SOL    HW224118   6.299   3.399   9.183  1.0075  1.3782  0.1999
 7194SOL     OW24119   1.928   5.655   5.691  0.2198 -0.6138 -0.9144
 7194SOL    HW124120   1.883   5.670   5.608 -0.4100 -0.3663 -0.5336
 7194SOL    HW224121   1.934   5.741   5.731  2.4109 -0.4094 -1.6379
 7195SOL     OW24122   5.178   9.251   4.766 -0.0443 -0.0968  0.6981
 7195SOL    HW124123   5.179   9.157   4.779  0.0064  0.0221  1.5863
 7195SOL    HW224124   5.237   9.285   4.833  0.6119  0.5014 -0.1681
 7196SOL     OW24125   8.168   9.519   6.606 -0.3144 -0.1895 -0.0323
 7196SOL    HW124126   8.240   9.470   6.646 -0.4405 -0.2734  0.0952
 7196SOL    HW224127   8.195   9.611   6.612 -0.1784 -0.2261 -0.0675
 7197SOL     OW24128   0.276   7.242   1.995  0.5211 -0.1850  0.5833
 7197SOL    HW124129   0.253   7.333   1.977  0.0019 -0.2041  1.1842
 7197SOL    HW224130   0.276   7.235   2.090  2.8029 -0.2265  0.6128
 7198SOL     OW24131   8.831   4.372   1.978 -0.4273  0.0504 -0.2112
 7198SOL    HW124132   8.787   4.383   2.062  0.2793  1.1746  0.0354
 7198SOL    HW224133   8.890   4.298   1.990 -0.8131 -0.2047  0.0820
 7199SOL     OW24134   8.069   2.598   5.412 -0.5579  0.4450 -0.1965
 7199SOL    HW124135   8.045   2.670   5.354 -2.3538  0.0499  0.0389
 7199SOL    HW224136   8.052   2.631   5.500 -0.9210 -0.0956 -0.0624
 7200SOL     OW24137   8.222  10.066   7.095  0.3798 -0.3539  0.0718
 7200SOL    HW124138   8.185   9.996   7.148 -0.0416 -0.4181 -0.3012
 7200SOL    HW224139   8.150  10.093   7.038  0.6381  0.1528 -0.0191
 7201SOL     OW24140   1.428   1.222   9.944  0.0022 -0.0305  0.0953
 7201SOL    HW124141   1.386   1.302   9.911  0.7495  0.6624  0.7897
 7201SOL    HW224142   1.447   1.242  10.035  1.0770 -0.6519  0.0074
 7202SOL     OW24143  10.170   8.137   5.183  0.2085 -0.6025  0.1918
 7202SOL    HW124144  10.207   8.050   5.199  1.1830 -0.0483  1.0414
 7202SOL    HW224145  10.223   8.172   5.111  0.4623 -0.3455  0.4970
 7203SOL     OW24146   9.270   0.085   3.777 -0.5332  0.2177 -0.1876
 7203SOL    HW124147   9.188   0.038   3.765 -1.0562  1.0094  0.2726
 7203SOL    HW224148   9.331   0.042   3.717 -1.0779 -0.8480 -0.0058
 7204SOL     OW24149   9.686   4.082   4.213 -0.3105 -0.5441 -0.1665
 7204SOL    HW124150   9.781   4.081   4.224 -0.3470 -1.1366  0.1097
 7204SOL    HW224151   9.673   4.057   4.121 -0.2565 -2.1916  0.2520
 7205SOL     OW24152   2.787   0.155   7.547  0.4320  0.2396  0.6730
 7205SOL    HW124153   2.793   0.082   7.609 -0.9237  0.6106  1.2657
 7205SOL    HW224154   2.839   0.127   7.471 -0.6550 -1.6394  0.5977
 7206SOL     OW24155   8.930   4.960   8.779 -0.9756 -0.0950  0.0406
 7206SOL    HW124156   9.004   4.984   8.723 -0.3377  1.4062  1.4979
 7206SOL    HW224157   8.952   4.872   8.810 -0.9482 -0.6151 -1.4142
 7207SOL     OW24158   7.924   3.385   8.025  0.6839 -0.2290  0.4234
 7207SOL    HW124159   7.988   3.324   8.060  0.6218  0.4437  1.7626
 7207SOL    HW224160   7.852   3.384   8.088  0.2813  0.5503 -0.0096
 7208SOL     OW24161   2.891   1.097   8.379 -0.1734  0.2535 -0.0077
 7208SOL    HW124162   2.933   1.171   8.422  0.7445 -0.8440  1.0295
 7208SOL    HW224163   2.885   1.122   8.287  2.0418  0.7556 -0.0256
 7209SOL     OW24164   0.289   8.845   3.350  0.1623  0.4328 -0.0404
 7209SOL    HW124165   0.239   8.910   3.301  1.8833  0.4368 -1.8249
 7209SOL    HW224166   0.323   8.785   3.284  2.1566  0.1771  1.1675
 7210SOL     OW24167   9.616   8.622   4.181 -0.1318  0.2259 -0.1867
 7210SOL    HW124168   9.593   8.684   4.112 -0.4730 -0.4642 -0.7022
 7210SOL    HW224169   9.711   8.615   4.177 -0.2367 -0.6951 -1.3721
 7211SOL     OW24170   7.782   8.171   8.055 -0.2391  0.1915  0.7102
 7211SOL    HW124171   7.772   8.098   7.994  0.4203  0.4554  0.2883
 7211SOL    HW224172   7.776   8.131   8.142 -1.2097 -0.1788  0.4811
 7212SOL     OW24173   9.796   0.861   3.305  0.3492  0.1874  0.4368
 7212SOL    HW124174   9.868   0.798   3.309  0.3198  0.1580  0.4961
 7212SOL    HW224175   9.738   0.835   3.376  0.3578  0.3073  0.4873
 7213SOL     OW24176   9.851   7.437   3.826  0.6537  0.2337  0.2584
 7213SOL    HW124177   9.863   7.451   3.732  1.0015  3.6826  0.7683
 7213SOL    HW224178   9.769   7.388   3.833 -1.0248  2.6822 -1.6833
 7214SOL     OW24179   4.187   8.700   9.402  0.3684  0.4663  0.0669
 7214SOL    HW124180   4.176   8.757   9.478  2.0424  0.1071  0.6016
 7214SOL    HW224181   4.224   8.756   9.334 -1.8205  0.9661 -0.7581
 7215SOL     OW24182   3.048   7.473   5.703 -0.3706 -0.5799  0.4143
 7215SOL    HW124183   3.120   7.450   5.762  0.3056  1.2908  0.3320
 7215SOL    HW224184   3.004   7.389   5.687  0.3626 -1.3680  2.3179
 7216SOL     OW24185   2.742   4.338   3.375 -0.5821 -0.2127  0.3020
 7216SOL    HW124186   2.800   4.338   3.300 -0.0306  0.7429  0.7204
 7216SOL    HW224187   2.746   4.248   3.408  1.4646  0.0868  0.9416
 7217SOL     OW24188   4.023   9.294   8.515 -0.6663 -0.1913  0.2200
 7217SOL    HW124189   3.986   9.382   8.501  0.1857  0.0395 -0.6293
 7217SOL    HW224190   3.978   9.262   8.593 -3.4028 -0.3328 -1.3598
 7218SOL     OW24191   3.096   7.732   4.779 -0.1233 -0.0387  0.1128
 7218SOL    HW124192   3.185   7.697   4.773  0.3868  1.1109  0.8417
 7218SOL    HW224193   3.079   7.738   4.872 -1.0579 -0.4806 -0.0322
 7219SOL     OW24194   8.006   1.651   6.796 -0.0948 -0.4412  0.5470
 7219SOL    HW124195   7.920   1.622   6.827 -0.3460  0.5054  0.7562
 7219SOL    HW224196   8.009   1.624   6.704 -0.4509 -0.8259  0.6454
 7220SOL     OW24197   8.958   6.220   6.776 -0.0688  0.0324  0.5077
 7220SOL    HW124198   8.992   6.269   6.701 -0.7492 -0.5245 -0.1770
 7220SOL    HW224199   8.911   6.284   6.828  0.8585  0.5339  0.7458
 7221SOL     OW24200   0.052   6.779   2.754  0.6057 -0.1343  0.0302
 7221SOL    HW124201   0.006   6.698   2.776 -0.9076  0.5344 -0.6075
 7221SOL    HW224202   0.139   6.750   2.725  0.0968 -1.5224 -0.1453
 7222SOL     OW24203   1.546   4.070   2.595 -0.4187  0.2034  0.2016
 7222SOL    HW124204   1.606   4.088   2.667  0.5166  0.2579 -0.5816
 7222SOL    HW224205   1.565   3.980   2.570 -0.7439  0.1853  0.0177
 7223SOL     OW24206   4.869   2.108   5.624 -0.0448 -0.2413  0.0349
 7223SOL    HW124207   4.952   2.068   5.652 -0.6261 -0.8149  1.0151
 7223SOL    HW224208   4.837   2.050   5.555  0.3797 -0.0131 -0.3529
 7224SOL     OW24209   0.813   3.707   1.980 -0.4146  0.2348  0.2009
 7224SOL    HW124210   0.855   3.697   2.066 -0.9383  1.2237  0.5935
 7224SOL    HW224211   0.820   3.801   1.962 -0.0741 -0.0180 -0.9661
 7225SOL     OW24212   6.344   8.681  10.126 -0.5964 -0.1125  0.2230
 7225SOL    HW124213   6.334   8.748  10.058 -0.1494  0.6359  0.8867
 7225SOL    HW224214   6.262   8.633  10.125 -0.1885 -0.7949 -1.5841
 7226SOL     OW24215   1.365   8.539   7.174  0.1018  0.7717 -1.0189
 7226SOL    HW124216   1.292   8.598   7.156  0.2626  1.1515 -0.4055
 7226SOL    HW224217   1.408   8.527   7.089 -1.5155 -0.5828 -1.6628
 7227SOL     OW24218   6.205   1.342   9.942  0.4264  0.4196 -0.3407
 7227SOL    HW124219   6.286   1.295   9.957 -0.3279 -0.1796  2.1277
 7227SOL    HW224220   6.151   1.282   9.890  1.2712  0.5524 -1.3972
 7228SOL     OW24221   4.386   5.543   3.954  0.0405 -0.0792 -0.6095
 7228SOL    HW124222   4.451   5.602   3.917  0.4240  0.4933  0.9423
 7228SOL    HW224223   4.432   5.497   4.024 -1.3463  0.7119  0.8648
 7229SOL     OW24224  10.127   1.330   5.256 -0.2692  1.1059  0.2426
 7229SOL    HW124225  10.166   1.389   5.191  0.2133 -0.5969 -1.0428
 7229SOL    HW224226  10.185   1.253   5.256 -1.7849 -0.0475  0.7329
 7230SOL     OW24227   3.641   9.114   7.093  0.6229 -0.0511 -0.3366
 7230SOL    HW124228   3.702   9.109   7.167 -0.8215  0.6770  0.9381
 7230SOL    HW224229   3.600   9.200   7.102 -0.8499 -0.6720 -0.9542
 7231SOL     OW24230   4.622   7.224  10.084 -0.3494  0.4814  0.4738
 7231SOL    HW124231   4.584   7.247  10.169 -0.9118  0.4824  0.2279
 7231SOL    HW224232   4.650   7.307  10.047 -1.5041  0.6727  0.0009
 7232SOL     OW24233   5.589   7.959   1.394 -0.1629 -0.1882 -0.2894
 7232SOL    HW124234   5.590   8.053   1.413 -0.1074 -0.3343  0.4526
 7232SOL    HW224235   5.497   7.938   1.384 -0.2309 -0.2179  0.3869
 7233SOL     OW24236   1.254   9.355   2.835  0.0075 -0.5127  0.0697
 7233SOL    HW124237   1.218   9.310   2.758 -0.4166  1.6851 -1.0491
 7233SOL    HW224238   1.188   9.344   2.903 -1.5231  1.0289 -1.1209
 7234SOL     OW24239   7.380   5.748   6.012 -0.3273 -0.6234 -1.0201
 7234SOL    HW124240   7.422   5.689   5.950 -0.9155  0.6382 -2.6410
 7234SOL    HW224241   7.438   5.824   6.015  0.3061 -1.1395  0.8818
 7235SOL     OW24242   5.047   4.856   3.132 -0.1468  0.4934  0.7120
 7235SOL    HW124243   5.108   4.911   3.182 -0.1871  0.2536  1.0237
 7235SOL    HW224244   4.963   4.868   3.176 -0.3812  1.0160  0.1377
 7236SOL     OW24245   3.009   1.044   4.503  0.0206 -0.2214 -0.2185
 7236SOL    HW124246   3.088   1.033   4.451 -0.2882 -0.0458 -0.7351
 7236SOL    HW224247   3.039   1.080   4.586  0.4967 -0.3028 -0.3559
 7237SOL     OW24248   9.845   0.118   7.909 -0.4056  0.3246  0.1247
 7237SOL    HW124249   9.851   0.057   7.983  0.6309 -0.0735 -0.2818
 7237SOL    HW224250   9.907   0.188   7.930 -0.7311  0.6444  0.0279
 7238SOL     OW24251   5.137   0.810   5.625  0.7739  0.2299 -0.2780
 7238SOL    HW124252   5.160   0.718   5.613  0.8662  0.2603 -0.3305
 7238SOL    HW224253   5.088   0.833   5.546 -0.1992 -0.0806  0.2261
 7239SOL     OW24254   6.947   9.348   6.269 -0.2262  0.2448 -0.5681
 7239SOL    HW124255   6.990   9.295   6.337  1.6319  0.3821 -1.5883
 7239SOL    HW224256   7.001   9.428   6.264 -0.5652  0.4040 -1.9183
 7240SOL     OW24257   8.790   4.697   4.310 -0.0542  0.2911 -0.2069
 7240SOL    HW124258   8.839   4.617   4.287 -1.0762 -0.7319  1.1090
 7240SOL    HW224259   8.852   4.750   4.360 -0.0669 -0.6839  0.8513
 7241SOL     OW24260   1.281   3.686   9.624  0.1272 -0.4659  0.1377
 7241SOL    HW124261   1.267   3.635   9.705  0.8165 -0.1030  0.4858
 7241SOL    HW224262   1.362   3.734   9.640 -1.2335  1.8173  0.3649
 7242SOL     OW24263   7.715   7.902   8.008  0.1269  0.1845 -0.4493
 7242SOL    HW124264   7.649   7.875   8.072 -0.4704  3.4633  0.4133
 7242SOL    HW224265   7.669   7.904   7.924 -1.6658  4.6167  0.4628
 7243SOL     OW24266   1.877   1.333   2.416 -0.0001 -0.7277  0.2520
 7243SOL    HW124267   1.788   1.302   2.397 -0.7155  1.2876  0.1962
 7243SOL    HW224268   1.928   1.307   2.339 -1.3579  1.2737 -1.3832
 7244SOL     OW24269   9.118   8.429   6.715  0.1379 -0.3983  0.2497
 7244SOL    HW124270   9.121   8.392   6.803  1.6664 -1.1322 -0.0959
 7244SOL    HW224271   9.209   8.450   6.695 -0.0756 -1.0894 -1.5106
 7245SOL     OW24272   6.070   7.007   4.694 -0.0936  0.0461  0.4481
 7245SOL    HW124273   5.999   7.011   4.759 -0.9867  2.7153 -0.6414
 7245SOL    HW224274   6.145   7.047   4.738 -0.7688  2.0865 -0.2271
 7246SOL     OW24275   3.748   6.944   9.195  0.0797 -0.0720  0.1475
 7246SOL    HW124276   3.773   6.995   9.118  1.2079 -0.0332  0.5224
 7246SOL    HW224277   3.678   6.995   9.236  1.3415  1.3240  0.6354
 7247SOL     OW24278   4.161   5.829   1.273  0.0761  0.7639  0.2605
 7247SOL    HW124279   4.235   5.859   1.326  0.4388 -0.5681  0.5163
 7247SOL    HW224280   4.119   5.762   1.327 -1.7675  2.0241  0.4337
 7248SOL     OW24281   8.973   5.943   6.732  0.3239  0.2197  0.2698
 7248SOL    HW124282   8.944   6.034   6.740 -0.3638  0.0296  0.0274
 7248SOL    HW224283   9.042   5.945   6.666 -1.4958  0.1897 -1.6799
 7249SOL     OW24284   7.659   8.376   3.824  0.2113  0.2524  0.5084
 7249SOL    HW124285   7.616   8.381   3.738  0.5425  1.4430  0.4110
 7249SOL    HW224286   7.704   8.459   3.833  1.9973 -0.7202  0.8836
 7250SOL     OW24287   8.832   9.106   1.369  0.5075  0.9945 -0.4332
 7250SOL    HW124288   8.913   9.086   1.322  0.9093 -0.5868  0.8779
 7250SOL    HW224289   8.771   9.036   1.343  0.4602  0.6071  0.6775
 7251SOL     OW24290   0.560   8.424   6.369 -0.2096 -0.4497 -0.2960
 7251SOL    HW124291   0.635   8.409   6.426 -0.4933  0.4628  0.3311
 7251SOL    HW224292   0.588   8.393   6.283  0.8848 -0.0970 -0.0686
 7252SOL     OW24293   1.706   0.729   7.140 -0.8086 -0.0503  0.4837
 7252SOL    HW124294   1.719   0.824   7.145  1.5582 -0.3003 -0.6917
 7252SOL    HW224295   1.670   0.715   7.052  0.6881 -0.4246 -0.0827
 7253SOL     OW24296   0.440   8.215   5.881 -0.3623  0.3150 -0.4276
 7253SOL    HW124297   0.479   8.269   5.812 -0.6507  0.6941 -0.2959
 7253SOL    HW224298   0.507   8.212   5.950 -0.7723  1.4220  0.0340
 7254SOL     OW24299   5.442   6.629   4.353  0.2353  0.1743  0.0036
 7254SOL    HW124300   5.362   6.630   4.406  1.0912 -0.5593  1.3165
 7254SOL    HW224301   5.413   6.598   4.267 -0.6979 -1.1956  0.7998
 7255SOL     OW24302   0.585   4.041   5.597  0.0151 -0.1016  0.0932
 7255SOL    HW124303   0.649   4.028   5.527  0.2748  1.8262 -0.0552
 7255SOL    HW224304   0.513   3.981   5.575  0.1322  0.4062 -1.7812
 7256SOL     OW24305   0.553   7.531   1.368  0.2554  0.4691  0.1768
 7256SOL    HW124306   0.596   7.448   1.345  0.0994  0.3746  0.2209
 7256SOL    HW224307   0.572   7.543   1.461 -1.2536 -0.4529  0.6295
 7257SOL     OW24308   7.226   0.277   0.006  0.0060 -0.2163 -0.6504
 7257SOL    HW124309   7.155   0.213   0.010  0.4939 -0.6852  0.9312
 7257SOL    HW224310   7.295   0.240   0.061  1.1156  0.6761 -1.4202
 7258SOL     OW24311   1.544   1.457   8.679 -0.0295 -0.1800  0.0938
 7258SOL    HW124312   1.595   1.383   8.711  1.6118  0.0825 -1.8545
 7258SOL    HW224313   1.505   1.427   8.597 -0.8780  0.5011  0.2361
 7259SOL     OW24314   5.867   0.630   0.741  0.2083 -0.4268 -0.7809
 7259SOL    HW124315   5.916   0.630   0.659  1.4808 -1.9194 -0.0511
 7259SOL    HW224316   5.834   0.541   0.749 -1.7554  0.2768 -0.7251
 7260SOL     OW24317   2.334   9.018   5.784  0.0408  0.1513 -0.9183
 7260SOL    HW124318   2.369   8.929   5.789  0.5029  0.4215  0.9158
 7260SOL    HW224319   2.244   9.010   5.816  0.3756  0.5010  0.1080
 7261SOL     OW24320   4.151   1.242   2.219 -0.4897 -0.4430  0.0506
 7261SOL    HW124321   4.100   1.223   2.140  1.4795 -1.6620 -0.9468
 7261SOL    HW224322   4.215   1.308   2.191 -2.2074  1.9760  1.5883
 7262SOL     OW24323   8.886   4.261   1.171  0.5436  0.2479  0.1769
 7262SOL    HW124324   8.854   4.243   1.259 -0.7077  3.8618  0.5480
 7262SOL    HW224325   8.817   4.230   1.113  0.4495 -0.2734  0.5730
 7263SOL     OW24326   7.747   0.979   7.265 -0.4544 -0.1096 -0.1278
 7263SOL    HW124327   7.711   1.005   7.350  0.5016  0.5630  0.0915
 7263SOL    HW224328   7.703   0.897   7.244 -1.2348  0.0961  0.6750
 7264SOL     OW24329   0.276   8.531   6.222  0.2117  0.2277 -0.0336
 7264SOL    HW124330   0.280   8.436   6.209 -0.1654  0.0832  0.8125
 7264SOL    HW224331   0.283   8.542   6.317  0.7926  1.0832 -0.1670
 7265SOL     OW24332   8.094   5.803   3.573  0.0852 -0.0279 -0.1651
 7265SOL    HW124333   8.090   5.898   3.564 -0.1143  0.1553  1.6962
 7265SOL    HW224334   8.111   5.788   3.666  2.9416 -1.7511 -0.9125
 7266SOL     OW24335   9.318   5.870   5.410 -0.3143  1.0095  1.3223
 7266SOL    HW124336   9.407   5.837   5.423 -0.4328 -0.1633 -0.6303
 7266SOL    HW224337   9.262   5.797   5.438 -0.5989  0.2913 -1.0075
 7267SOL     OW24338   5.227   7.147   5.344  0.7018  0.0176  0.4005
 7267SOL    HW124339   5.230   7.243   5.340 -0.2487  0.0367 -0.1036
 7267SOL    HW224340   5.134   7.126   5.333  0.8541 -0.9445  0.9537
 7268SOL     OW24341   5.241   7.920   3.948  0.2638  0.3752 -0.0236
 7268SOL    HW124342   5.288   7.839   3.969 -0.0190 -0.1394 -1.3547
 7268SOL    HW224343   5.309   7.986   3.942  0.9250 -0.5060 -2.6624
 7269SOL     OW24344   4.194   9.201   3.565 -0.2653 -0.0634 -0.4039
 7269SOL    HW124345   4.267   9.250   3.602 -0.2277 -0.5594  0.1914
 7269SOL    HW224346   4.179   9.241   3.480 -0.4388  1.1892  0.2060
 7270SOL     OW24347   5.773   6.470  10.006  0.5776 -0.7403 -0.2270
 7270SOL    HW124348   5.704   6.421   9.963  0.2311 -0.8385  0.4294
 7270SOL    HW224349   5.795   6.540   9.944  0.5541 -1.2736 -0.8401
 7271SOL     OW24350   1.110   6.431   6.899  0.3869  0.1930 -0.0217
 7271SOL    HW124351   1.092   6.346   6.941  1.1556 -0.6727 -1.4105
 7271SOL    HW224352   1.116   6.493   6.972  1.3441 -1.2239  1.1363
 7272SOL     OW24353   6.247   5.364   6.356 -0.1669 -0.1352  0.5215
 7272SOL    HW124354   6.178   5.338   6.418  0.4004 -1.7251  0.5079
 7272SOL    HW224355   6.321   5.306   6.377  0.2411 -0.2841 -1.2392
 7273SOL     OW24356   3.443   4.230   3.311  0.1542 -0.4391  0.1784
 7273SOL    HW124357   3.508   4.209   3.244  0.0604  1.6581 -0.6035
 7273SOL    HW224358   3.359   4.205   3.272  0.2715 -1.1279  0.3472
 7274SOL     OW24359   1.754   9.139   6.530  0.1696  0.2677 -0.4423
 7274SOL    HW124360   1.704   9.160   6.451 -2.1290  0.4156  1.0097
 7274SOL    HW224361   1.693   9.155   6.602  2.2793  0.3006  1.3900
 7275SOL     OW24362   0.886   7.393   5.065 -0.3626  0.1620  0.1097
 7275SOL    HW124363   0.815   7.447   5.032  0.7639  0.9905 -0.9993
 7275SOL    HW224364   0.894   7.322   5.001  0.8044  0.9118 -0.5862
 7276SOL     OW24365   7.309  10.080   3.520 -0.0539  0.3631  0.2905
 7276SOL    HW124366   7.240  10.127   3.567  0.0473 -1.2539  2.1189
 7276SOL    HW224367   7.388  10.131   3.536 -0.3897  0.8939  0.2456
 7277SOL     OW24368   5.469   8.273   1.811  0.2421 -0.3856  0.2667
 7277SOL    HW124369   5.410   8.282   1.736  0.2794 -2.2792 -0.0036
 7277SOL    HW224370   5.416   8.228   1.877  1.3949 -2.2221 -0.0242
 7278SOL     OW24371   0.703   8.189   5.414 -0.4823  0.1069  0.1760
 7278SOL    HW124372   0.715   8.110   5.361  2.0923  0.3690  0.3096
 7278SOL    HW224373   0.698   8.156   5.504  2.0590  0.1508  0.3759
 7279SOL     OW24374   9.493   5.742   1.716 -0.2578  0.6983  1.1413
 7279SOL    HW124375   9.521   5.832   1.700  1.7385  0.1452  1.3577
 7279SOL    HW224376   9.572   5.698   1.747 -1.0008 -1.3506  0.1709
 7280SOL     OW24377   8.304   7.528   0.156 -0.2401 -0.1254  0.3415
 7280SOL    HW124378   8.248   7.493   0.226 -0.6563  1.1129  0.6498
 7280SOL    HW224379   8.287   7.471   0.081 -2.0430  0.2970  0.3889
 7281SOL     OW24380   6.080   1.982   5.207  0.3429  0.3756 -0.1986
 7281SOL    HW124381   6.070   2.020   5.120 -1.7939 -1.3660 -0.7568
 7281SOL    HW224382   6.104   2.056   5.263 -1.4930  2.1196 -1.6543
 7282SOL     OW24383   9.981   8.768   1.369  0.2722  0.2029 -0.0791
 7282SOL    HW124384  10.024   8.818   1.299  0.0733  1.1908  0.4945
 7282SOL    HW224385   9.981   8.828   1.444 -0.8802 -0.2980  0.3237
 7283SOL     OW24386   9.330   6.802   3.958  0.3115 -0.2314 -0.7666
 7283SOL    HW124387   9.303   6.757   4.039  2.1694 -0.4007 -0.2241
 7283SOL    HW224388   9.248   6.830   3.918 -0.5865  0.8981  1.7682
 7284SOL     OW24389   6.600   2.108   5.234  0.3387 -0.1768 -0.1750
 7284SOL    HW124390   6.570   2.160   5.308 -0.5057 -0.6686 -0.1646
 7284SOL    HW224391   6.675   2.059   5.267  0.6385  0.4187  0.0397
 7285SOL     OW24392   9.696   4.950   2.327 -0.0712 -0.5243  0.0899
 7285SOL    HW124393   9.750   4.893   2.381 -0.8577 -0.2065  1.2260
 7285SOL    HW224394   9.635   4.891   2.283  1.0661 -0.8649 -1.0664
 7286SOL     OW24395   6.930   8.044   4.679  0.6589 -0.1609 -0.4307
 7286SOL    HW124396   6.895   8.111   4.620  3.0336  1.6261  0.0913
 7286SOL    HW224397   7.014   8.020   4.641  0.5094 -1.7508  0.2164
 7287SOL     OW24398   0.498   2.781   0.737  0.1224  0.0940  0.1734
 7287SOL    HW124399   0.464   2.804   0.823 -2.2713 -0.1149 -0.6938
 7287SOL    HW224400   0.426   2.798   0.677  1.4671 -0.6125 -1.6942
 7288SOL     OW24401   8.987   6.586   9.110 -0.4025  0.0605 -0.0865
 7288SOL    HW124402   8.939   6.505   9.127 -1.0656  0.8044  1.7391
 7288SOL    HW224403   9.079   6.564   9.127 -0.3443 -0.7820 -1.4312
 7289SOL     OW24404   9.871   8.297   7.490  0.0495 -0.6834  0.5755
 7289SOL    HW124405   9.873   8.210   7.529 -1.1411 -0.7471  0.4964
 7289SOL    HW224406   9.963   8.319   7.476  0.3098 -2.7949 -1.3332
 7290SOL     OW24407   7.152   7.888   5.779 -0.1183 -0.0382  0.1354
 7290SOL    HW124408   7.071   7.922   5.818 -0.3842 -0.6147  0.1074
 7290SOL    HW224409   7.124   7.854   5.694  0.8116  2.9552 -1.4222
 7291SOL     OW24410   4.480   7.509   1.565 -0.2106 -0.2227  0.0987
 7291SOL    HW124411   4.470   7.500   1.470  0.4932  0.8806 -0.0841
 7291SOL    HW224412   4.422   7.582   1.588 -3.4152 -2.9395  1.1183
 7292SOL     OW24413   7.628   8.308  10.021  0.3843 -0.5233 -0.2393
 7292SOL    HW124414   7.681   8.309  10.101  0.5813  0.6838 -0.3623
 7292SOL    HW224415   7.675   8.368   9.961 -0.8308  0.1404 -0.5374
 7293SOL     OW24416   6.019   0.248   4.330 -0.3770  0.1707  0.1112
 7293SOL    HW124417   6.084   0.276   4.395  0.6510 -0.3195 -0.6975
 7293SOL    HW224418   6.025   0.152   4.331 -0.4611  0.1563 -0.5990
 7294SOL     OW24419   3.683   7.163   7.279  0.0457 -0.5613  0.0137
 7294SOL    HW124420   3.635   7.189   7.200  1.5874  1.1588 -0.4041
 7294SOL    HW224421   3.765   7.212   7.274 -0.8228  1.5556  3.9385
 7295SOL     OW24422   0.824   9.532   2.371 -0.3904 -0.1063 -0.5511
 7295SOL    HW124423   0.743   9.511   2.324 -0.0733 -1.0011 -0.7065
 7295SOL    HW224424   0.826   9.628   2.374 -1.1080 -0.0690 -1.1446
 7296SOL     OW24425   7.060   1.662   4.218 -0.0197  0.3452  0.1714
 7296SOL    HW124426   7.012   1.579   4.217  0.9589 -0.2408  1.0598
 7296SOL    HW224427   7.046   1.697   4.306 -0.5615  1.2001 -0.2553
 7297SOL     OW24428   9.116   4.302   6.508  0.0775 -0.3367  0.2983
 7297SOL    HW124429   9.162   4.219   6.493 -0.7410 -0.5110 -1.3887
 7297SOL    HW224430   9.038   4.278   6.558 -0.1765 -0.5994 -0.2181
 7298SOL     OW24431   5.969   8.077   5.717  0.0648 -0.1465 -0.1588
 7298SOL    HW124432   5.974   8.116   5.804 -2.6230 -1.7402  0.7840
 7298SOL    HW224433   5.922   7.995   5.730  3.1524 -2.4021 -2.5285
 7299SOL     OW24434   9.758   0.631   5.678 -0.1580 -0.0398 -0.1049
 7299SOL    HW124435   9.725   0.721   5.672 -1.9892 -0.7283 -0.6925
 7299SOL    HW224436   9.690   0.578   5.637  0.9940 -1.6895  0.0726
 7300SOL     OW24437   0.910   7.619   5.410 -0.0278 -0.0475  0.0076
 7300SOL    HW124438   0.915   7.643   5.317  1.4329  1.7472  0.5280
 7300SOL    HW224439   0.826   7.573   5.418 -0.3639  0.1188 -2.1105
 7301SOL     OW24440   1.453   3.418  10.047 -0.6109  1.0568  0.9601
 7301SOL    HW124441   1.400   3.365   9.988  0.1312 -1.2505  2.2619
 7301SOL    HW224442   1.540   3.420  10.007 -0.5669  1.0045  1.0501
 7302SOL     OW24443   7.174   1.963   7.981  0.2009 -0.7467  0.0089
 7302SOL    HW124444   7.135   1.948   8.067 -0.0860 -0.9915 -0.1634
 7302SOL    HW224445   7.256   1.913   7.983 -0.2467 -1.4946 -0.1877
 7303SOL     OW24446  10.052   0.663   6.344  0.1682 -0.2148 -0.3240
 7303SOL    HW124447  10.054   0.592   6.408 -2.2765  1.3851  1.6527
 7303SOL    HW224448   9.980   0.639   6.285  0.5050 -0.2575 -0.7160
 7304SOL     OW24449   8.646   4.503   1.288  0.6554  0.0784 -0.1346
 7304SOL    HW124450   8.619   4.451   1.212 -2.8527  1.8948 -0.2352
 7304SOL    HW224451   8.659   4.439   1.358  0.4084 -1.2709 -1.3047
 7305SOL     OW24452   6.292   3.397   9.807  0.0310 -0.2994  0.2790
 7305SOL    HW124453   6.255   3.393   9.895  2.5654  1.6891  1.4876
 7305SOL    HW224454   6.384   3.372   9.819  0.3660 -0.1113 -1.8204
 7306SOL     OW24455   2.560   2.753   0.817  0.2952 -0.3579  0.6328
 7306SOL    HW124456   2.612   2.759   0.897  1.1412  0.4095  0.0337
 7306SOL    HW224457   2.560   2.842   0.781 -2.2178 -0.1200  1.1060
 7307SOL     OW24458   1.694  10.126   3.491 -0.0650  0.3920  0.3741
 7307SOL    HW124459   1.741  10.200   3.529 -0.1174  0.0983  1.0134
 7307SOL    HW224460   1.718  10.051   3.545 -1.4200  0.2715  0.8325
 7308SOL     OW24461   7.579   7.605   7.150 -0.1156 -0.0705  0.7183
 7308SOL    HW124462   7.581   7.511   7.132  0.0055  0.1892 -0.6745
 7308SOL    HW224463   7.597   7.612   7.244 -0.9923 -1.4820  0.9979
 7309SOL     OW24464   2.135   5.433   6.710 -0.1662  0.2555 -0.5823
 7309SOL    HW124465   2.058   5.483   6.739  0.1764  0.5921 -0.2455
 7309SOL    HW224466   2.129   5.432   6.615 -1.3498 -0.9243 -0.5211
 7310SOL     OW24467   2.284   2.210   5.461  0.0209 -0.0739  0.1343
 7310SOL    HW124468   2.202   2.246   5.426  1.1104  1.2793 -1.0702
 7310SOL    HW224469   2.345   2.214   5.388  1.6653  0.5794  1.5197
 7311SOL     OW24470   8.497   3.358   6.906 -0.0126  0.6587 -0.0819
 7311SOL    HW124471   8.517   3.264   6.908 -0.2671  0.6014 -0.0951
 7311SOL    HW224472   8.454   3.375   6.990  0.3196  0.8309  0.0528
 7312SOL     OW24473   1.349   3.220   1.272 -0.1883  0.4360 -0.4991
 7312SOL    HW124474   1.410   3.163   1.318 -0.6533  1.3850  1.3194
 7312SOL    HW224475   1.378   3.217   1.181  0.4190 -1.8688 -0.2504
 7313SOL     OW24476   2.245   4.407   4.380 -0.0925  0.1362 -0.0045
 7313SOL    HW124477   2.287   4.491   4.361  1.3339 -0.7506 -0.8102
 7313SOL    HW224478   2.277   4.382   4.467 -2.2256  1.4538  1.2131
 7314SOL     OW24479   1.346   3.324   7.729  0.0133 -0.6193 -0.0759
 7314SOL    HW124480   1.415   3.263   7.753 -0.0562 -0.0557  1.6247
 7314SOL    HW224481   1.392   3.398   7.690  0.3123 -0.4898  0.5315
 7315SOL     OW24482   2.506   6.396   6.449  0.3123  0.2761 -0.3860
 7315SOL    HW124483   2.419   6.409   6.488 -0.0965 -0.5918 -0.9949
 7315SOL    HW224484   2.529   6.306   6.470  0.0593 -0.2235 -2.1784
 7316SOL     OW24485   0.873   3.791   3.668  0.0551  0.3286 -0.1619
 7316SOL    HW124486   0.840   3.797   3.757 -0.8798 -1.6365 -0.3393
 7316SOL    HW224487   0.836   3.710   3.634  3.3149 -0.8513 -1.1177
 7317SOL     OW24488   1.528   1.374   0.010  0.0003  0.2346  0.0490
 7317SOL    HW124489   1.575   1.343   0.088  1.5679  0.1379 -0.9271
 7317SOL    HW224490   1.575   1.453  -0.017  0.0629 -0.2766 -1.3686
 7318SOL     OW24491   6.547   9.122   2.353  0.0832  0.4624  0.2647
 7318SOL    HW124492   6.504   9.078   2.426  0.6273 -0.3308  0.1147
 7318SOL    HW224493   6.475   9.156   2.300 -0.5005 -3.1366 -1.4063
 7319SOL     OW24494   9.628   0.969   8.489  0.4339  0.3501  0.4927
 7319SOL    HW124495   9.661   0.932   8.407  1.1744 -1.4827  1.5637
 7319SOL    HW224496   9.596   0.893   8.538 -0.9081  1.5329  1.4973
 7320SOL     OW24497   0.870   6.002   4.582 -0.1489  0.2306  0.2266
 7320SOL    HW124498   0.850   6.022   4.491 -0.1101  0.7084  0.3224
 7320SOL    HW224499   0.912   5.916   4.579 -2.8316 -1.1208  0.0979
 7321SOL     OW24500   4.379   5.435   5.460  0.0867  0.7388 -0.2847
 7321SOL    HW124501   4.398   5.362   5.520  0.9173  0.3738 -0.9870
 7321SOL    HW224502   4.410   5.405   5.375 -2.9236  0.4089 -1.3551
 7322SOL     OW24503   8.354   8.068   8.123  0.4185 -0.8516  0.7945
 7322SOL    HW124504   8.397   8.125   8.186 -1.3770  2.4783 -0.8546
 7322SOL    HW224505   8.260   8.085   8.136 -0.1545 -3.2942  0.0961
 7323SOL     OW24506   8.980   8.612   0.109  0.1676 -0.3892 -0.1276
 7323SOL    HW124507   9.009   8.598   0.019 -0.2435  2.2272 -0.7271
 7323SOL    HW224508   9.002   8.704   0.127 -2.7662  0.1059  1.2563
 7324SOL     OW24509   7.177   2.274   6.424  0.5222  0.6460  0.5338
 7324SOL    HW124510   7.091   2.314   6.411 -0.1664 -0.6877  0.8494
 7324SOL    HW224511   7.236   2.325   6.370 -0.6857  0.8541 -0.6095
 7325SOL     OW24512   3.786   4.792   2.946 -0.5065 -0.3338  0.6490
 7325SOL    HW124513   3.788   4.843   3.026 -2.0562  1.4360 -0.3848
 7325SOL    HW224514   3.692   4.783   2.926 -0.1327  0.0052 -1.4056
 7326SOL     OW24515   2.602   1.996   1.504  0.4827  0.1390 -0.4822
 7326SOL    HW124516   2.534   1.940   1.541 -2.7442  4.4719  0.6121
 7326SOL    HW224517   2.568   2.022   1.418  0.1967  3.1154  0.4670
 7327SOL     OW24518   4.963   5.988   2.537  0.0147 -0.1543  0.6483
 7327SOL    HW124519   4.896   5.973   2.603  1.8610 -2.9569  1.9593
 7327SOL    HW224520   4.955   5.914   2.477  1.0342  0.2189  0.0318
 7328SOL     OW24521   6.518   5.461   1.242  0.0090 -0.1090 -0.4030
 7328SOL    HW124522   6.483   5.521   1.308 -1.9371  0.1670 -1.6460
 7328SOL    HW224523   6.497   5.503   1.159  0.1713 -1.6849 -1.2457
 7329SOL     OW24524   3.243   7.166   9.157  0.1766 -0.5638  0.0482
 7329SOL    HW124525   3.199   7.164   9.242 -0.4616  0.3161 -0.2525
 7329SOL    HW224526   3.228   7.255   9.125  2.3382 -0.1819  0.0285
 7330SOL     OW24527   8.835   5.593   1.058 -0.2592 -0.4485 -0.3477
 7330SOL    HW124528   8.768   5.545   1.107 -0.9714 -1.2030 -2.0184
 7330SOL    HW224529   8.785   5.648   0.998  0.5948  0.8082  0.0925
 7331SOL     OW24530   8.721   8.841   4.577 -0.4324  0.2330  0.1617
 7331SOL    HW124531   8.650   8.868   4.635  0.8160  1.3401  1.2200
 7331SOL    HW224532   8.689   8.859   4.489 -1.4538  0.7086  0.6213
 7332SOL     OW24533   4.185  10.126   3.720  0.2029  0.6885 -0.3438
 7332SOL    HW124534   4.112  10.167   3.673 -2.1155 -1.5057  1.1928
 7332SOL    HW224535   4.175  10.156   3.810  0.0935 -1.0166  0.2330
 7333SOL     OW24536   2.809   0.937   9.785  0.1369 -0.0470 -0.4525
 7333SOL    HW124537   2.758   0.961   9.707 -0.7223 -0.4279 -0.0085
 7333SOL    HW224538   2.751   0.956   9.858  0.1486 -1.7151  0.0042
 7334SOL     OW24539   3.348   7.951   0.763 -0.5872 -0.2015 -0.4085
 7334SOL    HW124540   3.266   7.945   0.715 -1.4213  2.8845  0.5552
 7334SOL    HW224541   3.322   7.976   0.852  1.3408  0.2273  0.0587
 7335SOL     OW24542   3.115   3.820   2.637  0.0140 -0.4039  0.1382
 7335SOL    HW124543   3.095   3.908   2.669  0.9817  0.3604 -1.3085
 7335SOL    HW224544   3.193   3.795   2.687 -0.3717 -0.5264  0.6866
 7336SOL     OW24545   8.549   0.456   2.721  0.4794 -0.3095 -0.0653
 7336SOL    HW124546   8.630   0.452   2.671  2.1417 -2.4865  2.6235
 7336SOL    HW224547   8.559   0.389   2.789 -3.1033  0.1406  1.0519
 7337SOL     OW24548   9.650   7.246   0.582 -0.4273 -0.0586 -0.3775
 7337SOL    HW124549   9.667   7.340   0.581 -2.9342  0.4366 -0.1017
 7337SOL    HW224550   9.712   7.209   0.520 -0.4371  1.9748 -1.6270
 7338SOL     OW24551   0.085   4.097   3.086 -0.4629  0.1305 -0.0737
 7338SOL    HW124552   0.024   4.150   3.034  0.6071  2.5921  1.0824
 7338SOL    HW224553   0.072   4.128   3.176 -0.2660 -2.0548  0.7286
 7339SOL     OW24554   3.497   6.511   5.128  0.2386  0.6923 -0.2019
 7339SOL    HW124555   3.562   6.473   5.188  1.5982 -0.4035 -2.3203
 7339SOL    HW224556   3.457   6.435   5.086  0.0514  1.4867 -1.4574
 7340SOL     OW24557   3.202   2.122   2.483  0.2581  0.0791 -0.1291
 7340SOL    HW124558   3.217   2.191   2.418 -0.2832  0.1544 -0.1751
 7340SOL    HW224559   3.264   2.053   2.460 -0.7433 -0.3926 -1.4235
 7341SOL     OW24560   1.807   3.015   7.209 -0.0010 -0.6203 -0.0542
 7341SOL    HW124561   1.740   2.946   7.204  2.3532 -2.9567 -0.0531
 7341SOL    HW224562   1.791   3.070   7.132 -1.7108 -1.3199 -0.2199
 7342SOL     OW24563   4.944   4.795   7.338 -0.0708  0.4784  0.4651
 7342SOL    HW124564   4.945   4.856   7.265  0.4452 -0.2340 -0.1288
 7342SOL    HW224565   5.036   4.783   7.362 -0.2435  0.7831  1.2949
 7343SOL     OW24566   9.478   2.423   9.658  0.7831 -0.3542 -0.4029
 7343SOL    HW124567   9.411   2.390   9.717  1.9036 -0.9044  0.5817
 7343SOL    HW224568   9.451   2.394   9.571 -0.2750 -0.5113 -0.0238
 7344SOL     OW24569   0.143   0.558   3.854 -0.5080 -0.5362  0.3473
 7344SOL    HW124570   0.195   0.497   3.906  1.4420  2.3622  1.9308
 7344SOL    HW224571   0.066   0.576   3.908  0.2134  0.4074  1.0836
 7345SOL     OW24572   9.824   6.916   2.716  0.4268 -0.2127  0.1786
 7345SOL    HW124573   9.864   6.958   2.640  0.3436 -0.2012  0.1404
 7345SOL    HW224574   9.742   6.965   2.729 -0.1878 -1.0500 -0.5163
 7346SOL     OW24575   9.481   0.823   6.014 -0.1541  0.2066 -0.3677
 7346SOL    HW124576   9.463   0.759   5.946 -0.4847 -0.2030  0.1014
 7346SOL    HW224577   9.560   0.868   5.985 -0.8610  0.7329 -1.5224
 7347SOL     OW24578   0.255   4.599   1.016  0.2075  0.0585  0.3633
 7347SOL    HW124579   0.187   4.627   1.078  1.2707  0.9499  1.1537
 7347SOL    HW224580   0.258   4.669   0.951  0.5235  0.1255  0.4512
 7348SOL     OW24581   3.877   7.096   1.202 -0.6568  0.6575 -0.2429
 7348SOL    HW124582   3.838   7.129   1.283  1.2590  1.0141  0.5787
 7348SOL    HW224583   3.836   7.010   1.189 -1.6505  0.9971  0.6114
 7349SOL     OW24584   9.625   6.269   3.519 -0.8436 -0.0545  0.2939
 7349SOL    HW124585   9.674   6.198   3.560  0.8997  1.7532  1.4415
 7349SOL    HW224586   9.607   6.238   3.430  1.3049 -1.2760  0.2431
 7350SOL     OW24587   6.423   5.393   8.493 -0.2413 -0.4978 -0.2275
 7350SOL    HW124588   6.363   5.438   8.552 -0.9271  0.7368 -1.8458
 7350SOL    HW224589   6.386   5.305   8.484 -1.3749 -0.0007 -0.5666
 7351SOL     OW24590  10.179   8.406   6.596 -0.3151  0.3919  0.3663
 7351SOL    HW124591  10.247   8.465   6.563 -0.7898 -0.8161 -2.8984
 7351SOL    HW224592  10.227   8.337   6.642  0.5478  0.6568 -0.1297
 7352SOL     OW24593   6.381   7.617   0.554  0.7688  0.0581 -0.1637
 7352SOL    HW124594   6.449   7.573   0.606  2.1035 -0.4252 -2.2626
 7352SOL    HW224595   6.428   7.685   0.505 -0.9570  2.5487  1.4959
 7353SOL     OW24596   3.686   7.800   7.300  0.2665  0.4706 -0.1241
 7353SOL    HW124597   3.773   7.761   7.301 -0.5564 -1.4472 -0.5376
 7353SOL    HW224598   3.627   7.726   7.284 -1.5694  1.4698  1.7785
 7354SOL     OW24599  10.202   1.149   3.154 -0.6992  0.4770 -0.4457
 7354SOL    HW124600  10.130   1.210   3.167 -0.8530  0.0735  0.6665
 7354SOL    HW224601  10.167   1.064   3.181  0.6338  0.5243  1.6363
 7355SOL     OW24602   0.569   6.623   8.646  0.1884  0.5337 -0.1837
 7355SOL    HW124603   0.476   6.623   8.671  0.8051  1.6400  2.2334
 7355SOL    HW224604   0.605   6.545   8.687  0.5509  0.6844 -0.2172
 7356SOL     OW24605   5.868   6.205   2.958  0.4675  0.6650 -0.0557
 7356SOL    HW124606   5.807   6.265   3.001 -0.2962 -0.0598 -0.1147
 7356SOL    HW224607   5.819   6.171   2.883  0.9050 -0.0029 -0.0362
 7357SOL     OW24608   7.015   8.916   6.942  0.6722  0.1813 -0.2348
 7357SOL    HW124609   6.970   8.835   6.917  1.0140 -0.3034  0.6841
 7357SOL    HW224610   7.093   8.918   6.887 -0.2558  0.8037 -1.5277
 7358SOL     OW24611   4.294   9.727   8.091 -0.2465 -0.4172 -0.4719
 7358SOL    HW124612   4.293   9.698   8.182  0.3740  0.8699 -0.0381
 7358SOL    HW224613   4.377   9.694   8.056  0.3865  0.6678 -0.0229
 7359SOL     OW24614   6.197   9.527   2.352 -0.1719  0.0733 -0.1677
 7359SOL    HW124615   6.180   9.434   2.342 -0.7648  0.1705 -0.0859
 7359SOL    HW224616   6.269   9.531   2.416 -2.5141 -0.2181  2.5528
 7360SOL     OW24617   2.647   4.726   5.526  0.2761 -0.4828  0.3625
 7360SOL    HW124618   2.688   4.667   5.590  1.1618 -0.2714  0.0058
 7360SOL    HW224619   2.692   4.810   5.539  0.0078 -0.2680 -0.0887
 7361SOL     OW24620   0.831   7.835   0.389 -0.4440 -0.7909  0.1586
 7361SOL    HW124621   0.841   7.829   0.484 -1.5617 -1.8474  0.2202
 7361SOL    HW224622   0.813   7.928   0.374  2.2554 -0.1374  0.7018
 7362SOL     OW24623   2.732   4.953   9.671 -0.7015 -0.1734  0.4555
 7362SOL    HW124624   2.677   4.955   9.592  0.1199  2.2079 -0.1064
 7362SOL    HW224625   2.820   4.938   9.638 -0.7548 -2.3852  1.2345
 7363SOL     OW24626   4.845   8.414   1.149 -0.3606 -0.2006  0.4680
 7363SOL    HW124627   4.909   8.381   1.212 -0.0217  0.6877  0.5922
 7363SOL    HW224628   4.802   8.335   1.115  1.8970 -0.9339 -0.8006
 7364SOL     OW24629   6.552   7.494   3.611 -0.1763  0.2978 -0.2555
 7364SOL    HW124630   6.632   7.538   3.639  1.1746 -1.9858 -0.3947
 7364SOL    HW224631   6.482   7.550   3.642  1.4444  1.6083  1.1501
 7365SOL     OW24632   8.077   4.338   6.679 -0.0969 -0.7068  0.1317
 7365SOL    HW124633   8.029   4.316   6.759 -1.0500  0.3563 -0.1456
 7365SOL    HW224634   8.123   4.419   6.700  2.9742 -2.6012  0.9647
 7366SOL     OW24635   4.522   4.942   0.735 -0.6645 -0.4402  0.5101
 7366SOL    HW124636   4.453   5.007   0.723 -0.0887 -0.0146 -0.4928
 7366SOL    HW224637   4.584   4.958   0.664 -0.8479 -2.5085 -0.1622
 7367SOL     OW24638   3.125   8.737   6.793 -0.4853  0.0640 -0.8168
 7367SOL    HW124639   3.174   8.657   6.808  0.5160  0.7726 -0.2332
 7367SOL    HW224640   3.069   8.717   6.719 -0.0304 -1.0805 -0.8651
 7368SOL     OW24641   8.457   5.400   3.761 -0.1594  0.2794 -0.2163
 7368SOL    HW124642   8.504   5.361   3.688 -1.0730  1.7685 -1.6280
 7368SOL    HW224643   8.474   5.341   3.835 -0.4111 -2.0294 -1.9594
 7369SOL     OW24644   8.921   2.048   4.294 -0.1114  0.2503  0.1586
 7369SOL    HW124645   8.938   1.954   4.292 -1.3626  0.0353 -1.3229
 7369SOL    HW224646   8.954   2.079   4.210 -0.0616  1.0738  0.4813
 7370SOL     OW24647   0.431   8.099   7.606 -0.1842  0.6767 -0.2123
 7370SOL    HW124648   0.494   8.099   7.534  0.0831  0.1373  0.0176
 7370SOL    HW224649   0.417   8.191   7.626  1.2935  0.7769  0.4055
 7371SOL     OW24650   2.810   2.828   6.006  0.2765 -0.3801  0.0821
 7371SOL    HW124651   2.861   2.901   5.972 -1.3081  0.0843 -1.3193
 7371SOL    HW224652   2.757   2.866   6.076  0.9152 -0.6069  0.6950
 7372SOL     OW24653   3.296   1.420   4.200 -0.0429  0.4739 -0.3465
 7372SOL    HW124654   3.355   1.487   4.236  0.7836 -1.3028  1.7503
 7372SOL    HW224655   3.354   1.354   4.164 -0.8011 -0.1890 -0.3664
 7373SOL     OW24656   8.233   6.047   7.832 -0.1605  0.3302 -0.5357
 7373SOL    HW124657   8.236   6.009   7.920  0.9620  1.9307  0.1607
 7373SOL    HW224658   8.197   6.135   7.846  1.1373  1.0258 -1.4991
 7374SOL     OW24659   6.661   9.664   9.746  0.5131 -0.0202 -0.1446
 7374SOL    HW124660   6.600   9.665   9.672  1.1915  0.9714 -0.7014
 7374SOL    HW224661   6.734   9.609   9.717 -0.7527 -2.3914  1.0621
 7375SOL     OW24662   3.858   5.260   6.040  0.0132 -0.0374  0.4175
 7375SOL    HW124663   3.827   5.333   6.093  0.2364  0.4611 -0.1388
 7375SOL    HW224664   3.936   5.294   5.996 -0.9038 -0.0457 -1.2310
 7376SOL     OW24665   3.649   5.731   0.231  0.3343  0.5936  0.1325
 7376SOL    HW124666   3.655   5.637   0.211 -0.3584  0.5267  0.2216
 7376SOL    HW224667   3.669   5.774   0.148  0.0290  0.3565 -0.0674
 7377SOL     OW24668   8.445   6.833   7.941  0.2366 -0.4023  0.7551
 7377SOL    HW124669   8.365   6.835   7.888  1.2141  0.1192 -0.7122
 7377SOL    HW224670   8.426   6.892   8.015 -1.2641 -1.4265  1.2200
 7378SOL     OW24671   7.444   7.570   8.686  0.1404 -0.6669  0.7196
 7378SOL    HW124672   7.392   7.516   8.745 -0.9584  0.1842  0.5403
 7378SOL    HW224673   7.400   7.655   8.685  1.4357  0.0219  0.4359
 7379SOL     OW24674   2.710   0.205   0.056 -0.4118  0.1105 -0.0846
 7379SOL    HW124675   2.804   0.219   0.047 -0.1409 -2.3463 -1.5760
 7379SOL    HW224676   2.701   0.115   0.087 -2.2848 -0.5708 -2.3796
 7380SOL     OW24677   3.627   7.541  10.046  0.3136 -0.2028 -0.3396
 7380SOL    HW124678   3.578   7.492   9.980  0.7667 -3.9189  1.9354
 7380SOL    HW224679   3.706   7.489  10.061  0.6057  0.9421  2.5393
 7381SOL     OW24680   5.332   9.455   2.505 -0.4668 -0.1293  0.3866
 7381SOL    HW124681   5.352   9.476   2.596 -2.5529  0.7453  0.6561
 7381SOL    HW224682   5.267   9.385   2.509 -1.6591  0.8988 -0.3885
 7382SOL     OW24683   2.340   3.973   5.162 -0.0229  0.5251 -0.2170
 7382SOL    HW124684   2.373   3.960   5.251 -0.4575 -0.3163 -0.1682
 7382SOL    HW224685   2.404   4.030   5.120  1.2517 -0.7207  0.0085
 7383SOL     OW24686   5.796   8.980   4.022 -0.9951  0.0617  0.0091
 7383SOL    HW124687   5.796   9.076   4.021  0.2091  0.0558 -0.9947
 7383SOL    HW224688   5.725   8.956   3.963 -0.5264  0.3253 -0.6632
 7384SOL     OW24689   3.819   5.953   7.821  0.1184  0.1781  0.4401
 7384SOL    HW124690   3.757   5.893   7.780 -0.2174  0.9351 -0.1707
 7384SOL    HW224691   3.902   5.904   7.824 -0.3719 -0.6372  0.7770
 7385SOL     OW24692   7.288   5.617   2.481 -0.4506  0.0621 -0.0976
 7385SOL    HW124693   7.314   5.705   2.511 -1.6909  0.7958 -1.1512
 7385SOL    HW224694   7.369   5.566   2.487  0.3367  1.3161  0.3439
 7386SOL     OW24695   9.289   2.578   1.965 -0.1023 -0.0691 -0.2064
 7386SOL    HW124696   9.213   2.527   1.993 -1.0910  0.3804 -1.9867
 7386SOL    HW224697   9.338   2.595   2.046 -0.9687 -1.8334  0.7245
 7387SOL     OW24698   4.837   4.102   1.335  0.0530  0.2091  0.3664
 7387SOL    HW124699   4.804   4.173   1.280 -2.2622 -1.8583 -0.9912
 7387SOL    HW224700   4.905   4.061   1.281 -0.0073  0.1310  0.3510
 7388SOL     OW24701   0.824   5.145   5.531 -0.1030  0.4035 -0.3311
 7388SOL    HW124702   0.732   5.120   5.519  0.1342 -0.7435  0.1159
 7388SOL    HW224703   0.856   5.085   5.599  0.9641  0.8147 -0.4616
 7389SOL     OW24704   0.284  10.041   7.656  0.1974  0.2778 -0.7952
 7389SOL    HW124705   0.223  10.061   7.727  0.3397 -0.3293 -0.4999
 7389SOL    HW224706   0.366  10.021   7.700  0.1552 -0.5893 -1.1009
 7390SOL     OW24707   9.477   4.026   8.437 -0.0494  0.1516 -0.3748
 7390SOL    HW124708   9.494   4.097   8.375  0.6207 -0.5886 -1.0636
 7390SOL    HW224709   9.550   3.966   8.424 -1.3634 -1.3927 -0.8762
 7391SOL     OW24710   5.542   5.166   3.205 -0.0977  0.2883  0.2268
 7391SOL    HW124711   5.607   5.113   3.160 -1.3015 -2.7614  1.9395
 7391SOL    HW224712   5.589   5.205   3.279  0.0975 -0.9488  0.7677
 7392SOL     OW24713   9.405   5.378   2.865 -0.1659 -0.6292 -0.2681
 7392SOL    HW124714   9.340   5.416   2.806 -0.4908  0.5000  0.7941
 7392SOL    HW224715   9.488   5.416   2.836 -0.4910  0.9836  0.7981
 7393SOL     OW24716   3.042   3.043   3.904 -0.1148 -0.1338 -0.8023
 7393SOL    HW124717   3.064   3.125   3.947  0.4156  0.1416 -1.5910
 7393SOL    HW224718   2.969   3.008   3.955 -0.7027  1.0839 -0.7913
 7394SOL     OW24719   5.808   9.182   8.280 -0.5727  0.1112  0.1178
 7394SOL    HW124720   5.775   9.096   8.307  0.0125  0.1205  0.8608
 7394SOL    HW224721   5.730   9.230   8.253 -0.8834 -0.7401 -0.5516
 7395SOL     OW24722   2.076   8.548   0.000  0.2939 -0.1206  0.7309
 7395SOL    HW124723   2.075   8.497   0.082  1.4593 -0.0639  0.7842
 7395SOL    HW224724   2.106   8.635   0.026 -1.5081  0.5723  0.6074
 7396SOL     OW24725   3.075   0.482   5.307 -0.6015  0.2032  0.1872
 7396SOL    HW124726   3.048   0.521   5.224 -2.4136 -0.8861  0.2306
 7396SOL    HW224727   3.037   0.540   5.373 -3.9956 -1.9255  0.2617
 7397SOL     OW24728   8.776   9.340   1.237 -0.3181 -0.3711 -0.4033
 7397SOL    HW124729   8.790   9.265   1.296 -0.5989 -0.7791 -0.8520
 7397SOL    HW224730   8.864   9.373   1.219 -0.1459 -0.9741 -0.6872
 7398SOL     OW24731   3.928   0.536   7.407 -0.4628  0.0492  0.1452
 7398SOL    HW124732   3.881   0.497   7.334  0.2072 -1.7016  0.6203
 7398SOL    HW224733   3.939   0.628   7.382 -1.3992 -0.2274 -1.3445
 7399SOL     OW24734   5.616   4.108   5.692  0.1471 -0.3484  0.7960
 7399SOL    HW124735   5.562   4.170   5.740 -1.5082 -1.8304  0.9138
 7399SOL    HW224736   5.653   4.050   5.759  0.4265 -0.4536  0.5559
 7400SOL     OW24737   0.024   1.869   8.094 -0.2847  0.0817 -0.2336
 7400SOL    HW124738  -0.042   1.834   8.154 -0.1083 -0.5655 -0.4244
 7400SOL    HW224739   0.107   1.833   8.125 -0.2703 -0.7548 -1.2549
 7401SOL     OW24740   7.186   3.867   0.691  0.2397 -0.4087 -0.5228
 7401SOL    HW124741   7.272   3.871   0.649  1.0766  0.9172  1.2428
 7401SOL    HW224742   7.163   3.959   0.708 -0.1488 -0.8920  1.7300
 7402SOL     OW24743   1.776   7.735   2.229  0.6004  0.2190  0.0194
 7402SOL    HW124744   1.859   7.762   2.268  1.3284  1.5401 -2.3713
 7402SOL    HW224745   1.759   7.799   2.161 -1.2590 -1.3208 -1.0184
 7403SOL     OW24746   1.276   8.702   2.544 -0.1544 -0.3776  0.1631
 7403SOL    HW124747   1.253   8.681   2.634  0.8810 -1.8842  0.0950
 7403SOL    HW224748   1.194   8.732   2.504 -0.1394  2.6149  2.2268
 7404SOL     OW24749   8.194   7.655   4.691  0.0846  0.1430 -0.1996
 7404SOL    HW124750   8.217   7.710   4.616 -1.0127  1.5683  0.4769
 7404SOL    HW224751   8.256   7.682   4.759  1.8500 -1.9728 -0.8977
 7405SOL     OW24752   7.306   5.673   6.662 -0.0543 -0.7408 -0.4307
 7405SOL    HW124753   7.366   5.728   6.713 -0.6191  0.7949 -1.3971
 7405SOL    HW224754   7.257   5.624   6.728  0.6804 -0.3290  0.4381
 7406SOL     OW24755   2.859   6.277   7.752  0.3980  0.5879  0.4390
 7406SOL    HW124756   2.947   6.314   7.754  0.6300  0.2787 -2.3860
 7406SOL    HW224757   2.873   6.182   7.744 -0.1874  0.5498 -0.1839
 7407SOL     OW24758   2.308   4.627   4.612  0.4718  0.0433 -0.5454
 7407SOL    HW124759   2.252   4.662   4.543 -2.0461 -2.5517  0.0983
 7407SOL    HW224760   2.281   4.673   4.691 -0.2844 -0.6590 -0.3806
 7408SOL     OW24761   5.427   1.886   1.948 -0.5483  0.1500  0.0228
 7408SOL    HW124762   5.454   1.890   1.856 -0.2603 -1.4811  0.0243
 7408SOL    HW224763   5.450   1.972   1.984 -0.6962  0.8115 -1.4315
 7409SOL     OW24764   3.209   3.194   6.249  0.6209  0.2725 -0.1684
 7409SOL    HW124765   3.264   3.141   6.191 -0.5573 -0.6699 -0.4459
 7409SOL    HW224766   3.120   3.164   6.231 -0.0800  2.4326 -0.4090
 7410SOL     OW24767   6.686   4.638   7.399  0.4313  0.2532  0.2036
 7410SOL    HW124768   6.616   4.632   7.464  1.6189 -1.5750  1.3731
 7410SOL    HW224769   6.677   4.559   7.346  1.4064  0.1579  0.1674
 7411SOL     OW24770   2.513   7.371   6.427  0.3433 -0.2621  0.0637
 7411SOL    HW124771   2.558   7.450   6.455  0.1970 -0.4433  0.8098
 7411SOL    HW224772   2.582   7.306   6.417  0.3087 -0.4099  0.7560
 7412SOL     OW24773   6.800   8.165   9.473 -0.0875  0.1369 -0.6483
 7412SOL    HW124774   6.790   8.110   9.551 -0.7661  0.3745 -0.5654
 7412SOL    HW224775   6.758   8.247   9.496  0.2287  0.4141 -1.0585
 7413SOL     OW24776   5.191   3.881   3.427  0.2481 -0.5046  0.0407
 7413SOL    HW124777   5.223   3.792   3.414  1.7265 -0.1197  0.9472
 7413SOL    HW224778   5.145   3.902   3.346  0.8999 -1.6524 -0.6426
 7414SOL     OW24779   7.683   7.986   6.265 -0.2385  0.0145  0.4216
 7414SOL    HW124780   7.701   8.073   6.300  1.0702 -0.6976  1.5691
 7414SOL    HW224781   7.658   8.002   6.174  0.0881  1.5858  0.5871
 7415SOL     OW24782   8.208   5.796   2.277 -0.2623  0.2985 -0.2653
 7415SOL    HW124783   8.272   5.867   2.288  0.6015 -0.5156  0.0116
 7415SOL    HW224784   8.151   5.804   2.354  0.2901  0.2259  0.1581
 7416SOL     OW24785   9.663   1.029   3.857  0.1117 -0.0355  0.2560
 7416SOL    HW124786   9.712   0.947   3.862 -0.4785 -0.3690  0.6807
 7416SOL    HW224787   9.696   1.081   3.931  0.7186  0.2434 -0.2094
 7417SOL     OW24788   2.400   1.106   9.786  0.3322  0.5506 -0.0367
 7417SOL    HW124789   2.376   1.198   9.777 -0.6634  0.2581 -0.5064
 7417SOL    HW224790   2.383   1.068   9.699  1.6174  0.1238 -0.1056
 7418SOL     OW24791   2.054   3.205   7.685 -0.4486 -0.3641  0.1165
 7418SOL    HW124792   2.021   3.122   7.721 -3.3147  1.1156  1.1013
 7418SOL    HW224793   1.994   3.225   7.613  0.7252  0.4579 -0.6527
 7419SOL     OW24794   2.536   5.349   1.324 -0.2604  0.0278 -0.1490
 7419SOL    HW124795   2.511   5.431   1.367 -0.6645  0.7171 -1.6818
 7419SOL    HW224796   2.483   5.282   1.368  0.7300  0.4436  1.7232
 7420SOL     OW24797   0.792   2.519   6.643 -0.2586 -0.2438  0.0231
 7420SOL    HW124798   0.848   2.445   6.662 -0.4574 -0.2693  0.5301
 7420SOL    HW224799   0.817   2.586   6.708 -0.7592 -0.2335  0.2125
 7421SOL     OW24800   4.332   1.381   3.731 -0.4549  0.1534  0.2330
 7421SOL    HW124801   4.411   1.333   3.756 -0.2203  0.4762  0.1184
 7421SOL    HW224802   4.362   1.471   3.718 -0.7803  0.2112 -0.1286
 7422SOL     OW24803   1.432   6.885   2.167 -0.4413  0.2250 -0.7720
 7422SOL    HW124804   1.508   6.938   2.145  2.2873 -2.9345  0.5863
 7422SOL    HW224805   1.403   6.919   2.252  0.8615  0.0623 -0.2404
 7423SOL     OW24806   7.373   5.735  10.195 -0.4047  0.1665  0.1868
 7423SOL    HW124807   7.367   5.640  10.186 -1.4262  0.3077 -0.7640
 7423SOL    HW224808   7.441   5.749  10.261 -0.6224 -1.2391  0.7257
 7424SOL     OW24809  10.134   6.956   4.024 -0.2746 -0.1291  0.2634
 7424SOL    HW124810  10.193   6.977   3.951 -0.3334 -2.0248 -0.3672
 7424SOL    HW224811  10.057   6.917   3.981 -0.3471 -1.1724  1.3302
 7425SOL     OW24812   8.114   3.983   7.093 -0.3389 -0.7098 -0.0765
 7425SOL    HW124813   8.146   3.893   7.087 -0.7477 -0.9094  0.6095
 7425SOL    HW224814   8.021   3.976   7.070 -0.9182 -0.8393  2.1646
 7426SOL     OW24815   7.802   5.449   2.515 -0.6823 -0.2120 -0.2241
 7426SOL    HW124816   7.813   5.411   2.428  0.7080 -0.1883 -0.0822
 7426SOL    HW224817   7.880   5.420   2.563  0.5190  2.9453 -0.1607
 7427SOL     OW24818   1.150   4.133   5.992  0.1331 -0.4400  0.5020
 7427SOL    HW124819   1.211   4.189   5.943 -1.4436  2.0905  1.3678
 7427SOL    HW224820   1.203   4.099   6.064  0.9675  0.3874  0.2974
 7428SOL     OW24821   7.766  10.063   9.036 -0.1972  0.1744 -0.2623
 7428SOL    HW124822   7.785  10.155   9.018 -1.7958  0.2672 -1.5919
 7428SOL    HW224823   7.768  10.020   8.951  0.9740 -1.1274  0.4015
 7429SOL     OW24824   3.093   5.214   6.008 -0.5076 -0.4906 -0.1965
 7429SOL    HW124825   3.028   5.153   5.972 -0.5587 -1.1773  1.0642
 7429SOL    HW224826   3.058   5.240   6.093 -0.6489  1.5794 -0.8382
 7430SOL     OW24827   2.276   4.393   2.675  0.0200 -0.0481  0.4424
 7430SOL    HW124828   2.190   4.394   2.632 -0.7740  1.0119  1.9816
 7430SOL    HW224829   2.336   4.427   2.609 -0.8179 -0.3758 -0.5071
 7431SOL     OW24830   1.804   8.692   0.640 -0.3639 -0.9170  0.1969
 7431SOL    HW124831   1.837   8.780   0.621  1.0336 -1.3698  0.4396
 7431SOL    HW224832   1.709   8.698   0.627 -0.1563  0.3518 -0.7936
 7432SOL     OW24833   9.490   2.689   1.318  0.6327  0.2274 -0.3806
 7432SOL    HW124834   9.497   2.652   1.230  1.5233  0.1241 -0.2708
 7432SOL    HW224835   9.580   2.694   1.349  0.2789 -0.2848  0.7557
 7433SOL     OW24836   7.652   6.800   1.152 -0.4617 -0.1297 -0.4885
 7433SOL    HW124837   7.597   6.869   1.115 -2.5914 -1.1518  0.7049
 7433SOL    HW224838   7.665   6.826   1.243  1.6284  0.4374 -0.9158
 7434SOL     OW24839   6.818   9.766   8.568 -0.0045  0.5843 -0.1040
 7434SOL    HW124840   6.891   9.749   8.508  1.1609 -0.0668  1.4647
 7434SOL    HW224841   6.810   9.861   8.570 -0.2295  0.6026 -1.4911
 7435SOL     OW24842   8.433   2.262   2.026 -1.3418 -0.2011  0.6574
 7435SOL    HW124843   8.389   2.315   1.960  0.8051  1.6828  0.6521
 7435SOL    HW224844   8.513   2.231   1.983 -0.2891  0.4294  2.0916
 7436SOL     OW24845   6.092   1.109   4.587 -0.3591  0.3327 -0.8996
 7436SOL    HW124846   6.128   1.162   4.516  0.4486  0.7644 -0.1850
 7436SOL    HW224847   6.090   1.020   4.552 -0.5908  0.6456 -1.6865
 7437SOL     OW24848   3.627   5.472   4.909 -0.4087 -0.1893 -0.1629
 7437SOL    HW124849   3.690   5.475   4.981 -0.3116  0.8408 -0.2825
 7437SOL    HW224850   3.680   5.451   4.832 -0.5343 -1.4452  0.0765
 7438SOL     OW24851   0.237   8.430   0.923 -0.4622  0.5954 -0.3601
 7438SOL    HW124852   0.243   8.517   0.962  2.9051 -0.1196  0.8797
 7438SOL    HW224853   0.304   8.429   0.854 -2.3633 -0.1222 -2.2737
 7439SOL     OW24854   1.955   9.298   3.487  0.3418  0.0946  0.1612
 7439SOL    HW124855   1.986   9.216   3.449 -0.7585 -0.6410  0.8269
 7439SOL    HW224856   1.928   9.351   3.413  0.3993 -0.4206 -0.2274
 7440SOL     OW24857   7.130   6.404   1.453 -0.1842 -0.2886  0.0497
 7440SOL    HW124858   7.186   6.328   1.438  2.3438  1.5456 -0.1180
 7440SOL    HW224859   7.086   6.386   1.536  3.5970 -0.1302  2.1817
 7441SOL     OW24860   3.175   2.629   7.127  0.0257 -0.0695 -1.0265
 7441SOL    HW124861   3.121   2.550   7.124  2.0205 -1.4467 -3.4973
 7441SOL    HW224862   3.126   2.694   7.078  0.1083 -1.0051 -2.3795
 7442SOL     OW24863   1.119   0.812   8.175  0.0166  0.2338 -0.6567
 7442SOL    HW124864   1.134   0.745   8.108  1.7416  0.5360 -0.6031
 7442SOL    HW224865   1.157   0.774   8.254 -0.4579  0.6048 -0.2520
 7443SOL     OW24866   7.493   4.303   3.764  0.0463 -0.6686 -0.1218
 7443SOL    HW124867   7.560   4.358   3.723 -1.3787  1.3665  0.1900
 7443SOL    HW224868   7.536   4.263   3.839  0.7576  1.1051  0.4347
 7444SOL     OW24869   3.536   3.955   1.174 -0.4859 -0.2770  0.3206
 7444SOL    HW124870   3.560   3.999   1.255 -1.7500 -0.3687  0.7506
 7444SOL    HW224871   3.479   3.883   1.201  0.8095 -1.6292 -0.4539
 7445SOL     OW24872   7.342   2.805   9.770 -0.2578 -0.1821 -0.5830
 7445SOL    HW124873   7.411   2.743   9.748 -2.7609 -3.1036 -0.6258
 7445SOL    HW224874   7.370   2.888   9.732  2.7759 -1.4866 -1.2986
 7446SOL     OW24875   8.098   5.339   2.319  0.2806 -0.2317 -0.0236
 7446SOL    HW124876   8.082   5.401   2.248 -0.9623 -0.8808 -0.3059
 7446SOL    HW224877   8.036   5.268   2.304 -0.8661  0.2043  2.4046
 7447SOL     OW24878   4.572   1.461   8.701  0.5572  0.7999  0.6020
 7447SOL    HW124879   4.613   1.374   8.706 -0.0639  0.5659  1.8112
 7447SOL    HW224880   4.646   1.522   8.699  1.0460  0.2059 -1.8833
 7448SOL     OW24881   7.689   1.529   2.730 -0.3118 -0.1864 -0.1643
 7448SOL    HW124882   7.595   1.525   2.750 -0.1396 -0.3751  0.6211
 7448SOL    HW224883   7.712   1.621   2.746  0.0083 -0.5178  1.3831
 7449SOL     OW24884   4.263   2.418   8.298 -0.4255 -0.2913  0.3311
 7449SOL    HW124885   4.302   2.497   8.335 -2.2123  0.0687  1.5576
 7449SOL    HW224886   4.308   2.346   8.341  0.5157  0.0747 -0.0412
 7450SOL     OW24887   1.228   6.203   2.228 -0.4472 -0.0010 -0.2040
 7450SOL    HW124888   1.228   6.263   2.154  0.4493 -0.1514 -0.3314
 7450SOL    HW224889   1.309   6.153   2.219 -1.0476 -1.0414  0.0606
 7451SOL     OW24890   5.600   1.978   4.583 -0.0665 -0.5100 -0.4449
 7451SOL    HW124891   5.564   2.063   4.606 -2.1479 -1.3983 -0.3703
 7451SOL    HW224892   5.673   1.966   4.644 -0.5315  0.6725  0.3567
 7452SOL     OW24893   9.699   4.778   7.217  0.0416  0.1774 -0.5822
 7452SOL    HW124894   9.660   4.693   7.197 -1.7867  0.5985  1.0623
 7452SOL    HW224895   9.780   4.757   7.264  0.9802 -0.6772 -2.5316
 7453SOL     OW24896   0.818   9.093   4.130 -0.2013  0.9150  0.2751
 7453SOL    HW124897   0.884   9.094   4.061 -0.6040  2.4260 -0.1073
 7453SOL    HW224898   0.862   9.053   4.205  0.1675 -0.9627 -0.9010
 7454SOL     OW24899   5.723   3.241   2.284  0.3001 -0.3770  0.2347
 7454SOL    HW124900   5.692   3.329   2.301  0.0425 -0.4183 -0.0180
 7454SOL    HW224901   5.645   3.192   2.259  0.0897 -1.2079  2.4547
 7455SOL     OW24902   0.992   8.363   1.665 -0.0373  0.1482 -0.1069
 7455SOL    HW124903   0.906   8.405   1.669 -1.1847 -2.2064  0.5466
 7455SOL    HW224904   1.019   8.352   1.756  0.0454 -0.9129 -0.2470
 7456SOL     OW24905   6.834   1.588   0.040  0.5684  0.1620 -0.3291
 7456SOL    HW124906   6.848   1.552   0.128  0.1507  1.7813  0.4388
 7456SOL    HW224907   6.921   1.594   0.002  0.9506  0.9977  0.6391
 7457SOL     OW24908   7.436   9.459   1.685  0.1220  0.1877  0.1988
 7457SOL    HW124909   7.528   9.433   1.685 -0.1529 -0.8531  0.5514
 7457SOL    HW224910   7.394   9.395   1.743 -0.8439  0.5726 -0.0694
 7458SOL     OW24911   1.197   2.604   5.402  0.6922 -0.3256 -0.3485
 7458SOL    HW124912   1.175   2.555   5.323  1.5762  0.5177 -1.1364
 7458SOL    HW224913   1.116   2.651   5.425 -0.0669 -1.9079  0.2475
 7459SOL     OW24914   7.643   7.188   1.555  0.1582  0.3027 -0.4625
 7459SOL    HW124915   7.705   7.184   1.628  1.3893 -0.0334 -1.4872
 7459SOL    HW224916   7.568   7.136   1.583  1.0926 -0.7465  0.1427
 7460SOL     OW24917   7.256   5.397   7.263 -0.4444  0.2743  0.4224
 7460SOL    HW124918   7.336   5.439   7.292 -0.4960 -0.0059  0.9624
 7460SOL    HW224919   7.285   5.327   7.204 -0.2686 -0.0957  0.9449
 7461SOL     OW24920   7.178   9.882   3.397 -0.2190 -0.0233  0.3321
 7461SOL    HW124921   7.119   9.943   3.351 -0.8103 -0.7489  0.1200
 7461SOL    HW224922   7.244   9.939   3.436  0.0923  0.6452 -1.1256
 7462SOL     OW24923   9.316   9.692   1.492 -0.3741 -0.2208 -0.0773
 7462SOL    HW124924   9.228   9.686   1.456 -0.3054 -3.5345  0.1885
 7462SOL    HW224925   9.366   9.738   1.424 -1.5123 -1.4433 -1.8086
 7463SOL     OW24926   3.160   3.048   7.449  0.3759 -0.0032 -0.0526
 7463SOL    HW124927   3.161   2.962   7.407  0.1914 -0.2320  0.4097
 7463SOL    HW224928   3.067   3.072   7.454  0.5530  1.3449 -2.4503
 7464SOL     OW24929   7.881   6.611   5.119 -0.5080  0.7578 -0.0121
 7464SOL    HW124930   7.922   6.688   5.158  0.6032  0.7673 -1.1976
 7464SOL    HW224931   7.850   6.640   5.034  0.6847 -0.3341 -0.8281
 7465SOL     OW24932   3.744   5.319   2.546  0.2462  0.2049  0.3946
 7465SOL    HW124933   3.664   5.356   2.584  1.1652  2.2919  0.3372
 7465SOL    HW224934   3.712   5.261   2.477 -1.2339  1.0203  0.3652
 7466SOL     OW24935  10.003   7.424   3.193  0.3255  0.3319 -0.3211
 7466SOL    HW124936   9.912   7.451   3.194 -0.2172 -1.4086 -1.1574
 7466SOL    HW224937  10.015   7.381   3.108  1.7344 -0.0885  0.0659
 7467SOL     OW24938   8.719   7.139   9.774  0.3470 -0.1900  0.2986
 7467SOL    HW124939   8.740   7.181   9.857  1.5577  0.4783 -0.3231
 7467SOL    HW224940   8.746   7.202   9.707  1.5941 -1.6546 -0.6360
 7468SOL     OW24941   6.618   4.054   0.123 -0.4252  0.1751 -0.0375
 7468SOL    HW124942   6.525   4.072   0.133 -0.7278 -1.8259  0.9818
 7468SOL    HW224943   6.646   4.023   0.209  1.5704  2.3340  0.1400
 7469SOL     OW24944   1.028   7.253   7.377 -0.1659  0.3176  0.4325
 7469SOL    HW124945   1.079   7.280   7.453 -1.4958 -0.6350  1.6857
 7469SOL    HW224946   1.036   7.326   7.316  3.3533 -0.1388  0.2403
 7470SOL     OW24947   6.767   7.307  10.041 -0.3128  0.0200 -0.0556
 7470SOL    HW124948   6.744   7.344  10.126 -0.7888  0.8930 -0.5534
 7470SOL    HW224949   6.860   7.329  10.029  0.2505 -1.7037  1.0401
 7471SOL     OW24950   6.471   8.072   3.989 -0.0433 -0.6058  0.3977
 7471SOL    HW124951   6.395   8.116   4.027 -0.1844  0.1644 -0.7573
 7471SOL    HW224952   6.434   8.000   3.939 -0.2300  1.1172 -2.0575
 7472SOL     OW24953   1.903   8.841   3.919  0.1025 -0.5157  0.3107
 7472SOL    HW124954   1.851   8.887   3.985 -0.7716  0.3808 -0.9789
 7472SOL    HW224955   1.840   8.816   3.852  1.2253 -0.0177 -0.9555
 7473SOL     OW24956   6.715   3.413   2.685 -0.0465 -0.2806  0.1683
 7473SOL    HW124957   6.793   3.366   2.714  0.3729  0.7271  0.7161
 7473SOL    HW224958   6.726   3.421   2.590  1.4532  1.4538  0.4477
 7474SOL     OW24959   2.271   3.229   8.140 -0.1091 -0.3296  0.0238
 7474SOL    HW124960   2.227   3.259   8.061  0.0187 -1.1652 -0.3685
 7474SOL    HW224961   2.211   3.166   8.179 -0.1978  0.1218  0.6284
 7475SOL     OW24962   3.112   4.156   8.346  0.2362 -0.9046  0.3595
 7475SOL    HW124963   3.136   4.246   8.322 -0.3694 -1.1085 -1.0424
 7475SOL    HW224964   3.148   4.102   8.276  0.1585 -1.7095  0.9384
 7476SOL     OW24965   8.400   7.690   7.129  0.0528  0.0082 -0.1800
 7476SOL    HW124966   8.360   7.703   7.215 -0.8493 -2.4430 -0.1735
 7476SOL    HW224967   8.372   7.765   7.077 -0.6680  0.7101  1.2060
 7477SOL     OW24968   8.889   4.683   6.389 -0.1820  0.1558 -0.2556
 7477SOL    HW124969   8.842   4.641   6.317  1.3182  1.5719 -2.1078
 7477SOL    HW224970   8.863   4.775   6.385 -0.6853  0.1193  1.5361
 7478SOL     OW24971   8.686   8.145   4.721  0.6065 -0.1581 -0.2331
 7478SOL    HW124972   8.744   8.070   4.704 -0.9559 -1.2042 -1.1552
 7478SOL    HW224973   8.615   8.134   4.658 -1.1863  0.4382  1.6303
 7479SOL     OW24974   7.786   0.708   8.487  0.0633 -0.0265 -0.2965
 7479SOL    HW124975   7.808   0.795   8.521  0.8795 -0.4317  0.2135
 7479SOL    HW224976   7.720   0.725   8.419 -2.6708  0.6727  2.4295
 7480SOL     OW24977   1.782   2.914   9.701 -0.0193  0.2069 -0.4264
 7480SOL    HW124978   1.841   2.926   9.776 -0.1653  0.0084 -0.2792
 7480SOL    HW224979   1.795   2.992   9.647 -1.2774  1.2242  0.7223
 7481SOL     OW24980   2.036   2.318   0.615 -0.4035  0.1342 -0.1987
 7481SOL    HW124981   2.005   2.319   0.706 -2.1213 -2.0254 -0.7268
 7481SOL    HW224982   2.081   2.233   0.607 -0.9755 -0.0298 -1.6037
 7482SOL     OW24983   4.413   5.197   4.872 -0.2821  0.0442  0.4118
 7482SOL    HW124984   4.413   5.219   4.965  0.8847  1.3707  0.1194
 7482SOL    HW224985   4.506   5.196   4.848 -0.5303 -1.1471 -0.5397
 7483SOL     OW24986   6.607   1.950   8.593 -0.0847  0.1933 -0.6462
 7483SOL    HW124987   6.666   1.875   8.605 -1.1563 -0.7313 -0.9761
 7483SOL    HW224988   6.524   1.920   8.631  0.0085  1.9669  1.0084
 7484SOL     OW24989   7.180   7.456   9.589 -0.4179 -0.1144 -0.3596
 7484SOL    HW124990   7.097   7.455   9.638  0.7437 -1.8516  1.6544
 7484SOL    HW224991   7.242   7.499   9.648  0.6928 -1.0736 -0.7953
 7485SOL     OW24992   1.816   4.255   3.528 -0.0648 -0.0687  0.6455
 7485SOL    HW124993   1.725   4.247   3.500  0.4787  1.0651 -1.5055
 7485SOL    HW224994   1.813   4.315   3.602 -1.1139 -0.4460  0.9187
 7486SOL     OW24995   3.776   2.321   1.800 -0.3382  0.5707  0.1144
 7486SOL    HW124996   3.834   2.301   1.873 -2.1657 -2.6680  0.7642
 7486SOL    HW224997   3.730   2.401   1.826 -0.6179 -0.2756  2.3313
 7487SOL     OW24998   8.291   6.799   5.698  0.1678  0.5550  0.2172
 7487SOL    HW124999   8.347   6.875   5.710  0.8449  0.0809  0.0823
 7487SOL    HW225000   8.204   6.835   5.680  0.5217  1.2917 -0.0006
 7488SOL     OW25001   6.553   9.803   1.978  0.6657  0.0146  0.2346
 7488SOL    HW125002   6.459   9.816   1.991  0.6245 -0.1604  0.1177
 7488SOL    HW225003   6.558   9.752   1.897  0.8261 -0.6987  0.6900
 7489SOL     OW25004   9.696   6.437   8.796  0.3166 -0.1588  0.5185
 7489SOL    HW125005   9.694   6.342   8.780 -0.5652  0.1147 -1.0936
 7489SOL    HW225006   9.764   6.449   8.861  0.4975 -1.9037  0.6685
 7490SOL     OW25007   0.293   3.716   3.982  0.9036  0.2270 -0.2702
 7490SOL    HW125008   0.288   3.625   4.012  1.8792  0.1780 -0.2402
 7490SOL    HW225009   0.203   3.738   3.959  0.7346 -0.9350 -0.8075
 7491SOL     OW25010   8.460   6.193   1.409 -0.0045 -0.2987 -0.3571
 7491SOL    HW125011   8.548   6.166   1.434  0.5191  0.9239 -0.8289
 7491SOL    HW225012   8.471   6.231   1.322 -1.0625 -0.4743 -0.5714
 7492SOL     OW25013   2.566  10.145   7.905 -0.6738 -0.2724  0.1612
 7492SOL    HW125014   2.562  10.056   7.940 -2.9470 -0.5787 -0.8310
 7492SOL    HW225015   2.649  10.148   7.856 -0.5716 -1.8247  0.2251
 7493SOL     OW25016   7.955   4.418   0.687 -0.5238 -0.1512  0.3079
 7493SOL    HW125017   7.985   4.333   0.656  1.1774  1.1669 -1.8128
 7493SOL    HW225018   7.934   4.404   0.779  0.7306 -2.6044  0.2560
 7494SOL     OW25019   1.687   6.597   9.671  0.0852  0.6650  0.2879
 7494SOL    HW125020   1.682   6.542   9.749  1.4405  0.4585  0.2558
 7494SOL    HW225021   1.652   6.681   9.698 -1.1122  0.0811  0.6110
 7495SOL     OW25022   1.054   5.624   5.684 -0.3706 -0.2486 -0.5810
 7495SOL    HW125023   0.975   5.667   5.652  0.9179  1.1206 -1.9942
 7495SOL    HW225024   1.051   5.636   5.779 -1.4464  0.5085 -0.7051
 7496SOL     OW25025   7.081   6.322   8.349 -0.2169 -0.4834 -0.3706
 7496SOL    HW125026   7.133   6.329   8.269 -0.1980  0.7373 -0.2533
 7496SOL    HW225027   7.077   6.411   8.383 -1.1770 -0.8097  0.3902
 7497SOL     OW25028   4.306   5.841   7.886  0.0222 -0.3109 -0.4047
 7497SOL    HW125029   4.376   5.887   7.839 -0.8049  0.9742 -0.4018
 7497SOL    HW225030   4.292   5.761   7.836  1.7723 -0.7822 -0.1788
 7498SOL     OW25031   2.074   9.140   9.102  0.3722  0.4328  0.2601
 7498SOL    HW125032   2.077   9.236   9.104  3.1407  0.3724  0.7319
 7498SOL    HW225033   2.065   9.118   9.010 -1.9372  1.1397  0.2822
 7499SOL     OW25034   1.700   6.010   3.556 -0.0392  0.1746  0.0437
 7499SOL    HW125035   1.683   6.105   3.558 -0.8153  0.0578 -0.7648
 7499SOL    HW225036   1.792   6.003   3.530  0.5255  0.7430  1.7928
 7500SOL     OW25037   7.359   0.621   1.569  0.0780  0.8037  0.0028
 7500SOL    HW125038   7.376   0.539   1.615  1.7481  0.0380 -1.9187
 7500SOL    HW225039   7.321   0.678   1.636  0.6447 -0.8980  1.8324
 7501SOL     OW25040   9.715   4.976   0.157  0.5987 -0.2835 -0.1225
 7501SOL    HW125041   9.628   5.014   0.151  1.2508  1.0554 -1.4663
 7501SOL    HW225042   9.719   4.914   0.084  0.2952 -1.3806  0.7763
 7502SOL     OW25043   1.922   0.131   1.392 -0.4656 -0.5093 -0.7865
 7502SOL    HW125044   2.006   0.087   1.383 -1.2271 -2.2283  0.2048
 7502SOL    HW225045   1.926   0.204   1.330  2.0841 -0.0103 -0.0922
 7503SOL     OW25046   7.185   1.197   0.282 -0.6977  0.1397 -0.4585
 7503SOL    HW125047   7.262   1.254   0.281  0.5451 -1.5112 -0.6391
 7503SOL    HW225048   7.193   1.143   0.204 -2.4552  0.4586 -0.8886
 7504SOL     OW25049   9.487   4.482   7.441 -0.4582 -0.1422  0.0881
 7504SOL    HW125050   9.481   4.390   7.416  1.3095 -0.3294  0.3077
 7504SOL    HW225051   9.577   4.507   7.420 -0.4996  1.1427  1.3434
 7505SOL     OW25052   4.691   7.984   4.506  0.4443  0.2444  0.0331
 7505SOL    HW125053   4.703   8.051   4.573 -0.8927  0.4422  0.0862
 7505SOL    HW225054   4.742   8.016   4.431 -1.7665  2.3361 -0.6472
 7506SOL     OW25055   1.616   1.019   2.389  0.9112  0.1458 -0.0274
 7506SOL    HW125056   1.525   0.992   2.377  0.4986  1.5889 -0.1817
 7506SOL    HW225057   1.627   1.094   2.331  2.5447 -0.7191 -0.8831
 7507SOL     OW25058   0.683   3.253   6.360 -0.5832 -0.2459 -0.0169
 7507SOL    HW125059   0.641   3.191   6.300  0.3492 -1.0427  0.1348
 7507SOL    HW225060   0.752   3.202   6.402  0.5689  1.0555 -0.3079
 7508SOL     OW25061   9.654   9.633   1.967 -0.1752  0.4346 -0.2031
 7508SOL    HW125062   9.625   9.645   1.876 -0.9709  1.1584  0.1377
 7508SOL    HW225063   9.586   9.578   2.006  0.7589 -0.8584 -0.3391
 7509SOL     OW25064   6.067   6.728   7.292  0.2979 -0.5768  0.0643
 7509SOL    HW125065   6.154   6.717   7.253 -0.1834 -2.4044 -0.5073
 7509SOL    HW225066   6.058   6.656   7.354  0.1649  1.0385  2.0045
 7510SOL     OW25067   4.535   1.526   9.817  0.1921  0.4639 -0.0790
 7510SOL    HW125068   4.491   1.572   9.888  0.2423  1.6324 -0.8025
 7510SOL    HW225069   4.593   1.591   9.778  0.4908 -0.2938 -0.9197
 7511SOL     OW25070   2.867   4.802   7.534 -0.5747  0.3915 -0.1217
 7511SOL    HW125071   2.962   4.789   7.541 -0.5679  0.8326  0.6233
 7511SOL    HW225072   2.856   4.861   7.460 -0.0142  3.3468  2.0698
 7512SOL     OW25073   0.105   3.264   5.575 -0.0127 -0.1400 -0.6615
 7512SOL    HW125074   0.168   3.213   5.627  0.1886  0.4063 -0.3647
 7512SOL    HW225075   0.023   3.256   5.623  0.2156  0.5139 -0.1570
 7513SOL     OW25076   9.292   7.515   0.810  0.2788  0.2227  0.4789
 7513SOL    HW125077   9.273   7.456   0.738 -0.1992  2.3137 -1.1589
 7513SOL    HW225078   9.387   7.522   0.812  0.3002 -0.0037  0.1945
 7514SOL     OW25079   2.696   9.128   5.708  0.4354  0.1692  0.3507
 7514SOL    HW125080   2.605   9.159   5.701  1.2085  2.5609  0.6708
 7514SOL    HW225081   2.688   9.043   5.752 -1.5738  0.7645  1.2297
 7515SOL     OW25082   9.015   8.170   4.860  0.2373 -0.2255 -0.3642
 7515SOL    HW125083   9.097   8.183   4.811  0.0132 -1.5632 -1.1324
 7515SOL    HW225084   8.949   8.215   4.808  0.7042  2.0577  0.9923
 7516SOL     OW25085   3.620   8.875   1.706  0.9599 -0.1085  0.3770
 7516SOL    HW125086   3.621   8.779   1.708  2.8847 -0.1024  0.9989
 7516SOL    HW225087   3.674   8.898   1.631 -0.1813  0.4962 -0.2682
 7517SOL     OW25088   3.026   7.310   2.848  0.1420 -0.1452 -0.7591
 7517SOL    HW125089   3.110   7.354   2.866 -1.4238  2.4356  0.6752
 7517SOL    HW225090   3.031   7.228   2.897  0.1002  2.0808  3.2603
 7518SOL     OW25091   7.895   1.738   4.181  0.4526  0.0352  0.4868
 7518SOL    HW125092   7.875   1.664   4.238  0.7790  0.3212  0.9863
 7518SOL    HW225093   7.814   1.789   4.178 -0.4161 -1.4205 -1.5383
 7519SOL     OW25094   2.995   2.785   9.965  0.3312  0.0403 -0.4096
 7519SOL    HW125095   2.920   2.732   9.937 -0.4969  0.8889  0.1794
 7519SOL    HW225096   3.070   2.744   9.922 -0.1977 -2.0233  0.5718
 7520SOL     OW25097   9.820   7.576   6.340 -0.1393  0.2903  0.3950
 7520SOL    HW125098   9.766   7.572   6.262 -2.1497  0.0585  1.7768
 7520SOL    HW225099   9.760   7.601   6.410  1.3357 -0.9509  2.1489
 7521SOL     OW25100   5.813   2.186   1.950 -0.0526 -0.1098  0.0828
 7521SOL    HW125101   5.865   2.265   1.939  0.2823 -0.6039 -2.1659
 7521SOL    HW225102   5.851   2.123   1.889 -2.4533 -0.9052 -0.6680
 7522SOL     OW25103   3.455   0.493   9.692 -0.1565 -0.1261  0.0709
 7522SOL    HW125104   3.387   0.559   9.706  1.0627  1.3666 -0.8212
 7522SOL    HW225105   3.500   0.522   9.613  0.0265 -2.3819 -0.6716
 7523SOL     OW25106   4.278   6.412   9.632 -0.0626  0.1021 -0.0132
 7523SOL    HW125107   4.239   6.499   9.622  0.0825  0.1834  0.1366
 7523SOL    HW225108   4.370   6.429   9.651  0.1908 -0.1035 -1.0141
 7524SOL     OW25109   6.657   3.802   4.248 -0.1280 -0.0379  0.1568
 7524SOL    HW125110   6.651   3.711   4.219  0.3239 -0.0883  0.2141
 7524SOL    HW225111   6.719   3.800   4.322 -0.7563  0.1877  0.6982
 7525SOL     OW25112   6.449   6.922   0.206  0.1980 -0.2750  0.0223
 7525SOL    HW125113   6.375   6.880   0.161  0.4313  0.5990 -1.2165
 7525SOL    HW225114   6.409   6.991   0.259 -0.2683 -2.5225  2.7045
 7526SOL     OW25115   5.481   5.719   6.011  0.6301 -0.7672 -0.0344
 7526SOL    HW125116   5.542   5.791   6.030 -3.8209  3.1835  0.4493
 7526SOL    HW225117   5.492   5.703   5.918 -1.4107  3.9244 -1.2419
 7527SOL     OW25118   4.450   4.164   4.018 -0.3309  0.3011 -0.3370
 7527SOL    HW125119   4.369   4.114   4.030  0.6917 -1.2653  0.3749
 7527SOL    HW225120   4.435   4.246   4.065 -1.3664 -0.1354  0.1147
 7528SOL     OW25121   1.835   9.452   2.909  0.2429  0.1448 -0.1294
 7528SOL    HW125122   1.744   9.473   2.887 -0.3103  0.6848  2.4930
 7528SOL    HW225123   1.887   9.508   2.852 -1.0869  0.7379 -0.7872
 7529SOL     OW25124   8.396   5.702   8.598  0.0190  0.2520 -0.2284
 7529SOL    HW125125   8.446   5.733   8.522  2.0744 -0.3186  0.8676
 7529SOL    HW225126   8.388   5.779   8.655  2.3971 -0.4183  1.0433
 7530SOL     OW25127   4.184   9.823   5.205  0.1948  1.0549  0.2897
 7530SOL    HW125128   4.236   9.899   5.180  0.8574  0.4497 -0.1704
 7530SOL    HW225129   4.202   9.812   5.299  1.6914  0.2316 -0.0840
 7531SOL     OW25130   9.784   6.616   4.179  0.1829  0.4794 -0.2259
 7531SOL    HW125131   9.867   6.573   4.159  0.9288  0.8645  1.9114
 7531SOL    HW225132   9.806   6.709   4.185 -0.4143  0.5966  0.2399
 7532SOL     OW25133   8.016   2.665   9.556  0.4533  0.4599 -0.2151
 7532SOL    HW125134   8.039   2.743   9.506 -0.6632  1.0501  0.1677
 7532SOL    HW225135   7.977   2.605   9.492  0.3683  0.6238 -0.3137
 7533SOL     OW25136   3.850   7.162   5.846 -0.1857 -0.1017  0.2512
 7533SOL    HW125137   3.817   7.248   5.871  0.0492  0.3652 -0.9818
 7533SOL    HW225138   3.919   7.143   5.909 -1.5301 -0.2509  1.7090
 7534SOL     OW25139   2.644   2.194   8.243  0.1600 -0.2687 -0.6142
 7534SOL    HW125140   2.584   2.253   8.289 -0.1278  0.2946 -1.6928
 7534SOL    HW225141   2.695   2.251   8.185 -0.1685 -1.0655 -1.7203
 7535SOL     OW25142   6.876   7.277   8.152 -0.3169 -0.3130  0.2093
 7535SOL    HW125143   6.875   7.193   8.198  0.8000 -1.2915 -1.4954
 7535SOL    HW225144   6.967   7.286   8.121 -0.5326  1.3253  0.0296
 7536SOL     OW25145   7.964   6.670   0.243  0.2626 -0.1128 -0.1140
 7536SOL    HW125146   7.989   6.741   0.183 -1.5341 -0.2176 -1.0258
 7536SOL    HW225147   8.007   6.692   0.325  1.4678  0.8896 -0.9818
 7537SOL     OW25148   7.932   2.020   1.862  0.3626 -0.1280 -0.1613
 7537SOL    HW125149   7.911   2.018   1.768 -0.4310 -2.6524  0.0246
 7537SOL    HW225150   7.914   1.931   1.892 -1.2904  1.1268  2.8074
 7538SOL     OW25151   6.274   8.590   6.091 -0.2772  0.7087  0.4182
 7538SOL    HW125152   6.218   8.616   6.164 -1.0506 -0.6908  0.3369
 7538SOL    HW225153   6.352   8.645   6.100 -0.0357  0.0397  2.7374
 7539SOL     OW25154   9.935  10.046   9.759 -0.3296 -0.1275 -0.0393
 7539SOL    HW125155   9.983   9.967   9.783  0.1767  0.1671 -0.0702
 7539SOL    HW225156   9.872  10.017   9.693  0.1922 -0.4080 -0.4128
 7540SOL     OW25157   5.332   6.354   4.672 -0.2105  0.0468 -0.0176
 7540SOL    HW125158   5.301   6.304   4.596 -2.1718  2.2760 -0.7239
 7540SOL    HW225159   5.391   6.419   4.635  1.7204 -1.1800  0.8169
 7541SOL     OW25160   3.315   9.494   5.177  0.6187  0.3540 -0.1233
 7541SOL    HW125161   3.243   9.433   5.161  0.7190  0.4306 -0.9137
 7541SOL    HW225162   3.392   9.438   5.189  0.4241  0.2717  0.7580
 7542SOL     OW25163   8.646   8.655   3.073  0.0973  0.1049  0.3910
 7542SOL    HW125164   8.625   8.656   2.979  0.1194  1.6934  0.3809
 7542SOL    HW225165   8.640   8.563   3.098  1.8880 -0.5981 -1.5668
 7543SOL     OW25166   2.240   7.648   8.934 -0.0001 -0.0484 -0.6948
 7543SOL    HW125167   2.144   7.639   8.938  0.0620  0.1241  1.9063
 7543SOL    HW225168   2.256   7.740   8.957  0.8095 -0.1900 -0.6960
 7544SOL     OW25169   2.662   8.066   8.462 -0.4668 -0.2490 -0.1758
 7544SOL    HW125170   2.611   8.030   8.535 -0.2362  0.2035  0.2145
 7544SOL    HW225171   2.612   8.043   8.384 -0.7336 -0.7092  0.1256
 7545SOL     OW25172   1.076   1.948   4.229  0.1482  0.2975 -0.0656
 7545SOL    HW125173   1.111   1.981   4.147 -2.3083  0.0864 -1.2484
 7545SOL    HW225174   1.044   1.860   4.208 -1.3608  0.6057  0.8715
 7546SOL     OW25175   3.514   5.479   1.909  0.5310 -1.0952 -0.1052
 7546SOL    HW125176   3.456   5.448   1.839 -0.6589  0.8033 -0.0128
 7546SOL    HW225177   3.454   5.510   1.977  1.6550  0.8381  0.0290
 7547SOL     OW25178   0.661   5.510   9.856  0.0742  0.4493 -0.2950
 7547SOL    HW125179   0.594   5.457   9.811  0.7365  1.5970 -2.7236
 7547SOL    HW225180   0.744   5.469   9.831  0.4314  0.8067  0.3008
 7548SOL     OW25181   8.880   2.155   0.158 -0.4529 -0.4545 -0.2539
 7548SOL    HW125182   8.803   2.192   0.116  0.0447  1.7286  0.6998
 7548SOL    HW225183   8.845   2.096   0.225 -1.3126  0.5308  0.1790
 7549SOL     OW25184   4.383   6.733   5.365 -0.4736 -0.5264 -0.4682
 7549SOL    HW125185   4.421   6.736   5.277  1.8152 -0.8171  0.4911
 7549SOL    HW225186   4.456   6.751   5.424 -2.0903  0.2497  1.3713
 7550SOL     OW25187   6.165   9.061   3.571 -0.8593  0.0855 -0.5186
 7550SOL    HW125188   6.147   9.100   3.657  1.9445  0.2858  0.0535
 7550SOL    HW225189   6.147   9.131   3.509  0.2483  1.0223  0.1861
 7551SOL     OW25190   3.246   3.571   8.355  0.2307 -0.0549  0.5265
 7551SOL    HW125191   3.255   3.476   8.342  0.3759 -0.2600  1.9426
 7551SOL    HW225192   3.189   3.600   8.284  0.8026 -1.0761 -0.3703
 7552SOL     OW25193   3.117   9.081   0.320  0.5602  0.1428 -0.2470
 7552SOL    HW125194   3.028   9.060   0.291  0.6174  1.2528 -1.2454
 7552SOL    HW225195   3.115   9.065   0.414 -1.6371  3.2702  0.3206
 7553SOL     OW25196   3.652   8.423   4.327  0.4908  0.2082 -0.0083
 7553SOL    HW125197   3.644   8.348   4.387  1.3190  1.4360  1.6761
 7553SOL    HW225198   3.705   8.391   4.255  2.4427 -0.3115  1.6145
 7554SOL     OW25199   0.777   2.818   0.651  0.2685 -0.4577  0.3242
 7554SOL    HW125200   0.719   2.744   0.631 -0.9014 -0.2412  2.7660
 7554SOL    HW225201   0.719   2.894   0.650  1.4338  0.4340 -1.9955
 7555SOL     OW25202   2.560   4.867   6.861 -0.4459 -0.0780  0.1496
 7555SOL    HW125203   2.631   4.805   6.848 -0.0773  0.2151  0.7478
 7555SOL    HW225204   2.602   4.944   6.899 -0.6125  1.1921 -2.1043
 7556SOL     OW25205   9.391   2.312   6.180  0.7889 -0.5918 -0.2105
 7556SOL    HW125206   9.364   2.375   6.113  0.3567 -0.3212  0.2184
 7556SOL    HW225207   9.334   2.330   6.255  0.7204 -1.4418 -0.0561
 7557SOL     OW25208   0.136   6.351   6.546 -0.2047 -1.2067  0.7638
 7557SOL    HW125209   0.208   6.349   6.609  1.3407  0.6153 -0.9227
 7557SOL    HW225210   0.112   6.443   6.539  0.8246 -1.1427 -2.6140
 7558SOL     OW25211   5.390   9.627   6.851 -0.1047  0.1917  0.0368
 7558SOL    HW125212   5.364   9.537   6.871  2.7699 -1.2031 -2.0863
 7558SOL    HW225213   5.391   9.671   6.936 -2.1476 -1.5890  1.0344
 7559SOL     OW25214   7.693   8.907   5.351 -0.1837  0.8573  0.0384
 7559SOL    HW125215   7.623   8.890   5.288  0.4977  0.3056 -0.5747
 7559SOL    HW225216   7.665   8.862   5.430  0.6353 -1.4890 -0.9513
 7560SOL     OW25217   0.969   2.355   2.194 -0.2610  0.3111  0.2303
 7560SOL    HW125218   1.012   2.313   2.269  1.1847  1.3260 -0.0150
 7560SOL    HW225219   0.935   2.438   2.230 -1.6728 -0.2932  0.3226
 7561SOL     OW25220   9.735   7.283   9.790 -0.2978 -0.5229 -0.0280
 7561SOL    HW125221   9.749   7.280   9.695 -0.3677  1.1663 -0.1232
 7561SOL    HW225222   9.640   7.283   9.800 -0.2852 -2.1738  0.1210
 7562SOL     OW25223   9.536   7.318   2.576  0.0003  0.4092  0.1854
 7562SOL    HW125224   9.604   7.376   2.610  1.6244  0.8607 -3.5539
 7562SOL    HW225225   9.471   7.378   2.539 -0.3924 -0.1021  0.0478
 7563SOL     OW25226   6.437   4.656   6.633 -0.0368  0.3372  0.0011
 7563SOL    HW125227   6.412   4.690   6.719 -0.1857  0.9328 -0.2764
 7563SOL    HW225228   6.521   4.612   6.648 -1.8116 -2.8599  1.2274
 7564SOL     OW25229   7.353   3.259   6.085 -0.2429  0.6065  0.1414
 7564SOL    HW125230   7.386   3.181   6.129  0.6551  0.6046 -0.5203
 7564SOL    HW225231   7.329   3.319   6.156 -0.5527 -0.1091  0.6398
 7565SOL     OW25232   8.171   4.933   8.305 -0.2187  0.6253  0.3153
 7565SOL    HW125233   8.183   4.839   8.295 -0.1634  0.7148 -0.4910
 7565SOL    HW225234   8.255   4.971   8.277 -0.4691  0.9440 -0.0225
 7566SOL     OW25235   7.032   1.664  10.072  0.2317  0.4262  0.3945
 7566SOL    HW125236   7.076   1.744  10.041  1.3259 -0.6994 -1.0102
 7566SOL    HW225237   7.094   1.594  10.053 -1.2836 -0.9196  0.3960
 7567SOL     OW25238   2.773   8.901   4.010 -0.3042 -0.6454 -0.3440
 7567SOL    HW125239   2.851   8.936   3.967  0.2124 -0.4761  0.7108
 7567SOL    HW225240   2.807   8.856   4.087 -1.3622  0.9038  1.0740
 7568SOL     OW25241   8.139   8.121   3.166 -0.4524 -0.0669  0.1573
 7568SOL    HW125242   8.189   8.046   3.196  2.2642  1.0916 -1.2800
 7568SOL    HW225243   8.055   8.085   3.138  0.3068 -2.3544  0.7747
 7569SOL     OW25244   5.335   9.305   1.279 -0.0621  0.1729 -0.3445
 7569SOL    HW125245   5.394   9.378   1.264 -0.0440  0.4003  0.7369
 7569SOL    HW225246   5.281   9.300   1.201  0.2888  1.0138 -0.6375
 7570SOL     OW25247   8.027   7.465   0.285 -0.8588 -0.0125  0.2745
 7570SOL    HW125248   7.988   7.468   0.198 -0.3471  0.2889  0.0548
 7570SOL    HW225249   7.968   7.518   0.339 -1.2363 -0.2903  0.1353
 7571SOL     OW25250   0.607   8.159   6.953 -0.1538  0.4645 -1.2704
 7571SOL    HW125251   0.591   8.234   6.897 -3.6205 -0.2285 -1.3284
 7571SOL    HW225252   0.534   8.159   7.015  2.4383 -0.0247  1.9133
 7572SOL     OW25253   3.901   8.148   6.965  0.5878 -0.4911 -0.0518
 7572SOL    HW125254   3.942   8.108   6.888  0.4432  0.3181 -0.5646
 7572SOL    HW225255   3.812   8.112   6.966  0.9335 -1.3193  0.3539
 7573SOL     OW25256   9.879   7.086   3.706 -0.1118  0.1040 -0.4370
 7573SOL    HW125257   9.897   7.021   3.773 -2.0974 -2.3415 -2.1762
 7573SOL    HW225258   9.958   7.086   3.651  0.1868 -0.3174 -0.0115
 7574SOL     OW25259   7.323   2.758   7.532  0.2652 -0.0757  0.1101
 7574SOL    HW125260   7.406   2.755   7.485  0.7018  0.4564  0.8264
 7574SOL    HW225261   7.348   2.770   7.624 -0.6124  0.6422  0.2693
 7575SOL     OW25262   5.328   6.206   6.958  0.5147  0.4729  0.0375
 7575SOL    HW125263   5.276   6.284   6.938  1.7128  1.0339 -1.0043
 7575SOL    HW225264   5.275   6.133   6.927 -0.4366  0.8905  0.6363
 7576SOL     OW25265   1.000   9.837   6.842  0.2012 -0.0908 -0.7627
 7576SOL    HW125266   0.908   9.849   6.866 -0.0600 -3.4695  0.2496
 7576SOL    HW225267   1.001   9.842   6.747 -1.4610 -2.3433 -0.9404
 7577SOL     OW25268   8.660   2.023   7.833 -0.5206 -0.0744  0.6508
 7577SOL    HW125269   8.719   1.976   7.774  0.2215  1.5699  0.0708
 7577SOL    HW225270   8.689   1.997   7.921  1.7689  1.5180  0.3990
 7578SOL     OW25271   7.984   4.471   2.215  0.2792 -0.0314  0.5287
 7578SOL    HW125272   7.989   4.550   2.162  1.2706 -0.5100 -0.1115
 7578SOL    HW225273   7.890   4.458   2.230  0.0441  0.6259 -0.3313
 7579SOL     OW25274   3.673   1.782   3.220 -0.1212  0.1571  0.0380
 7579SOL    HW125275   3.684   1.761   3.312  0.4754 -0.0232 -0.0709
 7579SOL    HW225276   3.727   1.717   3.174 -0.3387  0.3049 -0.4284
 7580SOL     OW25277   1.744   0.231   9.973  0.0608 -0.1512 -0.0086
 7580SOL    HW125278   1.665   0.266   9.931  0.7189  0.0966 -1.0610
 7580SOL    HW225279   1.733   0.254  10.066 -2.4852 -2.7094  0.4121
 7581SOL     OW25280   5.656   7.335   7.327 -0.6898  0.0660  0.1674
 7581SOL    HW125281   5.687   7.332   7.237  0.9692  1.0432  0.6766
 7581SOL    HW225282   5.696   7.259   7.369  1.6168  1.6622  0.9783
 7582SOL     OW25283   8.477   2.228   4.594  0.4305  0.5021 -0.1279
 7582SOL    HW125284   8.549   2.230   4.658  0.7484 -0.1199 -0.4560
 7582SOL    HW225285   8.509   2.171   4.525  0.7101  2.4029 -1.6008
 7583SOL     OW25286   7.618   7.486   3.340 -0.1488  0.0973  0.0492
 7583SOL    HW125287   7.601   7.581   3.335 -2.0804 -0.2986 -1.2425
 7583SOL    HW225288   7.664   7.465   3.259  0.1908 -0.1070  0.2906
 7584SOL     OW25289   2.386   8.794   5.998 -0.3963 -0.0865  0.3354
 7584SOL    HW125290   2.472   8.754   5.994  0.3181  1.6376 -2.9654
 7584SOL    HW225291   2.403   8.886   6.017 -1.4358  0.4171 -1.0790
 7585SOL     OW25292   1.745  10.019   8.909  0.1385 -0.0198  0.0976
 7585SOL    HW125293   1.812  10.075   8.867 -0.8175 -0.2146 -1.7482
 7585SOL    HW225294   1.719   9.959   8.840 -1.7481 -0.1299  0.9009
 7586SOL     OW25295   2.198   2.980   7.483  0.3284  0.1076  0.2585
 7586SOL    HW125296   2.225   2.977   7.391 -0.5587 -1.2972  0.0259
 7586SOL    HW225297   2.104   2.967   7.481 -0.0253  2.2197  1.2479
 7587SOL     OW25298   0.596   4.113   3.427  0.1325 -0.0870  0.2848
 7587SOL    HW125299   0.565   4.125   3.517  0.5456 -2.8666  0.8440
 7587SOL    HW225300   0.689   4.135   3.431  0.6412 -2.2613  1.0520
 7588SOL     OW25301   8.238   1.472   4.934  0.0607  0.0995  0.5485
 7588SOL    HW125302   8.149   1.492   4.965 -0.6062 -0.3851 -0.9925
 7588SOL    HW225303   8.259   1.388   4.975 -1.5690 -1.4845 -1.6814
 7589SOL     OW25304   5.165   6.160   5.017 -0.6114  0.2389 -0.0449
 7589SOL    HW125305   5.103   6.088   5.004  0.0685 -0.0554 -1.8313
 7589SOL    HW225306   5.251   6.120   5.005 -0.2019  1.2287 -0.4552
 7590SOL     OW25307   0.215   0.022   8.966  0.2574 -0.3869 -0.0495
 7590SOL    HW125308   0.168  -0.020   9.038 -2.1902  0.4341 -1.1185
 7590SOL    HW225309   0.296   0.055   9.006 -0.7857 -0.4846  2.1882
 7591SOL     OW25310   1.895   6.256   7.484 -0.5238  0.3020  0.0327
 7591SOL    HW125311   1.872   6.167   7.514 -1.2524  0.2675 -0.6152
 7591SOL    HW225312   1.943   6.242   7.403 -1.5388  0.5429 -0.6145
 7592SOL     OW25313   0.547   0.862   2.853  0.4871 -0.3476  0.4777
 7592SOL    HW125314   0.589   0.947   2.835 -0.8363  0.0341 -1.0181
 7592SOL    HW225315   0.619   0.804   2.877  1.5241  0.9815  0.6768
 7593SOL     OW25316   0.437   1.825   8.891  0.5071  1.2573  0.0128
 7593SOL    HW125317   0.370   1.766   8.858 -0.3762  2.7246 -0.8613
 7593SOL    HW225318   0.493   1.770   8.945 -0.3566 -0.3519 -0.7066
 7594SOL     OW25319   5.594   0.456   6.084  0.3478 -0.3662  0.3002
 7594SOL    HW125320   5.589   0.551   6.085 -0.3797 -0.3812 -1.2504
 7594SOL    HW225321   5.534   0.429   6.015 -1.6602 -2.0917  2.6132
 7595SOL     OW25322   4.160   9.758   5.728  0.4544  0.3632 -0.3370
 7595SOL    HW125323   4.134   9.667   5.746 -1.6564  0.8517 -0.8819
 7595SOL    HW225324   4.188   9.792   5.814 -1.6644  0.1299  0.4644
 7596SOL     OW25325   3.178   5.133   0.635  0.2063  0.3376 -0.6497
 7596SOL    HW125326   3.130   5.208   0.600 -0.2707  1.2953  1.9541
 7596SOL    HW225327   3.116   5.060   0.629  0.0735  0.5307 -1.6229
 7597SOL     OW25328   8.575   6.657  10.052 -0.7766 -0.1127 -0.2047
 7597SOL    HW125329   8.608   6.660  10.141 -0.5314 -1.0577 -0.2563
 7597SOL    HW225330   8.637   6.602  10.005 -0.0082  1.6951 -1.3541
 7598SOL     OW25331   8.713   4.790   9.066 -0.8588 -0.4161 -0.0329
 7598SOL    HW125332   8.700   4.884   9.049 -1.4375 -0.5090 -0.1154
 7598SOL    HW225333   8.695   4.748   8.982  1.1572 -0.4532 -0.4545
 7599SOL     OW25334   1.335   7.981   1.237 -0.1273  0.0898 -0.2362
 7599SOL    HW125335   1.257   8.023   1.273  0.6370  1.9495 -0.6938
 7599SOL    HW225336   1.313   7.964   1.145  0.3619  1.5550 -0.6345
 7600SOL     OW25337   4.731   3.290   6.635  0.4358  0.2775  0.7926
 7600SOL    HW125338   4.639   3.285   6.612  0.0659  1.8709  1.8874
 7600SOL    HW225339   4.763   3.200   6.625 -1.7484 -0.7439  2.5314
 7601SOL     OW25340   6.804   6.463   8.920  0.4160  0.0050  0.0534
 7601SOL    HW125341   6.837   6.499   8.837  0.9383 -0.8714 -0.1265
 7601SOL    HW225342   6.795   6.369   8.903  0.4471 -0.1652  0.9712
 7602SOL     OW25343   8.536   4.042   1.042 -0.3888 -0.1504 -0.0538
 7602SOL    HW125344   8.546   3.953   1.009  0.4411 -0.4230  0.8857
 7602SOL    HW225345   8.505   4.093   0.967 -1.3040 -1.3111 -0.4822
 7603SOL     OW25346   2.176   3.249   5.511 -0.1186 -0.1920 -0.7226
 7603SOL    HW125347   2.208   3.165   5.545 -1.5599 -0.2595  0.5185
 7603SOL    HW225348   2.209   3.314   5.572 -0.8226 -0.0808 -0.4579
 7604SOL     OW25349   4.339   4.597   6.019  0.1878 -0.5436 -0.4561
 7604SOL    HW125350   4.420   4.578   6.066  0.8114 -0.6792 -1.5806
 7604SOL    HW225351   4.279   4.629   6.087  1.4406  0.3447  0.2426
 7605SOL     OW25352   2.099   8.186   5.486  0.3679  0.1677  0.2693
 7605SOL    HW125353   2.007   8.161   5.491 -0.2696  2.2446 -0.7280
 7605SOL    HW225354   2.116   8.231   5.568  0.4106  0.1163  0.2899
 7606SOL     OW25355   6.858   4.131   4.001 -0.1720 -0.2012  0.2876
 7606SOL    HW125356   6.950   4.157   4.001  0.2038 -1.4032  2.1632
 7606SOL    HW225357   6.812   4.201   4.047 -0.1422  0.2602 -0.3928
 7607SOL     OW25358   4.865   5.507   7.289 -0.6155 -0.1843 -0.2475
 7607SOL    HW125359   4.953   5.543   7.280 -1.1458  0.9721 -0.9162
 7607SOL    HW225360   4.851   5.455   7.210 -1.8271  2.4852 -1.8378
 7608SOL     OW25361   0.531   7.948   5.530 -0.6661 -0.3489 -0.2146
 7608SOL    HW125362   0.550   7.862   5.566 -0.3900 -0.0053  0.4587
 7608SOL    HW225363   0.529   7.934   5.435  1.5164 -0.6933 -0.2444
 7609SOL     OW25364   4.992   0.514   8.957  0.2378  0.5250 -0.0368
 7609SOL    HW125365   5.028   0.531   8.870  0.8223  0.0347  0.1090
 7609SOL    HW225366   5.020   0.425   8.978  0.5116  0.8255  0.8620
 7610SOL     OW25367   6.654   9.011   9.367 -0.8950 -0.0478  0.2890
 7610SOL    HW125368   6.640   9.089   9.421 -1.3862  0.4006 -0.4767
 7610SOL    HW225369   6.699   9.043   9.289 -0.6231 -0.6172  0.2100
 7611SOL     OW25370   2.460   6.607   7.531 -0.2014 -0.4921 -0.9769
 7611SOL    HW125371   2.496   6.540   7.473  0.0495 -0.3361 -0.9978
 7611SOL    HW225372   2.365   6.592   7.529 -0.0521 -1.5491 -0.1084
 7612SOL     OW25373   1.308   5.531   5.593 -0.3232 -0.1014 -0.2409
 7612SOL    HW125374   1.301   5.577   5.510  0.1298  1.9687  0.8515
 7612SOL    HW225375   1.219   5.534   5.629 -0.2692 -0.0214 -0.1171
 7613SOL     OW25376   2.650   3.880   5.592 -0.6975  0.3053 -0.2832
 7613SOL    HW125377   2.649   3.790   5.623  1.5808  0.1326 -0.5536
 7613SOL    HW225378   2.736   3.889   5.549 -1.1829  2.3790 -0.8887
 7614SOL     OW25379   7.588   6.072   2.780  0.1785  0.2143 -0.2907
 7614SOL    HW125380   7.557   6.150   2.733 -1.9077  0.4190  1.3905
 7614SOL    HW225381   7.671   6.100   2.819  0.4944  0.9220 -1.4327
 7615SOL     OW25382   1.939   0.973   5.059  0.2677  0.2896 -1.0418
 7615SOL    HW125383   2.033   0.966   5.076  0.1665 -0.4982 -0.7927
 7615SOL    HW225384   1.907   0.882   5.061 -0.4091  0.5080 -1.6273
 7616SOL     OW25385   6.591   0.369   5.169 -0.5356 -0.0524  0.3788
 7616SOL    HW125386   6.586   0.363   5.265 -0.3020 -1.2480  0.3216
 7616SOL    HW225387   6.588   0.463   5.151  0.2883  0.2246  1.6067
 7617SOL     OW25388   0.663   1.788   1.828 -0.1270 -0.2052  0.2934
 7617SOL    HW125389   0.670   1.881   1.851 -1.4409 -0.1588  0.5892
 7617SOL    HW225390   0.604   1.787   1.752 -0.6403 -0.8349  0.6897
 7618SOL     OW25391   4.062   0.702   9.586 -0.1464  0.0161  0.0922
 7618SOL    HW125392   4.138   0.696   9.643 -0.6962  0.5871  0.8955
 7618SOL    HW225393   4.038   0.795   9.588 -1.2316 -0.2629  0.3361
 7619SOL     OW25394   8.489   6.525   4.633 -0.2721  0.5557 -0.5411
 7619SOL    HW125395   8.472   6.534   4.727 -0.3848  0.4831 -0.5545
 7619SOL    HW225396   8.406   6.494   4.596  0.2088 -0.9567 -0.4257
 7620SOL     OW25397   5.640   7.960   5.044  0.0337 -0.0047  0.2262
 7620SOL    HW125398   5.580   7.940   4.972 -1.2341  0.6659  1.0747
 7620SOL    HW225399   5.675   8.046   5.022  0.1111 -0.0627  0.1157
 7621SOL     OW25400   4.236   6.645   0.780  0.1932 -0.4247  0.0315
 7621SOL    HW125401   4.310   6.670   0.835 -1.2441  2.5711  0.7028
 7621SOL    HW225402   4.276   6.600   0.706  2.6916  1.0748  0.4006
 7622SOL     OW25403   6.345   6.254   7.813 -0.0374  0.1253  0.5012
 7622SOL    HW125404   6.261   6.258   7.858 -0.2876  0.5116 -0.0016
 7622SOL    HW225405   6.358   6.341   7.777  2.1525  1.1106  3.4124
 7623SOL     OW25406   7.900   3.864   3.238  0.3075 -0.6078  0.5517
 7623SOL    HW125407   7.895   3.867   3.142  1.1376  1.3478  0.5475
 7623SOL    HW225408   7.817   3.899   3.268  0.6618  0.2593  0.5344
 7624SOL     OW25409   2.997   2.423   5.427 -0.1135 -0.2484  0.1882
 7624SOL    HW125410   2.965   2.332   5.425 -0.5153 -0.1022 -0.0890
 7624SOL    HW225411   3.092   2.414   5.435  0.1729 -0.7617 -2.8235
 7625SOL     OW25412   9.825   3.000   4.839 -0.1903  0.3330 -0.0480
 7625SOL    HW125413   9.743   2.952   4.836 -0.3023  0.3994  1.4781
 7625SOL    HW225414   9.805   3.079   4.890  0.8413  0.2891  0.4459
 7626SOL     OW25415   4.273   8.893   9.921 -0.4503 -0.0981  0.0387
 7626SOL    HW125416   4.356   8.845   9.921 -0.2264  0.2787  0.7347
 7626SOL    HW225417   4.210   8.832   9.960 -0.4285 -0.2592 -0.1763
 7627SOL     OW25418   9.793   5.835   4.398 -0.5713 -0.5826 -0.3346
 7627SOL    HW125419   9.838   5.772   4.454  0.4145 -0.6585 -1.1819
 7627SOL    HW225420   9.837   5.826   4.313 -0.3706  1.2934 -0.4568
 7628SOL     OW25421   0.784   2.007   9.738 -0.1597 -0.2191 -0.4028
 7628SOL    HW125422   0.711   2.044   9.688  0.2726  2.9729  1.1484
 7628SOL    HW225423   0.831   1.952   9.676 -1.7378  0.6872 -2.4457
 7629SOL     OW25424   2.297   0.981   6.214 -0.2160 -1.0258 -0.7721
 7629SOL    HW125425   2.311   0.959   6.306  1.0030 -0.9703 -0.9424
 7629SOL    HW225426   2.372   1.034   6.190 -0.0659 -1.7936 -2.0484
 7630SOL     OW25427   3.557   4.864   7.869  0.2940  0.0956  0.0065
 7630SOL    HW125428   3.626   4.834   7.810 -0.3717 -2.3042  0.3945
 7630SOL    HW225429   3.557   4.800   7.940 -0.1094  1.9443  1.7326
 7631SOL     OW25430   3.659   8.589   7.665 -0.4079 -0.1265  0.1685
 7631SOL    HW125431   3.627   8.506   7.701  1.6548 -1.6678 -1.3932
 7631SOL    HW225432   3.674   8.570   7.572  0.4836  1.8938 -0.1180
 7632SOL     OW25433   1.255   8.908   0.328  0.4803  0.4920 -0.0542
 7632SOL    HW125434   1.323   8.959   0.285  0.3346  0.9460  0.2474
 7632SOL    HW225435   1.251   8.827   0.278 -2.2440  2.4638 -3.2025
 7633SOL     OW25436   2.122   0.721   5.521 -0.0023  0.2447 -0.1958
 7633SOL    HW125437   2.117   0.642   5.468  1.1623 -1.0561  1.5779
 7633SOL    HW225438   2.031   0.740   5.544 -0.3104 -0.4168 -0.8418
 7634SOL     OW25439   8.818   2.141   9.732  0.0136  0.1461 -0.8535
 7634SOL    HW125440   8.908   2.140   9.766  0.0997  1.1138 -1.0539
 7634SOL    HW225441   8.807   2.054   9.693  0.3218 -0.5641  0.5809
 7635SOL     OW25442   6.469   2.118   2.412  0.0052  0.5832 -0.2766
 7635SOL    HW125443   6.506   2.030   2.412 -1.8384 -0.2221 -1.0070
 7635SOL    HW225444   6.400   2.115   2.478  0.1499  1.5765 -0.0752
 7636SOL     OW25445   9.608   6.203   3.232 -0.0901 -0.1852 -0.6424
 7636SOL    HW125446   9.516   6.231   3.233 -0.7349 -2.1109  2.4192
 7636SOL    HW225447   9.604   6.110   3.210  1.3352  0.1520 -2.4664
 7637SOL     OW25448   1.687   4.145   1.695 -0.5313 -0.5888  0.3707
 7637SOL    HW125449   1.751   4.118   1.760 -0.1057 -0.1933  0.1194
 7637SOL    HW225450   1.725   4.224   1.655 -1.8223  0.4968  1.2331
 7638SOL     OW25451  10.167   1.380   1.042  0.2152  0.4990  0.3519
 7638SOL    HW125452  10.214   1.297   1.035 -1.7443 -0.7766  1.8012
 7638SOL    HW225453  10.090   1.370   0.986  1.2081  2.2790 -1.3980
 7639SOL     OW25454   0.180   6.580   0.487 -0.0018 -0.1834  0.6340
 7639SOL    HW125455   0.158   6.670   0.508  1.2842  0.5653 -1.0799
 7639SOL    HW225456   0.102   6.546   0.443  0.4798  1.0071 -1.2354
 7640SOL     OW25457   6.317   7.924   0.340  0.4294  0.2167  0.0414
 7640SOL    HW125458   6.314   7.905   0.246  0.1965 -0.2814  0.1473
 7640SOL    HW225459   6.399   7.884   0.370  2.0946  3.0408 -0.5156
 7641SOL     OW25460   5.975   5.030   4.347  0.2160 -0.4436 -0.1771
 7641SOL    HW125461   6.054   5.007   4.299  0.8206  0.7898  0.2275
 7641SOL    HW225462   6.003   5.095   4.411 -0.6576 -1.7481  1.5855
 7642SOL     OW25463   1.505   1.823   3.703  0.1867  0.4416  0.1405
 7642SOL    HW125464   1.519   1.753   3.766 -0.1497  1.4220  1.3129
 7642SOL    HW225465   1.410   1.837   3.703  0.1719  0.3791 -0.6610
 7643SOL     OW25466   2.004   6.819   2.284  0.2371  0.4324 -0.3400
 7643SOL    HW125467   1.974   6.887   2.224 -1.1293  0.0535 -0.0921
 7643SOL    HW225468   2.096   6.842   2.301 -0.4813  2.8662  0.5948
 7644SOL     OW25469   7.780   2.914   3.554  0.2460 -0.4531  0.0221
 7644SOL    HW125470   7.840   2.872   3.492  2.1827 -0.2816  1.7240
 7644SOL    HW225471   7.790   3.007   3.537 -2.1110 -0.5109 -1.9787
 7645SOL     OW25472   8.757   9.893   7.099 -0.0345 -0.1086 -0.7027
 7645SOL    HW125473   8.737   9.800   7.098 -1.6277  0.2120 -0.6758
 7645SOL    HW225474   8.673   9.936   7.082  0.1694  1.3845  1.7433
 7646SOL     OW25475   8.356  10.158   7.291 -0.5877  0.0152  0.5086
 7646SOL    HW125476   8.380  10.072   7.326  0.7538  0.7212  1.3361
 7646SOL    HW225477   8.312  10.138   7.208  1.2434 -1.3957 -0.1544
 7647SOL     OW25478   3.137   4.629   6.525 -0.2039  0.4780 -0.6452
 7647SOL    HW125479   3.057   4.649   6.476  1.1408  0.6329 -2.8087
 7647SOL    HW225480   3.171   4.549   6.485  0.7621  0.4355  0.2341
 7648SOL     OW25481   3.573   1.869   0.379 -0.1266  0.1431  0.3883
 7648SOL    HW125482   3.654   1.915   0.400  0.6416 -1.8980  2.0597
 7648SOL    HW225483   3.596   1.777   0.386 -2.0296 -0.4911 -1.3849
 7649SOL     OW25484   2.073   7.208   5.175  0.4103  0.3741 -0.0376
 7649SOL    HW125485   2.116   7.270   5.117 -0.3816  0.1263 -0.9020
 7649SOL    HW225486   2.143   7.152   5.208  0.5838 -0.9145 -2.5134
 7650SOL     OW25487   4.164   2.953   4.315  0.2579  0.4001 -0.2594
 7650SOL    HW125488   4.082   2.961   4.363  0.2727 -2.3737  0.3116
 7650SOL    HW225489   4.223   3.015   4.360 -0.0816 -1.2352  2.5742
 7651SOL     OW25490   1.314   7.796   5.539 -0.0717  0.9713 -0.0782
 7651SOL    HW125491   1.381   7.857   5.509  1.2446 -0.0971  0.6845
 7651SOL    HW225492   1.288   7.748   5.460  0.9022  0.5777 -0.1595
 7652SOL     OW25493   4.082   5.353   6.426  0.1802 -0.2812 -0.0609
 7652SOL    HW125494   4.090   5.273   6.478  2.1969 -0.7876 -1.0640
 7652SOL    HW225495   4.134   5.418   6.474  0.0959 -0.1029 -0.2108
 7653SOL     OW25496   3.564   2.100   4.165  0.1954 -0.0178  0.2196
 7653SOL    HW125497   3.632   2.130   4.225 -0.4212  0.8327  0.5028
 7653SOL    HW225498   3.596   2.125   4.078  0.2042  0.4707  0.3603
 7654SOL     OW25499   1.293   9.720   7.904 -0.4840  0.0927  0.1457
 7654SOL    HW125500   1.306   9.771   7.824 -0.8533  0.6153  0.4139
 7654SOL    HW225501   1.360   9.652   7.901 -2.2783 -1.6579 -2.0346
 7655SOL     OW25502   5.180   2.599   6.332 -0.1265 -0.2083  0.1766
 7655SOL    HW125503   5.154   2.686   6.301 -1.8932 -0.8832 -0.2785
 7655SOL    HW225504   5.099   2.548   6.332  1.2538 -2.5061 -1.6623
 7656SOL     OW25505   9.039   1.710   5.599 -0.0115 -0.0386 -0.2577
 7656SOL    HW125506   9.068   1.761   5.523  0.3724  0.2450  0.0744
 7656SOL    HW225507   9.025   1.622   5.565  1.0690 -0.1390 -0.4701
 7657SOL     OW25508   2.660   4.315   7.548  0.1585  0.1802 -0.1032
 7657SOL    HW125509   2.721   4.388   7.565  0.2845 -0.1701  0.9953
 7657SOL    HW225510   2.702   4.239   7.587 -1.2299  0.0361  1.1928
 7658SOL     OW25511   0.169   5.726   1.995  0.0699  0.1636 -0.0624
 7658SOL    HW125512   0.123   5.730   1.912  1.9265  1.3282 -1.0817
 7658SOL    HW225513   0.212   5.640   1.995  0.9083  0.5729 -0.7944
 7659SOL     OW25514   0.327   9.713   6.923 -0.0377 -0.0379  0.2897
 7659SOL    HW125515   0.317   9.684   7.013  2.3143 -0.8331  0.3382
 7659SOL    HW225516   0.299   9.804   6.924  2.2417  0.7080  2.4021
 7660SOL     OW25517   6.114   9.541   8.492 -0.6776 -0.1022  0.0184
 7660SOL    HW125518   6.041   9.568   8.436  0.6477 -0.2900 -1.8345
 7660SOL    HW225519   6.093   9.578   8.577 -2.2431  1.0439 -0.8356
 7661SOL     OW25520   2.290   1.216   8.730  0.3829  0.2079  0.0734
 7661SOL    HW125521   2.314   1.130   8.697  1.1111  0.4359  0.0098
 7661SOL    HW225522   2.308   1.212   8.824  0.6045  0.3583  0.0367
 7662SOL     OW25523   5.990   2.632   1.530 -0.0582  0.0979 -0.0544
 7662SOL    HW125524   5.915   2.577   1.555 -0.5265  0.4225 -0.7282
 7662SOL    HW225525   6.047   2.632   1.607  0.0276 -1.4665 -0.0856
 7663SOL     OW25526   8.657   1.486  10.008  0.5673 -0.3109 -0.3502
 7663SOL    HW125527   8.725   1.419  10.012  1.3487  0.4134 -1.3348
 7663SOL    HW225528   8.618   1.476   9.921  0.9803  0.7835 -0.6731
 7664SOL     OW25529   8.687   4.416   3.352 -0.1718  0.4739 -0.3001
 7664SOL    HW125530   8.655   4.408   3.262 -0.3954  1.4044 -0.3112
 7664SOL    HW225531   8.733   4.500   3.354  0.4204  0.1374  0.2804
 7665SOL     OW25532   9.573   1.532   6.520  0.2563 -0.1932 -0.1018
 7665SOL    HW125533   9.594   1.484   6.600  2.1340 -0.9963 -1.0631
 7665SOL    HW225534   9.537   1.616   6.551 -0.8329 -1.2446  1.5726
 7666SOL     OW25535   2.461   3.059   7.097  0.3824  0.3826 -0.5256
 7666SOL    HW125536   2.491   2.971   7.078  0.9527  0.3647  0.4470
 7666SOL    HW225537   2.532   3.099   7.146 -0.0142  1.2709 -0.6626
 7667SOL     OW25538   3.329   1.759   4.792  0.7504 -0.7398  0.1817
 7667SOL    HW125539   3.416   1.797   4.807  1.6870 -2.1514 -1.4678
 7667SOL    HW225540   3.344   1.692   4.726 -1.9994  0.5155 -1.7919
 7668SOL     OW25541   6.401   9.630   7.123 -0.3725  0.1624 -0.0315
 7668SOL    HW125542   6.341   9.640   7.049 -0.1499 -0.6095 -0.3179
 7668SOL    HW225543   6.462   9.562   7.096 -0.6860 -0.5992  1.1266
 7669SOL     OW25544  10.101   5.017   2.246  0.2675 -0.2271  0.0918
 7669SOL    HW125545  10.165   5.014   2.316  0.7690 -0.4132 -0.3712
 7669SOL    HW225546  10.116   4.936   2.196  0.4897  0.3124 -0.7282
 7670SOL     OW25547   6.799   1.059   3.189 -0.1893  0.5444  0.2468
 7670SOL    HW125548   6.854   0.997   3.236 -1.2587 -0.4176  0.2669
 7670SOL    HW225549   6.821   1.045   3.097  1.1582  1.6978  0.3809
 7671SOL     OW25550   4.824   1.836   8.370  0.2757 -0.2411 -0.2080
 7671SOL    HW125551   4.765   1.855   8.442  1.0374  1.0344  0.0935
 7671SOL    HW225552   4.790   1.755   8.331 -0.1695 -0.8895  1.5226
 7672SOL     OW25553   8.900   5.173   7.024  0.3626  0.0033 -0.0742
 7672SOL    HW125554   8.945   5.148   6.944  0.7970  0.6347 -0.0288
 7672SOL    HW225555   8.808   5.152   7.007  0.7739 -2.0876  0.1546
 7673SOL     OW25556   6.240   6.137   1.777  0.3684  0.1374  0.2976
 7673SOL    HW125557   6.168   6.111   1.718  1.9630 -1.1724 -1.1041
 7673SOL    HW225558   6.248   6.231   1.763 -0.7422  0.2134  0.0867
 7674SOL     OW25559   0.449   9.713   0.492 -0.5573  0.0506 -0.5647
 7674SOL    HW125560   0.399   9.639   0.526 -0.5782 -0.3191 -1.3700
 7674SOL    HW225561   0.411   9.729   0.405 -0.6031  1.0589 -0.3603
 7675SOL     OW25562   6.225   9.602   6.864  0.6080 -0.3620  0.2980
 7675SOL    HW125563   6.152   9.552   6.826  2.0478 -1.3709 -1.1981
 7675SOL    HW225564   6.185   9.684   6.894 -1.0089 -0.5537 -1.2537
 7676SOL     OW25565   5.707   6.201   0.453 -0.1668  0.3180 -0.6640
 7676SOL    HW125566   5.723   6.263   0.524  0.6656  0.7144 -1.1818
 7676SOL    HW225567   5.781   6.213   0.394 -0.5819 -0.3751 -1.3381
 7677SOL     OW25568   1.104   2.603   8.099  0.0478 -0.5629 -0.5754
 7677SOL    HW125569   1.198   2.588   8.111 -0.1463 -1.5449 -0.2389
 7677SOL    HW225570   1.065   2.516   8.105 -0.9609 -0.0758 -0.0046
 7678SOL     OW25571   1.371   1.310   2.047 -0.4634  0.3146 -0.4662
 7678SOL    HW125572   1.287   1.351   2.025  0.1464  0.3522 -2.8915
 7678SOL    HW225573   1.436   1.376   2.026  0.2547 -0.1880  0.1534
 7679SOL     OW25574   6.153   8.973   5.925  0.1788 -0.0855 -0.1455
 7679SOL    HW125575   6.230   8.965   5.869  0.1673  0.3701 -0.2319
 7679SOL    HW225576   6.188   8.999   6.010  0.1197  0.1628 -0.1955
 7680SOL     OW25577   7.422   6.400   0.325 -0.2467 -1.3448 -0.3425
 7680SOL    HW125578   7.479   6.369   0.255 -0.6851 -0.6503 -1.0213
 7680SOL    HW225579   7.366   6.466   0.282 -1.6953 -2.1703  0.2562
 7681SOL     OW25580   8.237   6.545   8.255 -0.1057 -0.0995  0.3142
 7681SOL    HW125581   8.267   6.457   8.277  0.7978 -0.1250 -0.9784
 7681SOL    HW225582   8.273   6.601   8.323  1.2201 -0.4239 -0.1034
 7682SOL     OW25583   2.488   3.283   5.252  0.0331 -0.2525 -0.3564
 7682SOL    HW125584   2.421   3.217   5.233 -0.6290 -0.4314  2.2857
 7682SOL    HW225585   2.439   3.365   5.255 -0.2068 -0.4255  1.9005
 7683SOL     OW25586   7.203   5.012   9.079 -0.6189  0.0472 -0.4454
 7683SOL    HW125587   7.156   5.094   9.091 -2.1883 -0.7653 -0.9485
 7683SOL    HW225588   7.284   5.037   9.035 -0.1349  1.5729  1.2455
 7684SOL     OW25589   6.201   8.557   2.588 -0.5034 -0.0722  0.1768
 7684SOL    HW125590   6.201   8.532   2.496 -1.3323 -0.8340  0.3785
 7684SOL    HW225591   6.180   8.650   2.588  1.3624  0.3874 -0.5109
 7685SOL     OW25592   6.782   1.503   5.943  0.3559  0.3457  1.0889
 7685SOL    HW125593   6.841   1.480   5.872 -0.6721  2.6824 -0.5858
 7685SOL    HW225594   6.707   1.444   5.932  0.5836  0.1186  0.7639
 7686SOL     OW25595   3.530   9.704   3.442 -0.5594 -0.4835 -0.3177
 7686SOL    HW125596   3.493   9.656   3.368  2.4195  0.5500 -2.5699
 7686SOL    HW225597   3.624   9.692   3.434 -0.1322  0.3582  2.8560
 7687SOL     OW25598   3.460   3.121   6.847  0.1501  0.1270  0.3095
 7687SOL    HW125599   3.432   3.151   6.934  2.3496 -0.2298  1.1633
 7687SOL    HW225600   3.535   3.064   6.865 -0.0640 -0.8336 -1.7547
 7688SOL     OW25601   1.766   8.359   7.082  0.0951  0.1604 -0.0431
 7688SOL    HW125602   1.795   8.338   6.993  1.2545  0.7089  0.2035
 7688SOL    HW225603   1.778   8.453   7.090  0.3545  0.0616  0.8235
 7689SOL     OW25604   5.732   2.393   6.453 -0.1505  0.2301 -0.2503
 7689SOL    HW125605   5.768   2.312   6.490  1.2503  1.1257  0.4021
 7689SOL    HW225606   5.796   2.418   6.386 -1.0969  0.2687 -1.1463
 7690SOL     OW25607   7.605   9.326   6.023 -0.0956 -0.1284  0.3959
 7690SOL    HW125608   7.628   9.245   6.069  1.9242  0.8867  1.2323
 7690SOL    HW225609   7.606   9.393   6.091  0.7950  1.0341 -0.7491
 7691SOL     OW25610   7.200   1.130   0.938  0.2905  0.1912 -0.0442
 7691SOL    HW125611   7.195   1.223   0.919  1.2169  0.0473 -1.0664
 7691SOL    HW225612   7.168   1.087   0.858  0.5647 -0.3790  0.1462
 7692SOL     OW25613   1.115   8.443   4.551  0.0764  0.8234  0.7134
 7692SOL    HW125614   1.029   8.424   4.513 -0.5457  0.5697  2.2170
 7692SOL    HW225615   1.163   8.361   4.543  0.8518  1.4616 -1.7907
 7693SOL     OW25616   9.463  10.058   3.533 -0.5804 -0.4285  0.0724
 7693SOL    HW125617   9.380  10.033   3.493 -1.0808 -1.0675  1.4797
 7693SOL    HW225618   9.528  10.047   3.463 -1.6618 -0.0345 -0.9939
 7694SOL     OW25619   3.813  10.199   4.657  0.1229 -0.7970  0.2530
 7694SOL    HW125620   3.722  10.215   4.680 -0.1044  0.6929 -1.5903
 7694SOL    HW225621   3.862  10.225   4.735 -1.0717 -2.7467  1.7004
 7695SOL     OW25622   2.195   0.741   8.308 -0.1258 -0.0535 -0.2401
 7695SOL    HW125623   2.247   0.675   8.262 -0.7777 -1.0084  0.3951
 7695SOL    HW225624   2.119   0.755   8.252  0.2069  0.4711 -0.5753
 7696SOL     OW25625   1.431   9.375   0.234  0.0391  0.2311  0.6776
 7696SOL    HW125626   1.376   9.453   0.236 -0.5522 -0.1986  1.4133
 7696SOL    HW225627   1.517   9.408   0.209 -0.3124  1.0513  0.5035
 7697SOL     OW25628   9.624   7.037   8.568 -0.1704 -0.1636  0.6212
 7697SOL    HW125629   9.604   6.949   8.537  0.4939  0.1316 -0.6513
 7697SOL    HW225630   9.626   7.092   8.489  1.0886  0.6715  1.2063
 7698SOL     OW25631   5.503   0.919   9.472  0.1354  0.0930 -0.4360
 7698SOL    HW125632   5.503   0.831   9.509 -1.5304 -0.2864 -1.2661
 7698SOL    HW225633   5.411   0.947   9.478  0.1609  0.7314 -2.5734
 7699SOL     OW25634   8.706   3.966   6.312 -0.0082  0.4409  0.5478
 7699SOL    HW125635   8.688   3.971   6.406  1.5720 -1.7386  1.0211
 7699SOL    HW225636   8.802   3.965   6.306 -0.0416 -3.1093 -0.7658
 7700SOL     OW25637   6.423   2.807   9.449  0.0219  0.5506 -0.3167
 7700SOL    HW125638   6.394   2.781   9.537 -0.8619  1.6546 -0.2697
 7700SOL    HW225639   6.417   2.902   9.449 -0.1098  0.5511 -1.6207
 7701SOL     OW25640   8.998   0.638   0.622  0.1720 -0.0660 -0.0344
 7701SOL    HW125641   8.903   0.627   0.624  0.1953 -0.2919 -0.0344
 7701SOL    HW225642   9.031   0.557   0.662  0.4721 -1.4618 -2.9903
 7702SOL     OW25643   1.376   3.494   2.511  0.2941 -0.2293 -0.0952
 7702SOL    HW125644   1.419   3.505   2.427 -0.5379 -2.4103 -0.8401
 7702SOL    HW225645   1.283   3.482   2.489 -0.6342  3.5052  1.4168
 7703SOL     OW25646  10.200   1.073   6.689 -0.2674 -0.2285  0.0505
 7703SOL    HW125647  10.232   1.085   6.778  1.0465 -2.2617 -0.1189
 7703SOL    HW225648  10.274   1.037   6.641 -0.8657  1.0837 -1.9566
 7704SOL     OW25649   5.403   5.289   2.310 -0.5755  0.7042  0.0787
 7704SOL    HW125650   5.445   5.273   2.395 -1.1490  0.6172  0.3550
 7704SOL    HW225651   5.310   5.298   2.332 -0.7945  0.1505 -0.6073
 7705SOL     OW25652   6.295   9.858  10.109  0.0482 -0.3497 -0.0918
 7705SOL    HW125653   6.370   9.813  10.070  1.5232  1.9155  0.0681
 7705SOL    HW225654   6.268   9.801  10.181  3.2537  0.0519  1.4859
 7706SOL     OW25655   8.333   6.937   6.690 -0.3183 -0.0559  0.1253
 7706SOL    HW125656   8.424   6.916   6.712 -0.3666 -2.1436 -1.6108
 7706SOL    HW225657   8.339   6.988   6.609 -0.7242 -0.6246 -0.2641
 7707SOL     OW25658   2.878   1.088   3.301 -0.0186 -0.4709  0.3670
 7707SOL    HW125659   2.849   1.060   3.214 -1.0168  2.9400 -0.4735
 7707SOL    HW225660   2.803   1.072   3.358  0.1940 -1.5339  0.3530
 7708SOL     OW25661   7.410   2.580   8.607 -0.0016  0.1244 -0.7303
 7708SOL    HW125662   7.340   2.519   8.631 -0.2424  0.7844  0.3177
 7708SOL    HW225663   7.364   2.657   8.574  0.1869  0.9383  0.8729
 7709SOL     OW25664   3.050   8.955   4.554 -0.0865  0.5026 -0.0980
 7709SOL    HW125665   3.131   8.927   4.512 -0.0274  0.8821 -0.2408
 7709SOL    HW225666   3.038   9.045   4.524 -0.2622  0.6358  0.3748
 7710SOL     OW25667   8.606   8.738   6.658 -0.4874  0.5347  0.2304
 7710SOL    HW125668   8.682   8.681   6.654 -0.3797  0.7911 -2.0508
 7710SOL    HW225669   8.536   8.682   6.693  0.8205  0.4275  2.7629
 7711SOL     OW25670   5.716   0.128   1.718  0.4177 -0.0473  0.0408
 7711SOL    HW125671   5.801   0.084   1.729  0.1778 -0.3569  0.6902
 7711SOL    HW225672   5.695   0.160   1.806  0.7151  1.5957 -0.4757
 7712SOL     OW25673   6.589   4.381   7.865 -0.0256 -0.3078 -0.5371
 7712SOL    HW125674   6.565   4.446   7.798 -2.1000 -0.7238 -0.2438
 7712SOL    HW225675   6.620   4.306   7.816  0.2378  0.0816 -0.9688
 7713SOL     OW25676   8.416   7.761   2.108  0.6965  0.2962  0.4203
 7713SOL    HW125677   8.496   7.802   2.140  1.4701 -1.4208  0.7454
 7713SOL    HW225678   8.417   7.673   2.147 -1.8603  0.6034  1.2308
 7714SOL     OW25679   2.728   9.391   3.344  0.2301  0.1051 -0.0819
 7714SOL    HW125680   2.747   9.440   3.264  0.7663  0.7031  0.4127
 7714SOL    HW225681   2.652   9.338   3.322 -0.1879  0.9558 -0.6997
 7715SOL     OW25682   7.567   1.817   6.906  0.1328 -0.0447 -0.2324
 7715SOL    HW125683   7.530   1.795   6.821  1.6056 -1.9804 -0.3891
 7715SOL    HW225684   7.563   1.913   6.910 -0.1302  0.0494 -2.3870
 7716SOL     OW25685   4.811   1.373   2.064  0.0858 -0.4313 -0.0271
 7716SOL    HW125686   4.786   1.302   2.123  1.6229 -1.5688 -0.7075
 7716SOL    HW225687   4.876   1.334   2.005  0.9983  1.5529 -0.3802
 7717SOL     OW25688   1.257   4.183  10.086  0.4885  0.2249 -0.2225
 7717SOL    HW125689   1.255   4.275  10.060 -1.0889  0.1645 -0.3700
 7717SOL    HW225690   1.320   4.143  10.027 -0.7417  0.7095 -1.9057
 7718SOL     OW25691   5.565   6.510   4.577 -0.4637  0.6669  0.7312
 7718SOL    HW125692   5.540   6.522   4.485 -0.1344  2.3082  0.8343
 7718SOL    HW225693   5.661   6.508   4.576 -0.4579 -2.6940  0.6820
 7719SOL     OW25694   8.729   5.560   4.451  0.2334  0.1205 -0.2202
 7719SOL    HW125695   8.810   5.556   4.502  1.0526 -0.0140 -1.5237
 7719SOL    HW225696   8.706   5.653   4.449 -1.1649 -0.0968  2.4626
 7720SOL     OW25697   9.766   0.599   1.640 -0.0403  0.1034  0.1324
 7720SOL    HW125698   9.681   0.573   1.676 -0.2816 -0.8241 -1.0745
 7720SOL    HW225699   9.747   0.675   1.586  0.1073  0.6567  0.8445
 7721SOL     OW25700   3.202   9.679   0.404  0.1800 -0.1874  0.1955
 7721SOL    HW125701   3.182   9.757   0.455  0.5489 -0.1595  0.2992
 7721SOL    HW225702   3.264   9.630   0.458  0.4271 -0.2483 -0.1415
 7722SOL     OW25703   0.117   5.089  10.129 -0.0685 -0.0149  0.7206
 7722SOL    HW125704   0.131   4.994  10.128 -0.5855 -0.0933  0.5313
 7722SOL    HW225705   0.023   5.099  10.144  0.1080  0.4874  1.4961
 7723SOL     OW25706   3.467   6.917   7.028 -0.1775  0.3187  0.4000
 7723SOL    HW125707   3.378   6.951   7.041  0.6766  2.5885  0.4185
 7723SOL    HW225708   3.463   6.828   7.063 -1.9538  1.0366  2.1056
 7724SOL     OW25709   6.096   6.927   1.365  0.0583 -0.5587 -0.2256
 7724SOL    HW125710   6.097   7.009   1.416 -2.2102 -1.3314  1.1415
 7724SOL    HW225711   6.168   6.937   1.303  0.1465  2.2817  0.2344
 7725SOL     OW25712   4.160   5.627   5.928 -0.1021 -0.5632 -0.4391
 7725SOL    HW125713   4.092   5.694   5.918 -1.1761 -1.6783 -0.6518
 7725SOL    HW225714   4.212   5.658   6.003  0.0681  1.0520 -1.2022
 7726SOL     OW25715   6.106   7.729   0.109  0.6438  0.2163  0.3254
 7726SOL    HW125716   6.092   7.723   0.203 -0.7467 -1.0085  0.0674
 7726SOL    HW225717   6.068   7.648   0.074  2.5213 -0.0620 -1.1363
 7727SOL     OW25718   1.425   7.292   3.039  0.3513  0.0584  0.1480
 7727SOL    HW125719   1.384   7.299   3.126  0.7625 -0.6461  0.4008
 7727SOL    HW225720   1.360   7.330   2.980 -0.3562 -0.3453  0.6448
 7728SOL     OW25721   7.628   3.964   3.207 -0.0066 -0.2041  0.1574
 7728SOL    HW125722   7.574   3.889   3.234 -0.8589  0.1498 -0.5630
 7728SOL    HW225723   7.585   4.040   3.245  0.3040  0.0292  0.0470
 7729SOL     OW25724   1.117   9.161   9.535  0.2546  0.5848 -0.7392
 7729SOL    HW125725   1.149   9.175   9.445 -1.3618  2.3909 -1.0618
 7729SOL    HW225726   1.155   9.232   9.585  0.4433  0.0835 -0.1729
 7730SOL     OW25727   5.046   9.694   9.512  0.1544  0.3826  0.0711
 7730SOL    HW125728   5.012   9.672   9.598 -2.3263  0.8168 -0.7408
 7730SOL    HW225729   4.980   9.662   9.451  2.3255 -0.8100 -1.7419
 7731SOL     OW25730   9.200   8.192   3.928  0.7788 -0.0024  0.3681
 7731SOL    HW125731   9.110   8.161   3.929  0.9317 -0.5142 -0.9487
 7731SOL    HW225732   9.193   8.287   3.942 -0.1351  0.3059 -1.9154
 7732SOL     OW25733   6.993   0.982   0.377 -0.1584 -0.0562  0.2445
 7732SOL    HW125734   7.072   0.930   0.390 -0.2879 -0.4738 -0.6171
 7732SOL    HW225735   7.021   1.053   0.319  0.3852  1.7228  2.6028
 7733SOL     OW25736   5.172   0.986   4.286  0.1307 -0.2342 -0.4368
 7733SOL    HW125737   5.239   0.960   4.223 -1.3414 -1.5475 -1.4932
 7733SOL    HW225738   5.117   1.048   4.238  0.7796  1.1380  0.5455
 7734SOL     OW25739   1.556   2.725   9.201  0.1508 -0.0963 -0.0156
 7734SOL    HW125740   1.510   2.666   9.262 -1.3144 -1.2888 -2.2020
 7734SOL    HW225741   1.614   2.667   9.152  0.1799  0.5934 -0.7984
 7735SOL     OW25742   2.363   1.733   8.943  0.2566 -0.1556  0.0238
 7735SOL    HW125743   2.417   1.752   8.866 -0.2519  0.8813 -0.0750
 7735SOL    HW225744   2.345   1.818   8.982 -1.0191 -0.5303  0.2661
 7736SOL     OW25745   5.734   4.226   5.160 -0.0030 -0.4642 -0.3371
 7736SOL    HW125746   5.713   4.261   5.247 -0.5097  0.4289 -0.8185
 7736SOL    HW225747   5.658   4.172   5.137  0.1701 -0.7714 -0.1846
 7737SOL     OW25748   4.636   6.269   8.899 -0.4275  0.4846 -0.0743
 7737SOL    HW125749   4.727   6.255   8.872 -0.7921  0.6636 -1.4607
 7737SOL    HW225750   4.608   6.184   8.932 -0.0410  0.1736 -0.5314
 7738SOL     OW25751   2.769   8.757   8.710  0.5134 -0.0852 -0.0755
 7738SOL    HW125752   2.705   8.704   8.663 -0.4957  0.7009  0.3818
 7738SOL    HW225753   2.722   8.838   8.731  1.0291 -0.3159  2.0502
 7739SOL     OW25754   4.869   8.070   0.734  0.0636 -0.4741  0.1808
 7739SOL    HW125755   4.827   7.999   0.784 -1.7045  0.2206 -0.2570
 7739SOL    HW225756   4.796   8.113   0.689  1.1353  1.5336  0.3266
 7740SOL     OW25757   1.548   3.557   1.870 -0.0529 -0.3018  0.7008
 7740SOL    HW125758   1.514   3.530   1.785  0.9024 -1.6008  0.7095
 7740SOL    HW225759   1.495   3.632   1.894 -0.4227  0.0043 -0.9837
 7741SOL     OW25760   9.830   1.288   8.191  0.2979  0.0215  0.0742
 7741SOL    HW125761   9.895   1.358   8.200 -0.5171  0.8662 -0.4739
 7741SOL    HW225762   9.826   1.272   8.097  2.2376 -2.4844  0.3443
 7742SOL     OW25763   7.410   4.320   2.776 -0.1005  0.8208 -0.1762
 7742SOL    HW125764   7.351   4.296   2.847 -0.1537 -1.1831 -0.8670
 7742SOL    HW225765   7.428   4.413   2.790 -1.3749  0.8326  1.5190
 7743SOL     OW25766   0.342   2.732   8.839  0.1499  0.1660 -0.5187
 7743SOL    HW125767   0.426   2.767   8.807 -0.7291  0.6075 -2.3964
 7743SOL    HW225768   0.304   2.803   8.890 -0.3145  0.9561 -1.9422
 7744SOL     OW25769   2.740   2.867   3.135 -0.4916  0.4356 -0.1260
 7744SOL    HW125770   2.780   2.950   3.110 -0.8954  0.5720 -0.3197
 7744SOL    HW225771   2.805   2.825   3.191  1.2061 -0.6548 -2.8036
 7745SOL     OW25772   0.520   0.520   4.339  0.0444  0.3602  0.0351
 7745SOL    HW125773   0.443   0.463   4.346  0.6756 -0.4805  0.2701
 7745SOL    HW225774   0.568   0.505   4.421 -0.3432  2.0657  0.5867
 7746SOL     OW25775  10.174   1.081   6.981  0.0364  0.7065 -0.2317
 7746SOL    HW125776  10.180   0.986   6.993  0.2523  0.6905 -0.4682
 7746SOL    HW225777  10.084   1.095   6.950  0.0033  0.5805 -0.1942
 7747SOL     OW25778   1.227   6.626   3.233  0.3934 -0.2017  0.1726
 7747SOL    HW125779   1.223   6.637   3.328  0.8154  0.8757  0.0800
 7747SOL    HW225780   1.203   6.713   3.199  1.6351 -0.1854 -0.6802
 7748SOL     OW25781   3.595   0.022   8.425 -0.4138 -0.0492  0.2569
 7748SOL    HW125782   3.584  -0.010   8.335 -0.6103 -1.1115  0.6467
 7748SOL    HW225783   3.656  -0.041   8.465 -0.7169  0.1361  1.0081
 7749SOL     OW25784   0.786   1.862   5.081 -0.1572 -0.1153  0.6749
 7749SOL    HW125785   0.762   1.802   5.152 -2.0076 -0.9637 -0.6406
 7749SOL    HW225786   0.705   1.907   5.058  0.2520 -0.3684 -1.3976
 7750SOL     OW25787   9.039   9.468   1.119  0.3386 -0.0369 -0.6148
 7750SOL    HW125788   9.029   9.556   1.156 -0.2524 -0.4120  0.1263
 7750SOL    HW225789   9.041   9.482   1.024  1.3762  0.8873 -0.4725
 7751SOL     OW25790   5.077   9.260   3.284 -0.2557  0.0245  0.4292
 7751SOL    HW125791   5.153   9.242   3.338  0.8360 -0.6099 -1.2761
 7751SOL    HW225792   5.027   9.178   3.283  1.2130 -0.8880 -1.8195
 7752SOL     OW25793   1.779   6.416   4.820 -0.0111 -0.2263  1.1348
 7752SOL    HW125794   1.790   6.511   4.825 -2.4805  0.0036  3.0799
 7752SOL    HW225795   1.822   6.382   4.898  0.0953 -0.6343  0.9038
 7753SOL     OW25796   8.111   2.733   7.033  0.1506  0.4128  0.9209
 7753SOL    HW125797   8.042   2.782   6.989  0.2038 -0.3539 -0.0333
 7753SOL    HW225798   8.190   2.751   6.981  0.0423 -1.1854  0.1732
 7754SOL     OW25799   4.900   6.298   5.170  0.2721 -0.3124  0.1287
 7754SOL    HW125800   4.993   6.319   5.177 -0.2595  2.3101 -0.1645
 7754SOL    HW225801   4.859   6.379   5.139 -2.1300 -1.3839  0.3790
 7755SOL     OW25802   1.966   4.279   7.528 -0.0585  0.4699  0.3498
 7755SOL    HW125803   1.946   4.329   7.449 -0.6270 -1.8707 -1.0549
 7755SOL    HW225804   1.882   4.272   7.573 -0.2437 -0.2198 -0.0841
 7756SOL     OW25805   7.918   5.626   0.610  0.1892  0.5810  0.4696
 7756SOL    HW125806   7.956   5.555   0.661 -0.8648  0.7583  1.5348
 7756SOL    HW225807   7.922   5.703   0.667 -4.3900 -0.0299  1.8392
 7757SOL     OW25808   2.962   0.055   4.033  0.2489  0.0874 -0.4914
 7757SOL    HW125809   2.912   0.136   4.040 -2.2176 -1.3872 -0.5957
 7757SOL    HW225810   2.939   0.019   3.947  0.8124 -1.0301 -0.1873
 7758SOL     OW25811   5.669   8.858   3.816 -0.2821 -0.0567 -0.1419
 7758SOL    HW125812   5.633   8.771   3.807 -0.2353 -0.0338 -0.5589
 7758SOL    HW225813   5.745   8.859   3.758 -0.0446  0.1286  0.1688
 7759SOL     OW25814   1.593   0.832   3.071  0.0195 -0.4344 -0.0309
 7759SOL    HW125815   1.558   0.791   2.992  2.5779  1.4224 -2.2163
 7759SOL    HW225816   1.567   0.923   3.064  1.7513  0.1070  0.3781
 7760SOL     OW25817   0.832   0.981   9.138  0.1927  0.6786  0.0097
 7760SOL    HW125818   0.805   0.923   9.209  0.2831 -0.4572 -0.8752
 7760SOL    HW225819   0.750   1.009   9.098  0.1788  0.6413  0.0127
 7761SOL     OW25820   0.947   4.283   3.545  0.2283 -0.4821 -0.1048
 7761SOL    HW125821   1.038   4.256   3.542  0.3061 -0.0866 -2.3098
 7761SOL    HW225822   0.906   4.222   3.606  1.7215 -1.4134 -0.0072
 7762SOL     OW25823   4.900   4.569   4.423  0.3958  0.1301  0.3738
 7762SOL    HW125824   4.974   4.576   4.485  2.0818 -2.2279 -1.2874
 7762SOL    HW225825   4.932   4.611   4.343 -0.6590  0.4749  0.1277
 7763SOL     OW25826   4.598   0.539   6.703  0.1566 -0.2453  0.3234
 7763SOL    HW125827   4.676   0.589   6.680 -0.4559  0.1480 -0.9990
 7763SOL    HW225828   4.577   0.566   6.792  0.8048  0.6026  0.2231
 7764SOL     OW25829   9.700   7.859   2.419 -0.4579  0.3768  0.1611
 7764SOL    HW125830   9.607   7.879   2.431 -0.9253  0.0047 -2.4753
 7764SOL    HW225831   9.737   7.939   2.382  0.3975  0.7130  1.7314
 7765SOL     OW25832   3.262   4.667   4.075 -0.0915 -0.0885  0.1746
 7765SOL    HW125833   3.168   4.647   4.069  0.2638 -1.3809 -1.2731
 7765SOL    HW225834   3.305   4.588   4.044  1.5536 -0.2704  2.7279
 7766SOL     OW25835   9.153   1.764   0.636 -0.1672  0.3411 -0.5478
 7766SOL    HW125836   9.207   1.707   0.582 -1.4590  0.1046 -1.6284
 7766SOL    HW225837   9.105   1.705   0.693 -0.0716  0.4751 -0.3300
 7767SOL     OW25838   6.727   2.184   0.887 -0.2398 -0.5274 -0.7120
 7767SOL    HW125839   6.670   2.148   0.820 -1.5003 -2.6292  1.4163
 7767SOL    HW225840   6.668   2.230   0.946  0.4135 -1.4898  0.7223
 7768SOL     OW25841   4.224   3.736   1.883  0.3580 -0.0102 -0.5853
 7768SOL    HW125842   4.256   3.808   1.938 -1.0138 -0.9802  1.5827
 7768SOL    HW225843   4.173   3.681   1.944 -0.9420 -1.3043 -2.7885
 7769SOL     OW25844   3.280   5.131   0.390  0.3626 -0.5314 -0.6928
 7769SOL    HW125845   3.373   5.111   0.377  0.4222 -0.4242 -0.4252
 7769SOL    HW225846   3.269   5.132   0.485 -0.0143 -1.0141 -0.7348
 7770SOL     OW25847   5.678   9.272   5.885 -0.2182  0.1005  0.2813
 7770SOL    HW125848   5.612   9.203   5.875 -0.8487  0.8866 -1.2169
 7770SOL    HW225849   5.761   9.225   5.891 -0.6017 -0.7864 -1.0623
 7771SOL     OW25850   9.839   3.210   5.032  0.0750 -0.1550  0.1860
 7771SOL    HW125851   9.778   3.247   5.096 -0.8888 -1.2427 -0.0957
 7771SOL    HW225852   9.925   3.246   5.058 -0.7551  1.8948  0.1836
 7772SOL     OW25853   6.801   0.418   6.179  0.7802 -0.2353  0.4905
 7772SOL    HW125854   6.846   0.503   6.181  1.9852 -0.8852  1.4237
 7772SOL    HW225855   6.733   0.429   6.112  1.3655  1.2427  0.1140
 7773SOL     OW25856   4.798   7.146   3.082 -0.2703 -0.2192  0.2627
 7773SOL    HW125857   4.730   7.204   3.048  0.2730  0.0086 -0.4358
 7773SOL    HW225858   4.814   7.083   3.012  0.6071  0.0426  0.2244
 7774SOL     OW25859   5.302  10.188   9.321  0.0652 -0.0957 -0.3018
 7774SOL    HW125860   5.335  10.100   9.336  2.9523  1.0297  0.2985
 7774SOL    HW225861   5.269  10.217   9.406 -0.4684 -0.4299 -0.3953
 7775SOL     OW25862   0.338   2.411   3.659 -0.0703 -0.0047 -0.1035
 7775SOL    HW125863   0.335   2.480   3.725 -1.0558 -1.1201  1.0324
 7775SOL    HW225864   0.255   2.419   3.612  0.5852  0.7232 -1.1678
 7776SOL     OW25865   6.489   0.729   7.361 -0.6402 -0.4709  0.1482
 7776SOL    HW125866   6.414   0.675   7.385  0.8385 -2.2235  0.8797
 7776SOL    HW225867   6.470   0.758   7.272 -2.2306 -0.8134  0.3606
 7777SOL     OW25868   0.774   1.249   7.938 -0.0138 -0.0642  0.1068
 7777SOL    HW125869   0.811   1.336   7.923  0.9672 -0.5540 -0.3996
 7777SOL    HW225870   0.831   1.190   7.889 -0.3010 -1.0684  0.9584
 7778SOL     OW25871   2.988   3.505   9.737 -0.0283 -0.2216 -0.3716
 7778SOL    HW125872   3.000   3.583   9.791 -0.2402  0.7459 -1.6986
 7778SOL    HW225873   2.913   3.525   9.682 -1.9712 -2.5422  1.3207
 7779SOL     OW25874   3.423   8.390   2.250  0.3116 -0.1089 -0.1800
 7779SOL    HW125875   3.372   8.464   2.281  0.2353 -0.2478  0.0286
 7779SOL    HW225876   3.505   8.395   2.300 -0.3871 -1.1790  1.1240
 7780SOL     OW25877   4.051   7.866   7.856 -0.3157 -0.7852  0.4355
 7780SOL    HW125878   4.044   7.796   7.791  1.0535 -0.9054  0.4133
 7780SOL    HW225879   4.134   7.849   7.901  1.8042  2.8564 -1.9176
 7781SOL     OW25880   1.181   5.536   8.361 -0.1880 -0.0454 -0.1816
 7781SOL    HW125881   1.268   5.530   8.321  0.0634 -0.7649  0.4512
 7781SOL    HW225882   1.143   5.617   8.325  0.2582 -0.3712 -1.3978
 7782SOL     OW25883   5.147   0.297   1.538  0.0315  0.1895 -0.7647
 7782SOL    HW125884   5.088   0.290   1.613 -0.1767 -0.0693 -0.9504
 7782SOL    HW225885   5.225   0.341   1.572 -0.6967  1.5001 -0.7774
 7783SOL     OW25886   9.873   5.991   6.764  0.2621 -0.1026 -0.2364
 7783SOL    HW125887   9.834   6.031   6.842 -0.2773  1.9826 -1.5462
 7783SOL    HW225888   9.927   5.920   6.799  0.3800  1.0742  2.0855
 7784SOL     OW25889   5.052   8.669   9.953  0.2904 -0.0064 -0.2305
 7784SOL    HW125890   4.963   8.636   9.966  0.4939 -1.0611 -1.4269
 7784SOL    HW225891   5.066   8.663   9.858  1.3854  0.7960 -0.1226
 7785SOL     OW25892   1.821   2.454   0.003 -0.0101 -0.0292  0.4728
 7785SOL    HW125893   1.826   2.423  -0.088  0.8389  0.4065  0.3698
 7785SOL    HW225894   1.896   2.413   0.046  0.0363  0.3885  0.7887
 7786SOL     OW25895   4.749   3.222   2.972  0.1719 -0.1249 -0.1287
 7786SOL    HW125896   4.807   3.154   3.006  0.4483 -0.6555 -1.6221
 7786SOL    HW225897   4.661   3.191   2.991  0.2903 -1.0911 -1.1766
 7787SOL     OW25898   6.732   0.677   7.805 -0.5397 -0.1758  1.2212
 7787SOL    HW125899   6.783   0.684   7.886 -0.1549 -2.0199  1.1512
 7787SOL    HW225900   6.709   0.768   7.783  2.6495  0.6791  1.2723
 7788SOL     OW25901  10.144   9.902   2.556 -0.3018 -0.0614  0.1582
 7788SOL    HW125902  10.077   9.834   2.556 -0.3316 -0.0398  1.2143
 7788SOL    HW225903  10.220   9.861   2.596 -0.4494  0.6359  1.1889
 7789SOL     OW25904   0.287   0.803   2.963  0.1086  0.4293  0.0270
 7789SOL    HW125905   0.381   0.820   2.968 -0.2291  2.1909  0.6063
 7789SOL    HW225906   0.250   0.883   2.927 -1.0557 -0.7000 -1.3570
 7790SOL     OW25907   1.945   4.440   2.231  0.0347  0.2773 -0.1698
 7790SOL    HW125908   1.850   4.446   2.219 -0.0908  1.0206  1.1437
 7790SOL    HW225909   1.982   4.477   2.151 -0.7798  0.9208 -0.2502
 7791SOL     OW25910   4.592   0.784   7.939  0.2214  0.9938  0.1180
 7791SOL    HW125911   4.610   0.690   7.931 -1.8543  0.4617  1.3920
 7791SOL    HW225912   4.601   0.818   7.850 -1.5160 -0.8871 -0.8095
 7792SOL     OW25913   9.527   1.268   8.166 -0.0338 -0.6046 -0.3579
 7792SOL    HW125914   9.620   1.253   8.146  0.0645 -1.6767  0.8247
 7792SOL    HW225915   9.522   1.263   8.261 -1.6491 -2.6743 -0.5191
 7793SOL     OW25916   9.438   5.975   9.818  0.3911 -0.1422 -0.5428
 7793SOL    HW125917   9.453   5.953   9.910 -1.5506  1.2591  0.1501
 7793SOL    HW225918   9.511   5.933   9.771  1.1118 -1.3289  1.5498
 7794SOL     OW25919   3.944   8.733   8.990 -0.9948 -0.0628 -0.0801
 7794SOL    HW125920   3.967   8.703   9.078 -0.9868 -0.3512 -0.1772
 7794SOL    HW225921   3.985   8.669   8.932  0.1868  0.9247 -0.3441
 7795SOL     OW25922   0.044   1.111   8.236  0.4335  0.5416 -0.4351
 7795SOL    HW125923   0.001   1.190   8.269  1.4277  1.7612 -1.9831
 7795SOL    HW225924   0.024   1.110   8.143  0.5042 -0.9951 -0.4407
 7796SOL     OW25925   6.493   9.574   6.734 -0.6734  0.4772  0.1688
 7796SOL    HW125926   6.463   9.608   6.650 -1.4800 -1.0616 -0.1882
 7796SOL    HW225927   6.431   9.608   6.798  0.8411  2.9256  0.3713
 7797SOL     OW25928   8.969   9.448   6.355  0.3132 -0.4526 -0.6557
 7797SOL    HW125929   9.015   9.418   6.433 -1.0777  2.7138  1.5095
 7797SOL    HW225930   8.876   9.435   6.375  0.0037 -1.9534 -2.8510
 7798SOL     OW25931   8.336   1.289   2.606 -0.4021 -0.4592 -0.4342
 7798SOL    HW125932   8.395   1.296   2.532 -1.1441  0.9423 -0.9024
 7798SOL    HW225933   8.296   1.202   2.597  0.9899 -1.0869 -0.5465
 7799SOL     OW25934   6.096   4.890   4.657 -0.3237  0.3470  0.8635
 7799SOL    HW125935   6.080   4.807   4.612  1.4226  1.1913 -1.4463
 7799SOL    HW225936   6.040   4.953   4.611  1.4214  1.2087 -0.1239
 7800SOL     OW25937   4.437   4.562   2.064  0.1861 -0.0638  0.1185
 7800SOL    HW125938   4.511   4.519   2.021  0.8339 -0.2883  1.4345
 7800SOL    HW225939   4.397   4.493   2.116 -0.7932  0.1287 -0.3684
 7801SOL     OW25940   6.390   4.350   4.467 -0.4750 -0.2293 -0.0397
 7801SOL    HW125941   6.303   4.312   4.457 -0.0849 -1.0640 -0.2770
 7801SOL    HW225942   6.435   4.291   4.527 -0.2346  0.4787  0.4788
 7802SOL     OW25943   6.812   3.367   2.189 -0.0447  0.5257 -0.1981
 7802SOL    HW125944   6.742   3.381   2.125  0.5296 -0.7127 -1.1186
 7802SOL    HW225945   6.847   3.454   2.206  0.1032  0.8232 -1.9323
 7803SOL     OW25946   2.903   8.363   5.078 -0.3006  0.5230  0.3403
 7803SOL    HW125947   2.887   8.423   5.005  1.0958 -0.5558 -0.8778
 7803SOL    HW225948   2.883   8.276   5.043 -0.7682  0.0992  1.6150
 7804SOL     OW25949   7.799   7.834   1.000 -0.0736 -0.1963  0.1552
 7804SOL    HW125950   7.733   7.838   0.930 -0.1389 -0.1234  0.2219
 7804SOL    HW225951   7.820   7.925   1.019  1.1378 -0.2513 -0.8918
 7805SOL     OW25952   8.307   2.837   5.399  0.1458  0.0359 -0.9263
 7805SOL    HW125953   8.347   2.757   5.434  0.8901 -0.0930 -2.0385
 7805SOL    HW225954   8.314   2.900   5.470 -0.6623 -0.9529  0.0536
 7806SOL     OW25955   9.436   8.533   9.270 -0.3019 -0.1695  0.8253
 7806SOL    HW125956   9.452   8.550   9.363 -2.6762  1.1108  1.0256
 7806SOL    HW225957   9.351   8.490   9.268  0.3518 -1.4172 -0.6804
 7807SOL     OW25958   1.378   0.853   3.283  0.3005  0.2032 -0.0589
 7807SOL    HW125959   1.426   0.909   3.222 -0.2049 -0.9144 -1.5423
 7807SOL    HW225960   1.393   0.764   3.249 -0.2765 -0.4044  1.2656
 7808SOL     OW25961   6.038   5.602   6.432 -0.2396 -0.0330  0.1513
 7808SOL    HW125962   6.132   5.616   6.423 -0.4091  2.4721  1.9181
 7808SOL    HW225963   6.008   5.584   6.343  1.9245 -1.2068 -0.3946
 7809SOL     OW25964   0.658   6.327   4.021 -0.0250 -0.1937 -0.8884
 7809SOL    HW125965   0.566   6.318   4.046  0.2385 -1.2985 -0.2341
 7809SOL    HW225966   0.693   6.394   4.080  0.1018 -1.3431  0.3877
 7810SOL     OW25967   2.115   2.387   8.135 -0.2233  0.0176  0.3122
 7810SOL    HW125968   2.097   2.407   8.226  0.0680  0.0398  0.3639
 7810SOL    HW225969   2.141   2.471   8.096 -1.0378  0.1477  0.0449
 7811SOL     OW25970   4.728   0.084   9.674  0.6959 -0.0952  0.1713
 7811SOL    HW125971   4.724  -0.007   9.644  0.6209 -0.2847  0.7539
 7811SOL    HW225972   4.822   0.099   9.690  0.7784  0.1237 -0.5200
 7812SOL     OW25973   2.695   0.493   4.485 -0.0177 -0.3899  0.7521
 7812SOL    HW125974   2.658   0.405   4.474  0.6338 -0.3350 -2.4807
 7812SOL    HW225975   2.675   0.516   4.575 -3.0694 -2.5376  0.7111
 7813SOL     OW25976   0.301   8.050   2.418 -0.1304  0.1310 -0.1265
 7813SOL    HW125977   0.313   8.018   2.328 -2.3906 -0.0342 -0.3924
 7813SOL    HW225978   0.307   8.145   2.410  0.3725  0.0836 -0.3377
 7814SOL     OW25979   0.978   7.303   2.390  0.4419  0.1011 -0.0334
 7814SOL    HW125980   0.943   7.264   2.470 -0.8283  0.9537 -0.1639
 7814SOL    HW225981   0.902   7.314   2.333  1.0733  1.0649 -0.7007
 7815SOL     OW25982   0.458   2.218   3.310  0.0878 -0.4285  0.4556
 7815SOL    HW125983   0.381   2.172   3.342 -0.7614  0.7722  0.1574
 7815SOL    HW225984   0.524   2.204   3.378 -1.0711  0.3856  1.7705
 7816SOL     OW25985   2.618   8.145   1.479  0.0186  0.1336  0.1593
 7816SOL    HW125986   2.679   8.071   1.478  0.0437  0.1518 -0.8262
 7816SOL    HW225987   2.589   8.152   1.388  1.6109  2.6663 -0.1878
 7817SOL     OW25988   7.815   5.132  10.197 -0.1677 -0.1358 -0.2253
 7817SOL    HW125989   7.820   5.203  10.133 -0.5129  0.9108  0.8822
 7817SOL    HW225990   7.904   5.098  10.202  0.0403  0.3406 -0.6372
 7818SOL     OW25991   5.361   5.566   4.636 -0.1908  0.1750  0.0208
 7818SOL    HW125992   5.405   5.482   4.650 -0.9025 -0.2726 -0.3964
 7818SOL    HW225993   5.362   5.609   4.722  0.2982 -0.1937  0.2020
 7819SOL     OW25994   3.349   1.687   0.542  0.3614 -0.0641 -0.3952
 7819SOL    HW125995   3.440   1.707   0.520  0.5827 -1.2770 -0.6700
 7819SOL    HW225996   3.297   1.732   0.474  0.6777  1.6117  0.4598
 7820SOL     OW25997   0.854   1.298   2.115  0.1582  0.2834  0.4998
 7820SOL    HW125998   0.883   1.209   2.095  2.3792  1.0133  0.3519
 7820SOL    HW225999   0.853   1.302   2.211  0.8049  0.3353  0.5045
 7821SOL     OW26000   0.038  10.053   0.369  0.0719 -0.2621  0.5867
 7821SOL    HW126001   0.057  10.119   0.435  2.3988 -1.4680  1.1722
 7821SOL    HW226002   0.043   9.969   0.415 -1.2870 -0.9697 -0.4824
 7822SOL     OW26003   2.397   4.675   8.494 -0.0887  0.6644 -0.3242
 7822SOL    HW126004   2.424   4.596   8.540 -1.7862  0.0034 -0.4073
 7822SOL    HW226005   2.454   4.678   8.416  0.0682 -0.4117 -0.2614
 7823SOL     OW26006   9.767   7.953   3.990 -0.0071  0.7532  0.2825
 7823SOL    HW126007   9.771   8.026   4.052 -0.7322  0.7090  0.3811
 7823SOL    HW226008   9.693   7.901   4.018  0.3541  0.1083  0.0559
 7824SOL     OW26009   2.387   1.066   1.283  0.5963  0.2166  0.2018
 7824SOL    HW126010   2.433   1.120   1.217 -0.5915  1.8688  0.6942
 7824SOL    HW226011   2.295   1.090   1.273 -0.1443 -2.7413 -0.4477
 7825SOL     OW26012   7.965   0.979   3.188 -0.3140  0.0317 -1.0940
 7825SOL    HW126013   8.060   0.971   3.176 -0.0703  0.4141  0.4278
 7825SOL    HW226014   7.948   1.074   3.183  0.0404  0.3929  2.8533
 7826SOL     OW26015   7.593   4.737   4.198 -0.7981  0.4957  0.0110
 7826SOL    HW126016   7.609   4.783   4.115  1.2937 -0.0803  0.0587
 7826SOL    HW226017   7.585   4.645   4.173 -1.0645  0.4277  0.3474
 7827SOL     OW26018   3.384   7.878   2.359  0.2435  0.0463  0.1446
 7827SOL    HW126019   3.342   7.800   2.323 -0.9847  0.9379 -0.3680
 7827SOL    HW226020   3.431   7.916   2.284 -0.9122  0.9693 -0.1125
 7828SOL     OW26021   8.369   2.327   4.158  0.2980  0.1435 -0.3061
 7828SOL    HW126022   8.375   2.395   4.090  3.0305 -0.9462 -1.2318
 7828SOL    HW226023   8.460   2.303   4.175 -0.5010 -1.3896  1.9692
 7829SOL     OW26024   9.508   9.112   0.733 -0.3668 -0.5176 -0.8105
 7829SOL    HW126025   9.579   9.162   0.693 -1.1119  0.4305 -0.9835
 7829SOL    HW226026   9.530   9.109   0.826 -0.9820  1.3067 -0.5851
 7830SOL     OW26027   1.539   8.998   7.746  0.6929  0.3136 -0.3578
 7830SOL    HW126028   1.500   8.918   7.783 -0.9533  1.8170  1.2289
 7830SOL    HW226029   1.515   8.995   7.653  0.0190 -0.6676 -0.1640
 7831SOL     OW26030   9.688   8.644   2.170  0.1566  0.4139  0.4906
 7831SOL    HW126031   9.690   8.593   2.088 -2.1602 -0.5299  0.9730
 7831SOL    HW226032   9.638   8.590   2.230  1.3343  1.3831  2.3740
 7832SOL     OW26033   3.372   6.116   2.158 -0.2856  0.3260 -0.1597
 7832SOL    HW126034   3.318   6.100   2.235  0.9520 -0.8415  0.4960
 7832SOL    HW226035   3.350   6.204   2.130 -2.2318  0.0063  0.3351
 7833SOL     OW26036   6.213   7.268   8.877  0.2358  0.6378 -0.5538
 7833SOL    HW126037   6.232   7.294   8.967 -1.9793  0.8905 -0.1478
 7833SOL    HW226038   6.282   7.205   8.856  1.7074  1.7523  0.7581
 7834SOL     OW26039   0.010   5.521   8.145 -0.3655 -0.0310 -0.1006
 7834SOL    HW126040  -0.081   5.499   8.125  0.0935  0.2008 -2.6779
 7834SOL    HW226041   0.062   5.453   8.100  0.8070  1.8278 -1.6550
 7835SOL     OW26042   1.178   4.586   6.290  0.3438  0.1121  0.4984
 7835SOL    HW126043   1.152   4.644   6.219 -1.4697  1.3478  2.1104
 7835SOL    HW226044   1.189   4.500   6.249 -0.8306  0.7732 -1.2248
 7836SOL     OW26045   1.664   8.544   2.796  0.1984 -0.3862 -0.6964
 7836SOL    HW126046   1.602   8.491   2.746  0.5444 -0.9022 -0.5809
 7836SOL    HW226047   1.673   8.625   2.745 -0.6286 -0.2775 -0.6670
 7837SOL     OW26048   6.857   6.533   1.999  0.0674 -0.2305  0.2369
 7837SOL    HW126049   6.799   6.556   2.072  0.8694 -0.4084  0.9294
 7837SOL    HW226050   6.881   6.617   1.960  1.0588 -0.0330  1.2702
 7838SOL     OW26051   1.297   1.205   6.452  0.4412  0.0452  0.5094
 7838SOL    HW126052   1.382   1.225   6.490  0.4646  1.4361 -0.2677
 7838SOL    HW226053   1.245   1.171   6.526  0.1809  3.5910  2.0309
 7839SOL     OW26054   5.881   9.165   8.567 -0.2522  0.2461  0.2175
 7839SOL    HW126055   5.863   9.094   8.506 -0.1912  0.0378  0.4395
 7839SOL    HW226056   5.959   9.207   8.532 -0.7473  0.7003 -0.3470
 7840SOL     OW26057   7.262   1.394   0.016  0.1199 -0.4922 -0.1594
 7840SOL    HW126058   7.313   1.314   0.001  1.4893  0.2907  0.2241
 7840SOL    HW226059   7.217   1.409  -0.067 -0.9894 -2.2399  0.1043
 7841SOL     OW26060   7.473   0.852   7.339  0.0255  0.1006 -0.2167
 7841SOL    HW126061   7.444   0.826   7.252  0.8333 -1.3640 -0.0812
 7841SOL    HW226062   7.432   0.789   7.398  1.5370 -0.5243  0.1953
 7842SOL     OW26063   5.167   2.079   7.143  0.3687 -0.4892  0.5659
 7842SOL    HW126064   5.244   2.024   7.128  1.0838  0.4648  0.7158
 7842SOL    HW226065   5.094   2.017   7.149  1.4058 -1.5895  2.4516
 7843SOL     OW26066   8.139   8.071   6.974 -0.4574  0.1715 -0.5463
 7843SOL    HW126067   8.051   8.102   6.997 -0.8907 -0.7720 -0.9100
 7843SOL    HW226068   8.152   8.102   6.884  0.5135  2.2894  0.2871
 7844SOL     OW26069  10.087   2.252   1.955  0.0662  0.4588  0.7573
 7844SOL    HW126070  10.065   2.159   1.964 -1.2624  0.7537  0.6860
 7844SOL    HW226071  10.173   2.252   1.913 -0.7140 -0.7363 -0.9098
 7845SOL     OW26072   6.017   6.927   9.322 -0.2632  0.4047 -0.4442
 7845SOL    HW126073   5.977   6.913   9.408  0.4430 -3.9650 -0.7104
 7845SOL    HW226074   6.105   6.959   9.341 -0.8800  1.7123  0.3328
 7846SOL     OW26075   9.847   2.935   5.714  0.0887  0.4321 -0.5704
 7846SOL    HW126076   9.765   2.980   5.733  0.6143  0.7083  1.1475
 7846SOL    HW226077   9.844   2.855   5.766 -0.0215 -0.6090 -2.1655
 7847SOL     OW26078   2.706   7.723   8.283  0.1310 -0.3246 -0.3016
 7847SOL    HW126079   2.772   7.765   8.227 -0.6671  1.2370 -0.0976
 7847SOL    HW226080   2.750   7.712   8.367  0.6147 -0.6863 -0.5944
 7848SOL     OW26081   2.379   8.166   5.186 -0.3154 -0.3191  0.3486
 7848SOL    HW126082   2.443   8.236   5.201 -0.9319  0.3195  0.0604
 7848SOL    HW226083   2.303   8.211   5.148 -0.5147 -1.2261 -0.3584
 7849SOL     OW26084   8.405   9.088   5.935 -0.0191  0.3462 -0.6330
 7849SOL    HW126085   8.347   9.013   5.919 -0.2317 -0.5696  3.8128
 7849SOL    HW226086   8.467   9.056   6.001  0.6007  3.7349  0.4944
 7850SOL     OW26087   0.363   4.267   9.426 -0.1338 -0.0392  0.2955
 7850SOL    HW126088   0.452   4.270   9.391  0.2442  2.1377  1.3332
 7850SOL    HW226089   0.371   4.220   9.509  0.3764  1.5535  1.1788
 7851SOL     OW26090   1.915   8.162   4.860 -0.1413  0.0570 -0.0149
 7851SOL    HW126091   1.914   8.067   4.847  0.0479 -0.2618  2.0970
 7851SOL    HW226092   1.943   8.197   4.776 -0.9428 -1.7118 -1.0564
 7852SOL     OW26093   8.158   3.026   6.562 -0.7196 -0.1587  0.1196
 7852SOL    HW126094   8.094   2.955   6.557 -1.0606  0.2163 -0.7626
 7852SOL    HW226095   8.123   3.084   6.630 -1.6240  0.3500 -0.7702
 7853SOL     OW26096   8.604   1.577   3.237 -0.2501 -0.0513  0.0088
 7853SOL    HW126097   8.658   1.510   3.279  0.3891  0.8281  0.6031
 7853SOL    HW226098   8.654   1.603   3.160 -0.6917 -0.5551 -0.4453
 7854SOL     OW26099   9.213   8.245   2.449 -0.3089 -0.3320  0.2829
 7854SOL    HW126100   9.185   8.218   2.536  1.7159  1.6817  1.6127
 7854SOL    HW226101   9.136   8.287   2.411 -1.1261 -1.0069  1.1730
 7855SOL     OW26102   2.617   3.254   1.614  0.2010 -0.2972  0.8157
 7855SOL    HW126103   2.683   3.202   1.662  0.0747 -1.6384 -0.4404
 7855SOL    HW226104   2.611   3.212   1.528 -2.7665 -0.5790  1.1136
 7856SOL     OW26105   3.324   5.412   8.966  0.0098 -0.3267 -0.9379
 7856SOL    HW126106   3.406   5.408   8.916 -0.0109  1.0094 -1.1072
 7856SOL    HW226107   3.270   5.342   8.929  0.7036 -0.5674 -1.5125
 7857SOL     OW26108   3.573   3.975   1.697 -0.0920 -0.7265  0.1158
 7857SOL    HW126109   3.606   3.894   1.736  0.0738 -0.7566 -0.0820
 7857SOL    HW226110   3.603   4.045   1.755 -1.2104 -0.8922  0.9139
 7858SOL     OW26111   3.070   3.214   3.389  0.0718 -0.0355  0.1307
 7858SOL    HW126112   3.037   3.124   3.387 -1.6903  0.6095 -0.9505
 7858SOL    HW226113   2.993   3.267   3.408  0.8066  1.3731 -0.7983
 7859SOL     OW26114   4.018   7.986   2.312 -0.1849  0.0097 -0.1996
 7859SOL    HW126115   4.109   7.985   2.281 -0.5218  1.2189 -1.2989
 7859SOL    HW226116   3.968   7.951   2.238 -1.0442  3.3149 -1.2837
 7860SOL     OW26117   1.568   5.550   5.434  0.1974  0.5668  0.3275
 7860SOL    HW126118   1.519   5.492   5.493 -0.8203  0.3995 -0.6597
 7860SOL    HW226119   1.604   5.617   5.492  0.0122 -0.1309  1.2681
 7861SOL     OW26120   4.024   9.522   5.769  0.3797 -0.2573  0.3222
 7861SOL    HW126121   3.995   9.552   5.856  0.4391 -2.7475  1.2363
 7861SOL    HW226122   3.946   9.531   5.714 -0.3195 -0.8242  1.2003
 7862SOL     OW26123   2.348   9.868   4.371 -0.8433 -0.8398 -0.8041
 7862SOL    HW126124   2.356   9.824   4.456  0.8670  0.4574 -0.2706
 7862SOL    HW226125   2.257   9.854   4.346 -0.7713 -3.2710  0.1178
 7863SOL     OW26126   5.358   9.599   1.805 -0.5586  0.0919 -0.4450
 7863SOL    HW126127   5.269   9.579   1.833  0.0033 -0.0543  1.2995
 7863SOL    HW226128   5.411   9.528   1.840  0.5274  1.2372  0.2432
 7864SOL     OW26129   8.921   1.477   2.903  0.1607  0.6771  0.1373
 7864SOL    HW126130   8.942   1.430   2.823  1.5000 -0.1636  0.9822
 7864SOL    HW226131   9.000   1.527   2.924 -0.7566  2.2243  0.0256
 7865SOL     OW26132   8.888   4.251   7.711 -0.0507  0.4469 -0.9694
 7865SOL    HW126133   8.814   4.264   7.770  0.4871 -3.0602  0.6389
 7865SOL    HW226134   8.849   4.218   7.631 -0.3828  0.2379 -0.7247
 7866SOL     OW26135   1.562   0.644   9.086 -0.7921 -0.3814 -0.0378
 7866SOL    HW126136   1.599   0.574   9.140 -1.1133 -0.4604  0.0802
 7866SOL    HW226137   1.564   0.609   8.997 -2.7327 -1.3122  0.2532
 7867SOL     OW26138   5.668   5.424   4.984 -0.0169  0.1588  0.3316
 7867SOL    HW126139   5.678   5.362   5.056 -0.1411 -2.4175 -1.8030
 7867SOL    HW226140   5.600   5.387   4.929  0.9320  1.4197 -1.7685
 7868SOL     OW26141   5.088   2.036   8.913  0.2101  0.0525  0.2012
 7868SOL    HW126142   5.113   2.045   9.005  0.5770  0.0108  0.1054
 7868SOL    HW226143   5.015   1.974   8.914 -2.1563  2.7942  0.8355
 7869SOL     OW26144   5.309   1.033   6.971  0.3228 -0.7954  0.3391
 7869SOL    HW126145   5.379   0.977   6.937  0.7836 -0.4025  0.6379
 7869SOL    HW226146   5.350   1.081   7.043  0.1657  0.5120 -0.4204
 7870SOL     OW26147   1.349   1.146   4.966 -0.2138  0.1266  0.2162
 7870SOL    HW126148   1.299   1.064   4.972  1.5630 -0.9962 -0.0733
 7870SOL    HW226149   1.439   1.120   4.985  0.5525  1.8230 -1.0109
 7871SOL     OW26150   8.413   8.831   4.231  0.0551 -0.3361 -0.1520
 7871SOL    HW126151   8.407   8.851   4.138 -0.9389 -0.0505 -0.0319
 7871SOL    HW226152   8.433   8.915   4.273  0.4036 -0.4452 -0.1028
 7872SOL     OW26153   4.054   1.964   1.976 -0.1875  0.3465  0.2778
 7872SOL    HW126154   4.011   1.998   1.897  0.8912  1.9994  0.3682
 7872SOL    HW226155   4.020   1.875   1.985 -0.0833 -0.0113 -2.2522
 7873SOL     OW26156   3.769   6.453   8.459  0.6648 -0.1878  0.3920
 7873SOL    HW126157   3.849   6.497   8.432  0.7884 -0.6779 -0.0503
 7873SOL    HW226158   3.778   6.364   8.425 -0.3815 -0.0481 -0.2771
 7874SOL     OW26159   7.567   4.191  10.165 -0.0654  0.0404 -0.0396
 7874SOL    HW126160   7.606   4.160  10.083  1.9770 -0.2106  1.0079
 7874SOL    HW226161   7.521   4.114  10.200 -0.7688  0.0907 -0.8324
 7875SOL     OW26162   2.818   0.214   1.543  0.9268 -0.1413 -0.3835
 7875SOL    HW126163   2.766   0.291   1.519  1.6927  1.2085  2.1589
 7875SOL    HW226164   2.760   0.163   1.599  0.4853 -1.3634 -1.9190
 7876SOL     OW26165  10.172   2.283   6.900 -0.1469 -0.2318 -0.0462
 7876SOL    HW126166  10.161   2.216   6.967 -0.6410 -0.6533 -0.5449
 7876SOL    HW226167  10.085   2.293   6.862 -0.2726  1.3688  0.6556
 7877SOL     OW26168   7.538   7.690   0.998  0.2218  0.7794  0.0582
 7877SOL    HW126169   7.508   7.638   1.073  0.0208 -0.1956 -0.6848
 7877SOL    HW226170   7.544   7.779   1.031  3.2360 -0.1258  2.1192
 7878SOL     OW26171   7.492   7.867   0.150  0.2061  0.5343  0.5335
 7878SOL    HW126172   7.574   7.909   0.123 -0.8598  3.2512  1.4039
 7878SOL    HW226173   7.478   7.897   0.240 -1.1244 -0.8765  0.8149
 7879SOL     OW26174   0.645   7.369   0.285 -0.1501 -0.0803  0.0154
 7879SOL    HW126175   0.727   7.354   0.237  0.2139 -0.5156  0.7671
 7879SOL    HW226176   0.627   7.462   0.274  0.5386  0.0496  0.0068
 7880SOL     OW26177   7.162   7.473   0.534 -0.2586  0.3048  0.3392
 7880SOL    HW126178   7.150   7.467   0.629  0.0582 -1.4350  0.2796
 7880SOL    HW226179   7.089   7.528   0.504 -0.2395  1.0375  1.6012
 7881SOL     OW26180   9.449   4.988   5.924  0.4103  0.0435 -0.0840
 7881SOL    HW126181   9.354   5.001   5.925  0.4655  0.6637 -1.5747
 7881SOL    HW226182   9.486   5.075   5.941  0.7230 -0.3612  1.4039
 7882SOL     OW26183   0.164   8.220   6.765  0.5677 -0.2522  0.4392
 7882SOL    HW126184   0.126   8.258   6.844 -0.1158  3.6883 -1.6612
 7882SOL    HW226185   0.245   8.268   6.751  0.7417 -0.9707 -1.1529
 7883SOL     OW26186  10.062   2.052   2.295  0.2086  0.2915  0.1450
 7883SOL    HW126187  10.016   1.971   2.316 -2.5857  2.2353  1.8858
 7883SOL    HW226188  10.151   2.037   2.325 -0.9350 -1.1865  3.0590
 7884SOL     OW26189   2.568   4.301   1.500  0.2181  0.0186  0.0926
 7884SOL    HW126190   2.564   4.277   1.407  2.4175 -2.0737  0.4629
 7884SOL    HW226191   2.642   4.361   1.506 -0.5887  0.9825  0.3229
 7885SOL     OW26192   9.295   3.107   6.004 -0.1551 -0.0945  0.5034
 7885SOL    HW126193   9.382   3.070   6.017 -0.7873 -1.6662  0.3659
 7885SOL    HW226194   9.291   3.127   5.911  0.8309  2.0206  0.8932
 7886SOL     OW26195   6.196   3.546   3.130  0.3870 -0.0035  0.3402
 7886SOL    HW126196   6.221   3.465   3.173 -0.4652 -0.1967  0.4911
 7886SOL    HW226197   6.131   3.586   3.188 -0.7435 -0.2486 -0.7241
 7887SOL     OW26198   1.039   2.062   2.900  0.1706 -0.4292 -0.0560
 7887SOL    HW126199   1.027   1.968   2.916 -1.1206 -0.2567  0.0587
 7887SOL    HW226200   0.966   2.104   2.947  0.5854  0.6090 -0.3257
 7888SOL     OW26201   3.648   9.175   3.090 -0.6381 -0.1198 -0.3841
 7888SOL    HW126202   3.725   9.195   3.036 -0.5987 -0.7603 -0.5692
 7888SOL    HW226203   3.582   9.238   3.062  0.1249  1.0751  0.4539
 7889SOL     OW26204   8.260   2.977   1.954  0.1008 -0.2220  0.4885
 7889SOL    HW126205   8.354   2.980   1.973 -0.2525 -1.7815  2.7602
 7889SOL    HW226206   8.229   2.899   2.001 -1.9227 -1.0919 -2.1395
 7890SOL     OW26207   1.765   3.938   4.564  0.1285  0.2744  0.3908
 7890SOL    HW126208   1.832   3.917   4.629 -0.2435 -0.7799  0.4457
 7890SOL    HW226209   1.700   3.990   4.611  0.4666  0.5520  0.5510
 7891SOL     OW26210   4.222   6.825   7.813  0.2135  0.1568 -0.5005
 7891SOL    HW126211   4.231   6.914   7.781 -0.3605  0.6146  0.6009
 7891SOL    HW226212   4.226   6.771   7.734  0.9839  1.1150 -1.1295
 7892SOL     OW26213   1.154   5.152   5.666 -0.0187  0.4444  0.0742
 7892SOL    HW126214   1.087   5.148   5.598  0.0448 -0.0562  0.0390
 7892SOL    HW226215   1.237   5.139   5.619  0.0124 -0.0715  0.2612
 7893SOL     OW26216   8.798   0.704   6.653  0.0945  0.2049 -0.1422
 7893SOL    HW126217   8.873   0.745   6.611  0.2370  1.2095  1.0322
 7893SOL    HW226218   8.730   0.771   6.651 -1.1970 -1.1308 -2.3051
 7894SOL     OW26219   9.751   2.764   0.522 -0.4262 -0.2545  0.3479
 7894SOL    HW126220   9.754   2.764   0.618  0.9571  0.4222  0.3247
 7894SOL    HW226221   9.762   2.673   0.497 -0.5950 -0.4074  0.8315
 7895SOL     OW26222   0.485   4.764   7.164 -0.1552 -0.4973 -0.4036
 7895SOL    HW126223   0.424   4.837   7.170  0.0295 -0.4168  0.5535
 7895SOL    HW226224   0.431   4.690   7.135 -0.2103  0.1680 -2.0786
 7896SOL     OW26225   4.628   8.917   6.480  0.0709 -0.3689  0.3425
 7896SOL    HW126226   4.588   8.866   6.549 -0.8593 -0.0106  0.0792
 7896SOL    HW226227   4.584   9.002   6.484  1.2415  0.2461  0.4503
 7897SOL     OW26228   4.046   0.560   5.512  0.6681  0.0575  0.3455
 7897SOL    HW126229   4.093   0.640   5.535  1.4702 -0.7990  1.7384
 7897SOL    HW226230   3.992   0.541   5.589  0.1015 -0.4750 -0.1803
 7898SOL     OW26231   6.342   9.105   9.123 -0.1540 -0.1956  0.3954
 7898SOL    HW126232   6.416   9.059   9.163  0.6306 -0.1738 -1.0101
 7898SOL    HW226233   6.295   9.143   9.197  0.7021 -1.0050  1.3725
 7899SOL     OW26234   9.408   0.227   7.425  0.0364  0.8907  0.0917
 7899SOL    HW126235   9.328   0.274   7.402  0.0625  1.1246  0.4743
 7899SOL    HW226236   9.385   0.135   7.417 -0.1980  0.9606 -0.0442
 7900SOL     OW26237   5.352   5.859   8.822  0.5617  0.2217  0.7802
 7900SOL    HW126238   5.325   5.894   8.737  2.2016 -0.9626 -0.2578
 7900SOL    HW226239   5.311   5.773   8.827  1.4562 -0.2282  0.6167
 7901SOL     OW26240   4.273   5.518   0.312  0.1922 -0.0600  0.6059
 7901SOL    HW126241   4.215   5.585   0.349  1.4945  0.4043  1.8302
 7901SOL    HW226242   4.298   5.464   0.387  1.9117  0.1645  0.2038
 7902SOL     OW26243   7.730   0.850   2.468  0.0554 -0.2102  0.4802
 7902SOL    HW126244   7.818   0.815   2.479  0.8015  2.1605  2.4908
 7902SOL    HW226245   7.727   0.878   2.377  1.5748  0.2249  0.5492
 7903SOL     OW26246   6.025   9.259   3.452  0.1037 -0.1555  0.3918
 7903SOL    HW126247   6.049   9.327   3.389  1.0421 -1.2764 -0.5026
 7903SOL    HW226248   6.005   9.306   3.532  2.3934  1.0728  0.2762
 7904SOL     OW26249   3.662   7.654   4.484 -0.6006 -0.1352  0.3924
 7904SOL    HW126250   3.724   7.643   4.555  0.4114  1.4182 -0.2007
 7904SOL    HW226251   3.688   7.589   4.418  0.7238  0.8129 -0.0483
 7905SOL     OW26252   3.177   7.682   8.402 -0.3250  0.4116 -0.3277
 7905SOL    HW126253   3.269   7.708   8.387  0.8898 -3.2673  0.2696
 7905SOL    HW226254   3.143   7.665   8.314  0.2447 -0.3046 -0.4192
 7906SOL     OW26255   8.096   9.803   6.742  0.0047 -0.3818  0.7574
 7906SOL    HW126256   8.175   9.835   6.785  0.5224 -0.1097 -0.3658
 7906SOL    HW226257   8.049   9.883   6.716 -0.7425 -0.5432  1.6118
 7907SOL     OW26258   6.764   3.421   3.570 -0.0385 -0.3010 -0.3769
 7907SOL    HW126259   6.680   3.466   3.578  0.2820  1.2195 -4.1648
 7907SOL    HW226260   6.821   3.464   3.633 -1.4018  0.4679  0.3525
 7908SOL     OW26261   3.307   1.276   2.411  0.3872 -0.2560  0.1703
 7908SOL    HW126262   3.232   1.300   2.465  0.3756 -0.8085  0.4048
 7908SOL    HW226263   3.367   1.231   2.471  0.7049 -0.2136 -0.1123
 7909SOL     OW26264   0.646   7.401   4.081  0.3332 -0.2325 -0.2123
 7909SOL    HW126265   0.701   7.325   4.064  1.9897  1.2967 -2.0852
 7909SOL    HW226266   0.690   7.472   4.033 -0.9221  1.9651  1.8243
 7910SOL     OW26267   5.895   9.103   2.380  0.3944  0.3076  0.0864
 7910SOL    HW126268   5.863   9.054   2.456 -0.1879 -0.4604 -0.6421
 7910SOL    HW226269   5.845   9.184   2.380  1.4007  0.9484  1.3354
 7911SOL     OW26270   4.716   9.873   9.298  0.0765 -0.7880  0.3430
 7911SOL    HW126271   4.653   9.878   9.370  0.2979 -0.6331  0.5224
 7911SOL    HW226272   4.753   9.785   9.305  0.9360 -0.3679  1.1135
 7912SOL     OW26273   2.066   4.172   2.050  0.5664  0.3381 -0.2688
 7912SOL    HW126274   2.020   4.240   2.099  1.2620 -0.0334  0.9304
 7912SOL    HW226275   2.000   4.135   1.992 -0.7107 -0.3072  1.5448
 7913SOL     OW26276   6.768   0.022   9.740 -0.3411  0.1534  0.3992
 7913SOL    HW126277   6.768   0.118   9.743 -2.0490  0.2694 -1.5941
 7913SOL    HW226278   6.817   0.001   9.661 -0.3234 -0.5886  0.6102
 7914SOL     OW26279   7.023   2.436   2.493  0.6625 -0.0033 -0.3380
 7914SOL    HW126280   6.985   2.406   2.410  0.9726  1.6320 -1.0967
 7914SOL    HW226281   7.035   2.530   2.481  1.5268  0.1097  1.2571
 7915SOL     OW26282   8.157   7.058   2.722 -0.2561  0.2270  0.0314
 7915SOL    HW126283   8.253   7.064   2.723 -0.1380 -1.2110 -1.0797
 7915SOL    HW226284   8.132   7.087   2.635 -0.7394 -0.6585 -0.1284
 7916SOL     OW26285   3.387   3.250   2.243 -0.7289  0.5875  0.5454
 7916SOL    HW126286   3.390   3.172   2.298  1.8849  0.4609  0.2739
 7916SOL    HW226287   3.352   3.219   2.160 -0.5519 -0.1046  0.7262
 7917SOL     OW26288   4.003   7.309   7.073  0.0552 -0.7418  0.0547
 7917SOL    HW126289   4.033   7.220   7.051  1.9541 -0.4767  1.4615
 7917SOL    HW226290   4.082   7.355   7.100 -1.4420  0.2552  3.0356
 7918SOL     OW26291   7.081   3.016   1.459 -0.3880  0.1646  0.0892
 7918SOL    HW126292   7.100   2.964   1.536  0.3373 -1.0003 -0.8652
 7918SOL    HW226293   7.116   2.966   1.386 -2.5981  0.4048 -1.1953
 7919SOL     OW26294   8.894   9.447   7.060 -0.3603 -0.0024  0.1192
 7919SOL    HW126295   8.854   9.441   6.973  1.2429  2.9640 -0.8896
 7919SOL    HW226296   8.823   9.423   7.120 -2.1664  0.1618 -1.8604
 7920SOL     OW26297   5.321   4.269   2.600  0.6265 -0.5535 -0.1928
 7920SOL    HW126298   5.414   4.264   2.579  0.8102 -1.6695  0.8380
 7920SOL    HW226299   5.294   4.355   2.569  1.9273 -0.3424 -0.7760
 7921SOL     OW26300   0.845   4.106   6.798  0.4225  0.2291 -0.0678
 7921SOL    HW126301   0.913   4.125   6.732  0.5668 -1.6558 -0.4877
 7921SOL    HW226302   0.889   4.049   6.861 -0.2466  0.5241  0.6606
 7922SOL     OW26303   2.095   9.576   5.753 -0.3985  0.5283 -0.4820
 7922SOL    HW126304   2.047   9.503   5.794  0.3722 -0.2840 -1.0265
 7922SOL    HW226305   2.157   9.604   5.820 -0.4921  0.4839 -0.3768
 7923SOL     OW26306   8.266   8.237   1.439 -0.0155  0.0923  0.0037
 7923SOL    HW126307   8.182   8.223   1.396  0.1712  0.6275 -0.5519
 7923SOL    HW226308   8.298   8.320   1.402 -0.4478  1.2472  2.1461
 7924SOL     OW26309   2.485   1.120   1.012  0.1944 -0.5519 -0.2146
 7924SOL    HW126310   2.466   1.046   0.955 -0.8017 -1.3741  1.1367
 7924SOL    HW226311   2.579   1.114   1.030  0.9649  0.9639 -3.4337
 7925SOL     OW26312   7.234   3.703   6.422  0.0334 -0.5545  0.0515
 7925SOL    HW126313   7.181   3.703   6.502  1.0451  1.1160  0.7451
 7925SOL    HW226314   7.174   3.733   6.353 -0.3235 -0.1207  0.5530
 7926SOL     OW26315   9.268   2.514  10.055  0.6791  0.0419  0.4647
 7926SOL    HW126316   9.304   2.599  10.033  0.1528 -0.1769 -1.3643
 7926SOL    HW226317   9.217   2.528  10.134  0.6561  1.4087  0.2099
 7927SOL     OW26318   5.834   4.944   8.566  0.5488  0.5065  0.0741
 7927SOL    HW126319   5.883   4.880   8.617  0.3322  0.6591  0.4768
 7927SOL    HW226320   5.849   4.918   8.475 -1.6669 -1.7579  0.2772
 7928SOL     OW26321   9.070   9.650   2.464 -0.0646  0.1502  0.2524
 7928SOL    HW126322   9.048   9.721   2.403 -1.0619 -0.1673  0.2299
 7928SOL    HW226323   8.994   9.644   2.522  0.6635  0.1054  1.2139
 7929SOL     OW26324   4.462   4.083   1.819 -0.4529 -0.6009  0.3475
 7929SOL    HW126325   4.549   4.103   1.854  0.0577 -0.2747 -1.0700
 7929SOL    HW226326   4.472   3.998   1.776 -0.9435 -0.7634  0.5471
 7930SOL     OW26327   7.043   1.694   3.459  0.2503 -0.1233  0.1616
 7930SOL    HW126328   6.982   1.633   3.500  0.2738 -0.7648 -0.7479
 7930SOL    HW226329   7.129   1.664   3.489  0.4836 -2.2914 -2.4953
 7931SOL     OW26330   0.798   1.751   2.118 -0.2700 -0.4353  0.1176
 7931SOL    HW126331   0.840   1.836   2.109 -0.3618 -0.3541  0.4586
 7931SOL    HW226332   0.723   1.756   2.059  0.6696 -0.8859 -1.1268
 7932SOL     OW26333   2.113   4.876   6.560 -0.0564  0.3026 -0.2889
 7932SOL    HW126334   2.165   4.801   6.532 -0.4143 -0.4214  0.9527
 7932SOL    HW226335   2.176   4.931   6.608 -0.8411 -1.6720  3.2163
 7933SOL     OW26336   6.957   6.600   9.223  0.1593 -0.0222 -0.5981
 7933SOL    HW126337   6.938   6.637   9.137  1.3690 -1.5215 -1.5250
 7933SOL    HW226338   7.011   6.523   9.205  0.6154 -0.2258  1.5160
 7934SOL     OW26339   9.370   7.037   8.324  0.5369  0.0324  0.6863
 7934SOL    HW126340   9.443   7.095   8.342  1.7374 -1.2626  0.0792
 7934SOL    HW226341   9.391   6.955   8.370 -0.7038 -0.2357  0.8145
 7935SOL     OW26342   3.694   9.934   1.095  0.1744  0.6297 -0.4136
 7935SOL    HW126343   3.630   9.938   1.024 -1.1965  0.1764  0.7846
 7935SOL    HW226344   3.650   9.975   1.169  1.5041  0.8658  0.2554
 7936SOL     OW26345   7.500   4.707   3.070  0.8451 -0.0650 -0.3432
 7936SOL    HW126346   7.587   4.703   3.110  0.0289 -1.2490  1.3564
 7936SOL    HW226347   7.440   4.687   3.141 -0.6653 -2.0503 -2.1295
 7937SOL     OW26348   9.262   6.002   0.207 -0.1450  0.0330  0.0538
 7937SOL    HW126349   9.345   5.962   0.181 -0.0731 -0.6811  1.3334
 7937SOL    HW226350   9.281   6.095   0.216  0.3695 -0.0427 -0.2369
 7938SOL     OW26351   7.845   9.077   5.477 -0.1522 -0.5316  0.0548
 7938SOL    HW126352   7.777   9.032   5.426 -1.3625 -1.6809  2.6008
 7938SOL    HW226353   7.927   9.039   5.446 -0.9247 -1.8440 -0.4071
 7939SOL     OW26354   6.846   2.967   6.132 -0.0339  0.3012  0.1308
 7939SOL    HW126355   6.796   2.979   6.213  1.9634 -0.2560  1.4807
 7939SOL    HW226356   6.881   2.878   6.138 -0.3933  0.0178 -1.6673
 7940SOL     OW26357   7.642   3.043   6.125  0.2394 -0.0768 -0.5774
 7940SOL    HW126358   7.586   2.971   6.095  0.9180 -0.6887 -0.3938
 7940SOL    HW226359   7.583   3.100   6.174 -0.2431 -0.6776 -0.4473
 7941SOL     OW26360   9.730   2.622   8.991 -0.3376 -0.2365  0.4519
 7941SOL    HW126361   9.744   2.562   9.065 -1.3462  0.2965  1.0841
 7941SOL    HW226362   9.636   2.638   8.991 -0.3476 -0.2940 -1.0089
 7942SOL     OW26363   9.113   6.395   5.439  0.1219  0.2332 -0.2285
 7942SOL    HW126364   9.148   6.422   5.354 -0.7187 -0.4936 -0.8160
 7942SOL    HW226365   9.093   6.477   5.484 -0.2685  0.6200 -1.0878
 7943SOL     OW26366   5.207   9.860   3.139 -0.3260  0.2933 -0.3302
 7943SOL    HW126367   5.226   9.790   3.201 -1.3830  0.4120  0.1266
 7943SOL    HW226368   5.293   9.899   3.120  0.1328 -0.4534  0.2033
 7944SOL     OW26369   6.289   6.160   2.884 -0.1068 -0.9780 -0.3121
 7944SOL    HW126370   6.319   6.192   2.799  1.0423 -1.6790 -0.1716
 7944SOL    HW226371   6.287   6.065   2.874 -0.6327 -1.0274  0.2375
 7945SOL     OW26372   3.508   5.395   9.822  0.2664  0.7330  0.6066
 7945SOL    HW126373   3.490   5.472   9.876 -3.5555 -0.4917  1.2614
 7945SOL    HW226374   3.466   5.323   9.870  1.7073 -1.3572 -1.1949
 7946SOL     OW26375   4.878   1.139   2.667  0.1856  0.3887 -0.4148
 7946SOL    HW126376   4.882   1.062   2.611 -2.1511 -0.9796  1.2128
 7946SOL    HW226377   4.969   1.166   2.678  1.1294 -2.7043 -0.2383
 7947SOL     OW26378   4.082   1.519   8.184 -0.5375 -0.0960  0.3863
 7947SOL    HW126379   4.174   1.547   8.189 -0.5647  0.1260 -0.2416
 7947SOL    HW226380   4.032   1.599   8.203 -0.6036  0.0156 -0.2266
 7948SOL     OW26381   7.883   8.084   3.076 -0.0642 -0.0960 -0.3210
 7948SOL    HW126382   7.868   8.133   2.994  1.0872  0.5772 -0.1314
 7948SOL    HW226383   7.816   8.016   3.074 -0.5851  0.4166 -1.4345
 7949SOL     OW26384   7.996   1.184   9.167 -0.1599 -0.6807 -0.0042
 7949SOL    HW126385   8.067   1.120   9.169  0.1618 -0.3981 -1.5560
 7949SOL    HW226386   7.916   1.131   9.166  0.0802 -1.0399 -0.2075
 7950SOL     OW26387   3.131   8.251   8.355 -0.6326  0.1795  0.9298
 7950SOL    HW126388   3.136   8.325   8.416  1.5707  1.6522 -0.9358
 7950SOL    HW226389   3.037   8.237   8.342 -1.0925  1.7695  2.3780
 7951SOL     OW26390  10.005   0.627   2.639 -0.0078 -0.4440 -0.5702
 7951SOL    HW126391   9.981   0.681   2.563  0.9356  0.6223 -0.1284
 7951SOL    HW226392  10.100   0.636   2.646 -0.1710  0.1702  1.2413
 7952SOL     OW26393   0.358   0.083   2.313  0.2650  0.2885 -0.6252
 7952SOL    HW126394   0.383   0.151   2.250  2.1010  2.1688  1.9890
 7952SOL    HW226395   0.390   0.116   2.397 -2.0462 -2.1665  1.2961
 7953SOL     OW26396   3.405   4.527   1.046  0.2813  0.0504 -0.0499
 7953SOL    HW126397   3.366   4.614   1.035  0.0977 -0.2545 -1.8885
 7953SOL    HW226398   3.347   4.483   1.109 -0.6717  0.6212 -0.5132
 7954SOL     OW26399   2.470   4.731   3.561 -0.4431 -0.2044  0.7928
 7954SOL    HW126400   2.552   4.757   3.520 -0.2672  0.6904  1.6980
 7954SOL    HW226401   2.476   4.764   3.651 -0.2192 -3.3344  1.9975
 7955SOL     OW26402   9.609   1.873   3.521  0.0189  0.3612 -0.1538
 7955SOL    HW126403   9.673   1.802   3.514 -0.1105  0.1335  0.8093
 7955SOL    HW226404   9.629   1.932   3.449  0.3803 -0.4583 -0.7253
 7956SOL     OW26405   8.053   0.959   3.508  0.1855  0.6428 -0.7865
 7956SOL    HW126406   7.966   0.993   3.526  0.2204  0.5908 -0.5218
 7956SOL    HW226407   8.074   0.993   3.421 -0.1298  0.5888 -0.8854
 7957SOL     OW26408   1.105   4.551   1.524  0.0909  0.0249 -0.6677
 7957SOL    HW126409   1.070   4.494   1.456  1.1530 -0.3238 -0.9252
 7957SOL    HW226410   1.158   4.616   1.477  1.1551 -0.4557 -0.1444
 7958SOL     OW26411   4.659   1.738   9.624 -0.2757  0.1764  0.2536
 7958SOL    HW126412   4.655   1.694   9.539 -0.0855 -1.5603  1.1418
 7958SOL    HW226413   4.572   1.778   9.634  0.2864  1.9458 -1.5537
 7959SOL     OW26414   2.595   5.678   5.350 -0.0387  0.3437 -0.5029
 7959SOL    HW126415   2.512   5.631   5.352 -0.9156  1.9144  1.0714
 7959SOL    HW226416   2.589   5.741   5.422  2.9720 -0.3079  0.3906
 7960SOL     OW26417   6.391   0.117   9.811  0.6418  0.0079  0.1643
 7960SOL    HW126418   6.382   0.210   9.791 -2.0057 -0.4541 -1.0474
 7960SOL    HW226419   6.459   0.113   9.878 -0.6046  2.9898  1.7067
 7961SOL     OW26420   5.123   4.059   1.278  0.5792 -0.3199  0.1759
 7961SOL    HW126421   5.201   4.106   1.248 -0.5671 -0.4855 -3.2464
 7961SOL    HW226422   5.155   3.970   1.297  1.5603  0.1002  0.5414
 7962SOL     OW26423   9.875   5.757   0.820  0.0820  0.0768 -0.3607
 7962SOL    HW126424   9.780   5.765   0.823 -0.1081 -2.3438  3.1321
 7962SOL    HW226425   9.907   5.821   0.884  0.6404 -1.0794  0.5237
 7963SOL     OW26426   0.079   9.162   4.515 -0.0805 -0.0902  0.4802
 7963SOL    HW126427   0.133   9.220   4.460  0.0340  2.5000  3.1773
 7963SOL    HW226428   0.119   9.076   4.505  0.1041  0.3344 -3.2330
 7964SOL     OW26429   6.842   4.492   7.136 -0.4084  0.0939  0.2453
 7964SOL    HW126430   6.797   4.576   7.126  0.8672  0.9313  1.3595
 7964SOL    HW226431   6.783   4.438   7.189 -0.1769  1.1284  1.5686
 7965SOL     OW26432   4.521   0.296   3.716  0.2285 -0.0345 -0.0741
 7965SOL    HW126433   4.484   0.210   3.699  0.1851 -0.0270 -0.0200
 7965SOL    HW226434   4.502   0.347   3.637  0.4142 -0.1275 -0.1796
 7966SOL     OW26435   1.726   1.395   7.495  0.2397  0.0024  0.1127
 7966SOL    HW126436   1.756   1.466   7.438 -0.1137 -1.0392 -1.3656
 7966SOL    HW226437   1.778   1.407   7.575  1.0819  1.1763 -0.5822
 7967SOL     OW26438   7.517   7.463   1.752 -0.0183 -0.1137  0.2002
 7967SOL    HW126439   7.536   7.371   1.738  1.3853 -0.0491  1.5387
 7967SOL    HW226440   7.451   7.485   1.686 -0.0177 -1.9451 -0.4192
 7968SOL     OW26441   7.438   1.852   7.965 -0.1928 -0.0040  0.3482
 7968SOL    HW126442   7.509   1.820   8.021 -1.7184 -0.2078  2.2320
 7968SOL    HW226443   7.435   1.790   7.893  1.4756 -0.0357  0.2718
 7969SOL     OW26444   1.819   1.545   6.265 -0.3689  0.3794  0.9036
 7969SOL    HW126445   1.900   1.500   6.241 -0.4548  0.2027  0.9470
 7969SOL    HW226446   1.788   1.500   6.343 -1.3261 -0.5459  0.0054
 7970SOL     OW26447   1.786   9.247   0.202 -0.0820 -0.3008  0.1023
 7970SOL    HW126448   1.717   9.217   0.261  0.8707 -1.2295  0.7661
 7970SOL    HW226449   1.784   9.342   0.209 -0.2745 -0.3837  1.3059
 7971SOL     OW26450   4.820   9.784   7.113 -0.0278  0.2120 -0.1823
 7971SOL    HW126451   4.862   9.698   7.114  2.7135  1.4442 -1.9092
 7971SOL    HW226452   4.820   9.810   7.021  0.7557  2.7370  0.4679
 7972SOL     OW26453   0.532   1.602   2.108 -0.0131  0.0258 -0.6864
 7972SOL    HW126454   0.579   1.589   2.190 -1.0450  2.5550  0.3750
 7972SOL    HW226455   0.575   1.543   2.046  1.0947 -1.5865  1.5259
 7973SOL     OW26456   8.180   1.169   7.005 -0.1644  0.1881 -0.1350
 7973SOL    HW126457   8.088   1.165   6.981 -0.8904  0.3081  2.4707
 7973SOL    HW226458   8.183   1.141   7.097  2.5953 -1.3536 -0.6331
 7974SOL     OW26459   8.959   9.635   5.589  0.4138 -0.8564  0.5030
 7974SOL    HW126460   8.957   9.549   5.630  1.0835 -1.2226 -0.2030
 7974SOL    HW226461   9.035   9.679   5.628  0.4705 -0.8379  0.3707
 7975SOL     OW26462   2.772   7.765   4.177  0.6030 -0.1354 -0.3419
 7975SOL    HW126463   2.695   7.820   4.161  0.3606 -0.0513  1.0378
 7975SOL    HW226464   2.843   7.808   4.129 -0.2797 -0.4021 -1.8953
 7976SOL     OW26465   0.769   8.856   6.050  0.1340 -0.1298  0.5014
 7976SOL    HW126466   0.815   8.781   6.086 -0.1475 -0.3973  0.3135
 7976SOL    HW226467   0.798   8.930   6.102  2.6704  0.1227 -1.1790
 7977SOL     OW26468   2.202   1.101   3.811  0.3419  0.0800  0.4705
 7977SOL    HW126469   2.196   1.190   3.776  0.6035 -0.2165 -0.3339
 7977SOL    HW226470   2.294   1.077   3.798  0.2784 -0.2993  0.7176
 7978SOL     OW26471   0.662   4.862   7.385  0.2991 -0.0708 -0.2727
 7978SOL    HW126472   0.583   4.858   7.331  0.7348 -2.9218 -0.7603
 7978SOL    HW226473   0.690   4.954   7.379 -2.9849  1.0265 -0.0187
 7979SOL     OW26474   9.106   7.513   1.630 -0.2581 -0.2232  0.2656
 7979SOL    HW126475   9.166   7.511   1.555 -2.6261 -0.0625 -1.6868
 7979SOL    HW226476   9.160   7.486   1.704  1.6481 -2.4116 -1.8444
 7980SOL     OW26477   0.677   8.356   3.991 -0.1223 -0.0016  0.0607
 7980SOL    HW126478   0.620   8.344   4.067 -1.4918  0.1098 -0.9254
 7980SOL    HW226479   0.645   8.294   3.926 -0.1804  1.2116 -1.0965
 7981SOL     OW26480   2.775   4.165   1.819  0.0687  0.2937  0.0180
 7981SOL    HW126481   2.704   4.120   1.774  0.2473 -0.0976  0.1276
 7981SOL    HW226482   2.808   4.101   1.882  1.2518  0.0907 -0.8026
 7982SOL     OW26483   6.052   7.755   1.089 -0.4646  0.1387  0.2542
 7982SOL    HW126484   6.113   7.682   1.099 -0.0297  0.1485 -1.9725
 7982SOL    HW226485   6.107   7.833   1.093 -0.7043  0.2785  0.9249
 7983SOL     OW26486   8.844   2.357  10.025 -0.7323  0.4850 -0.8612
 7983SOL    HW126487   8.773   2.298  10.001  1.0629 -1.3047 -2.0363
 7983SOL    HW226488   8.871   2.397   9.942 -0.6719  1.5142 -0.3540
 7984SOL     OW26489   8.107   3.187   2.112 -0.4207 -0.0766  0.2566
 7984SOL    HW126490   8.057   3.111   2.141 -1.0167  0.6256  1.0734
 7984SOL    HW226491   8.186   3.150   2.072  0.2095 -1.0815  2.3993
 7985SOL     OW26492   1.013   5.287   6.360 -0.0790 -0.8715 -0.0947
 7985SOL    HW126493   0.981   5.359   6.306 -0.3275 -1.2923 -0.5105
 7985SOL    HW226494   0.987   5.208   6.313 -0.5183 -1.2449  0.7767
 7986SOL     OW26495   7.781   5.087   1.499 -0.0641  0.5890 -0.5438
 7986SOL    HW126496   7.848   5.149   1.471  1.3229 -1.4844 -1.9587
 7986SOL    HW226497   7.698   5.131   1.480  0.8884  2.1734 -1.0921
 7987SOL     OW26498   9.520   3.303   9.252  0.3416  0.1927 -0.0013
 7987SOL    HW126499   9.530   3.378   9.193  1.2146 -1.0513 -1.4552
 7987SOL    HW226500   9.578   3.236   9.217 -2.7571 -2.3138 -0.5776
 7988SOL     OW26501   9.529   8.550   0.948  0.2801  0.9361 -0.3064
 7988SOL    HW126502   9.480   8.626   0.978 -0.8364  0.3359 -0.5649
 7988SOL    HW226503   9.505   8.541   0.856  0.5528  0.3903 -0.3245
 7989SOL     OW26504   3.833   5.525   6.986 -0.3294 -0.0540  0.1205
 7989SOL    HW126505   3.921   5.509   6.952  0.4448  1.0037  1.5813
 7989SOL    HW226506   3.778   5.528   6.908  0.6259 -2.4458 -0.7076
 7990SOL     OW26507   4.965   4.033   6.139 -0.4518 -0.0249 -0.6879
 7990SOL    HW126508   4.978   3.981   6.060  1.0410  0.4357 -0.7652
 7990SOL    HW226509   4.940   4.120   6.107 -0.9350 -0.1393 -0.6203
 7991SOL     OW26510   0.114   1.613   1.042 -0.4231 -0.0303  0.4838
 7991SOL    HW126511   0.066   1.695   1.033 -0.5718 -0.2441 -0.7038
 7991SOL    HW226512   0.050   1.545   1.020  0.4124 -0.3134 -1.1878
 7992SOL     OW26513   3.980   1.798   9.603  0.2045  0.2640 -0.0104
 7992SOL    HW126514   4.022   1.861   9.661 -0.4784 -0.5271  1.3700
 7992SOL    HW226515   3.889   1.795   9.632 -0.5843  1.1832 -2.3089
 7993SOL     OW26516   2.000   1.987   8.772 -0.0324  0.1229 -0.3192
 7993SOL    HW126517   1.948   1.982   8.692 -1.3514  1.8985  0.3689
 7993SOL    HW226518   2.068   2.052   8.752  0.5545 -0.5366 -0.4797
 7994SOL     OW26519   4.215   6.293   5.314 -0.4303 -0.2783  0.4485
 7994SOL    HW126520   4.199   6.386   5.295 -0.7618 -0.3900  0.1755
 7994SOL    HW226521   4.141   6.267   5.369 -2.4047 -1.3478 -2.5764
 7995SOL     OW26522   5.325   3.436   3.604 -0.1438  0.2751  0.1606
 7995SOL    HW126523   5.326   3.348   3.565 -1.7078 -0.4957  1.7951
 7995SOL    HW226524   5.401   3.437   3.662  0.2386  0.2302 -0.3374
 7996SOL     OW26525   1.474   7.023   5.840 -0.4557 -0.4384 -0.3544
 7996SOL    HW126526   1.403   7.014   5.776 -0.4451  0.1147 -0.4464
 7996SOL    HW226527   1.455   7.105   5.885  1.4126  0.9444 -1.9987
 7997SOL     OW26528   3.713   5.669   1.907  0.3068 -0.1253  0.2644
 7997SOL    HW126529   3.733   5.667   1.814  0.5797 -1.0042  0.3412
 7997SOL    HW226530   3.622   5.641   1.913 -0.0229  0.8861  0.1866
 7998SOL     OW26531   3.838   7.518   3.759  0.3047  0.2485  0.1363
 7998SOL    HW126532   3.749   7.508   3.794  0.6511  1.2298  1.3555
 7998SOL    HW226533   3.894   7.481   3.827  0.8961  0.6503 -0.1326
 7999SOL     OW26534   6.465   9.480   1.269  0.3892 -0.0339 -0.1597
 7999SOL    HW126535   6.400   9.512   1.207  0.1396 -0.9768 -0.3923
 7999SOL    HW226536   6.417   9.469   1.351  0.0813 -1.3816 -0.5052
 8000SOL     OW26537   4.677   7.012   7.934 -0.4241  0.6173  0.0739
 8000SOL    HW126538   4.600   6.956   7.924 -0.6573  0.5752  1.9673
 8000SOL    HW226539   4.695   7.044   7.845 -0.9599 -1.5487 -0.8647
 8001SOL     OW26540   6.030   1.613   7.646  0.0391  0.3094 -0.4519
 8001SOL    HW126541   5.996   1.542   7.592 -0.4265 -0.7374  1.1833
 8001SOL    HW226542   5.955   1.671   7.660 -0.7921 -1.2776  1.9977
 8002SOL     OW26543   3.807   1.163   5.138 -0.0862 -0.0948  0.3449
 8002SOL    HW126544   3.721   1.133   5.167 -0.6808  2.6698  1.6034
 8002SOL    HW226545   3.791   1.202   5.052  0.1103 -0.4320  0.1512
 8003SOL     OW26546   1.780   6.226   4.413  0.0363 -0.1370 -0.8975
 8003SOL    HW126547   1.795   6.172   4.490  1.7236 -0.8943 -1.7476
 8003SOL    HW226548   1.723   6.297   4.444  2.4348  0.7765  1.5592
 8004SOL     OW26549   1.571   5.364   8.190 -0.1841 -0.1549 -0.5099
 8004SOL    HW126550   1.610   5.287   8.231 -1.2119 -0.1451  0.5126
 8004SOL    HW226551   1.639   5.398   8.132  0.2727 -1.8177 -0.9460
 8005SOL     OW26552   5.137   6.710   6.532  0.4841 -0.6440 -0.9457
 8005SOL    HW126553   5.080   6.661   6.590 -0.0715 -1.0264 -1.8003
 8005SOL    HW226554   5.079   6.772   6.488  1.0675  0.3385 -0.3558
 8006SOL     OW26555   7.527   4.588   2.822  0.6542 -0.1721  0.1896
 8006SOL    HW126556   7.514   4.629   2.907 -0.5560 -0.8521  0.3499
 8006SOL    HW226557   7.616   4.555   2.824  1.0325  0.8512  0.7405
 8007SOL     OW26558   9.077   2.727   1.360 -0.5010  0.5408  0.8131
 8007SOL    HW126559   9.156   2.674   1.374 -1.5491 -1.1906  0.3913
 8007SOL    HW226560   9.074   2.740   1.266 -0.7719  0.5234  0.8202
 8008SOL     OW26561   3.564   4.353   7.087  0.4285 -0.0052  0.5342
 8008SOL    HW126562   3.625   4.360   7.013 -2.4252 -2.1265 -2.1640
 8008SOL    HW226563   3.524   4.440   7.093 -0.2522 -0.1659 -1.3254
 8009SOL     OW26564   1.826   8.896   5.782  0.8161  0.0450 -0.1364
 8009SOL    HW126565   1.761   8.860   5.721 -1.1217  0.0834  1.8423
 8009SOL    HW226566   1.795   8.868   5.869  3.3385  0.2680  0.8601
 8010SOL     OW26567   1.564   5.731   9.297  0.3093 -0.0433  0.0540
 8010SOL    HW126568   1.475   5.764   9.308  0.6812  0.7855  0.6613
 8010SOL    HW226569   1.564   5.646   9.340  0.0760  0.4116  0.9727
 8011SOL     OW26570   2.231   3.008   7.223 -0.2875  0.1390 -0.0419
 8011SOL    HW126571   2.170   2.993   7.151 -0.7504 -1.6075  0.7109
 8011SOL    HW226572   2.306   3.051   7.181 -0.9555  0.0191 -1.3966
 8012SOL     OW26573   4.170   4.707   5.341  0.0583 -0.1195  0.2195
 8012SOL    HW126574   4.153   4.754   5.259 -2.2254 -0.3667  0.5375
 8012SOL    HW226575   4.215   4.772   5.396 -1.4321  1.1455 -0.0117
 8013SOL     OW26576   1.858   1.627   3.647 -0.0410 -0.5566 -0.3093
 8013SOL    HW126577   1.770   1.653   3.619 -0.3618  0.2938  1.4024
 8013SOL    HW226578   1.857   1.532   3.644 -1.4707 -0.6046  0.9968
 8014SOL     OW26579   9.541   1.133   9.171  0.1942 -0.1536  0.3063
 8014SOL    HW126580   9.560   1.191   9.245  1.3991 -1.3501  0.9543
 8014SOL    HW226581   9.464   1.083   9.198 -0.1990  0.3806  0.1811
 8015SOL     OW26582   9.565   1.087   4.349 -0.1186 -0.4328 -0.5949
 8015SOL    HW126583   9.580   1.014   4.289  0.2267 -1.4145  0.6654
 8015SOL    HW226584   9.594   1.055   4.434  0.0657  1.1868 -0.0208
 8016SOL     OW26585   4.517   8.818   6.731  0.1171 -0.0131  0.0479
 8016SOL    HW126586   4.522   8.808   6.826 -1.8029  0.4841  0.2259
 8016SOL    HW226587   4.515   8.728   6.697  0.9376 -0.1878  0.4664
 8017SOL     OW26588   5.656   2.412   2.466 -0.3238 -0.0482  0.1116
 8017SOL    HW126589   5.664   2.375   2.554 -1.6185 -2.1997 -0.6369
 8017SOL    HW226590   5.741   2.397   2.426 -0.4212 -1.0850  0.2672
 8018SOL     OW26591   5.223   8.409   1.693 -0.2012  0.1260  0.1705
 8018SOL    HW126592   5.153   8.408   1.758 -0.6794 -0.4112 -0.3460
 8018SOL    HW226593   5.282   8.479   1.722 -0.2743 -0.2778  1.3195
 8019SOL     OW26594   8.317   0.079   9.590  0.4039  0.2811  0.0432
 8019SOL    HW126595   8.265  -0.001   9.585 -0.0001  0.5521 -0.1008
 8019SOL    HW226596   8.364   0.072   9.673  0.1535  0.0278  0.1648
 8020SOL     OW26597   1.306   2.164   4.666 -0.2129 -0.5533  0.1005
 8020SOL    HW126598   1.373   2.099   4.688  1.1313  0.6615 -0.2952
 8020SOL    HW226599   1.288   2.148   4.573  1.0535  0.4352 -0.3343
 8021SOL     OW26600   7.869   2.342   5.536  0.0090  0.7797 -0.3888
 8021SOL    HW126601   7.909   2.425   5.560  0.2371  0.0916  1.7009
 8021SOL    HW226602   7.937   2.277   5.553 -1.6548 -0.3193  2.4588
 8022SOL     OW26603   3.315   9.336   3.296  0.6391 -0.1756  0.4948
 8022SOL    HW126604   3.399   9.316   3.337 -0.4175  1.5446  3.6716
 8022SOL    HW226605   3.251   9.283   3.344 -0.2242 -0.7523 -1.2547
 8023SOL     OW26606   9.389   1.216   0.591  0.1763  0.0534  0.0768
 8023SOL    HW126607   9.333   1.282   0.632  1.2700  1.7093 -1.0367
 8023SOL    HW226608   9.403   1.248   0.502  0.2225 -2.0126 -0.6817
 8024SOL     OW26609   8.228   4.826   0.493 -0.1770  0.4597 -0.9900
 8024SOL    HW126610   8.201   4.734   0.495  1.4906 -0.0877 -2.5063
 8024SOL    HW226611   8.185   4.865   0.570 -1.5444 -1.3796 -0.7771
 8025SOL     OW26612   1.951   6.370   7.896 -0.1965 -0.0161  0.2330
 8025SOL    HW126613   1.977   6.460   7.912  0.6892 -0.1552 -0.4137
 8025SOL    HW226614   1.898   6.373   7.817 -0.9586  0.0627  0.7393
 8026SOL     OW26615   2.898   1.877   4.907 -1.0765  0.1631  0.0596
 8026SOL    HW126616   2.897   1.971   4.925 -1.2921  0.0902  0.4380
 8026SOL    HW226617   2.964   1.866   4.838 -1.9109  0.7381 -0.8384
 8027SOL     OW26618   6.014   5.467   4.833 -0.2192 -0.2871  0.2699
 8027SOL    HW126619   6.077   5.535   4.860 -1.0869 -0.1004  1.8561
 8027SOL    HW226620   6.056   5.385   4.858  1.5031 -0.4788 -2.9930
 8028SOL     OW26621   0.533  10.020   8.149  0.0107  0.2536  0.1677
 8028SOL    HW126622   0.618  10.042   8.188 -0.2955 -1.4570  1.8541
 8028SOL    HW226623   0.533   9.925   8.146 -1.3675  0.2830 -0.9596
 8029SOL     OW26624   9.402   2.459   1.097  0.3825 -0.3755 -0.0826
 8029SOL    HW126625   9.469   2.528   1.091  1.3230 -1.2560  0.2110
 8029SOL    HW226626   9.436   2.388   1.043  0.8846 -1.7950  2.0427
 8030SOL     OW26627   0.266   4.923   7.040  0.1654 -0.0599 -0.4320
 8030SOL    HW126628   0.255   4.873   6.960  0.3329 -1.1161  0.1922
 8030SOL    HW226629   0.181   4.963   7.056  0.1766  0.2858 -1.2150
 8031SOL     OW26630   7.167   1.790   9.610 -0.7926 -0.1517 -0.3245
 8031SOL    HW126631   7.189   1.821   9.522  0.7182 -0.9770 -0.2484
 8031SOL    HW226632   7.083   1.745   9.599 -1.2273  0.8261 -1.1031
 8032SOL     OW26633   9.352   9.384   4.656 -0.0682  0.1842 -0.5010
 8032SOL    HW126634   9.342   9.289   4.646 -0.7345  0.0901  1.0215
 8032SOL    HW226635   9.441   9.402   4.626  1.0439 -1.3109  1.8326
 8033SOL     OW26636   2.251   8.749   2.236  0.1252  0.6703 -0.3291
 8033SOL    HW126637   2.341   8.717   2.238 -0.0219  0.2191 -0.7354
 8033SOL    HW226638   2.204   8.685   2.182 -0.8841 -0.2310  1.5963
 8034SOL     OW26639   0.070   8.466   4.098  0.5178  0.6046 -0.5190
 8034SOL    HW126640   0.080   8.427   4.185  0.1839  1.1142 -0.2528
 8034SOL    HW226641   0.050   8.392   4.041 -0.3736  0.4168  0.0316
 8035SOL     OW26642   7.892   4.608   7.066 -0.1819  0.6964 -0.0123
 8035SOL    HW126643   7.897   4.688   7.014 -1.9233  0.8486  0.0085
 8035SOL    HW226644   7.898   4.638   7.157  1.4866  0.5652 -0.0713
 8036SOL     OW26645   4.341   4.419   3.199  0.9199  0.0754  0.2901
 8036SOL    HW126646   4.337   4.343   3.140 -1.2529  1.8079 -1.9237
 8036SOL    HW226647   4.252   4.426   3.234  1.6354  0.4026  2.0883
 8037SOL     OW26648   5.332   4.777   4.951 -0.5554 -0.6982 -0.2166
 8037SOL    HW126649   5.387   4.730   4.888 -1.0689 -1.3834 -0.1628
 8037SOL    HW226650   5.383   4.776   5.033 -0.7472 -1.5364 -0.1054
 8038SOL     OW26651   8.197   8.000   8.860  0.1102 -0.1210 -0.1679
 8038SOL    HW126652   8.136   7.941   8.904  0.0586  0.1700  0.1529
 8038SOL    HW226653   8.142   8.070   8.825  0.2331  0.0127 -0.0930
 8039SOL     OW26654   2.039   7.405   8.768 -0.2062 -0.3173 -0.1331
 8039SOL    HW126655   2.058   7.455   8.688 -1.8310 -0.1092 -0.4225
 8039SOL    HW226656   1.962   7.353   8.745 -0.8239 -0.0874  1.3616
 8040SOL     OW26657   8.398   1.650   0.586  0.4900 -0.4184 -0.4115
 8040SOL    HW126658   8.329   1.678   0.526 -1.0742 -0.8408  1.1588
 8040SOL    HW226659   8.402   1.718   0.654  0.1210 -1.4703  0.6818
 8041SOL     OW26660   6.919   3.583   0.292  0.1865  0.0134 -0.3686
 8041SOL    HW126661   6.925   3.557   0.384  0.9660 -1.7652 -0.9126
 8041SOL    HW226662   6.963   3.668   0.288 -0.1201  0.2418  0.9473
 8042SOL     OW26663   8.163   4.122   9.276 -0.0812 -0.0484 -0.0373
 8042SOL    HW126664   8.093   4.176   9.312 -1.3862 -1.0494 -1.0264
 8042SOL    HW226665   8.222   4.107   9.350  1.3396  4.2930 -0.1929
 8043SOL     OW26666   3.087   2.220   8.072  0.4958 -0.5532  0.2286
 8043SOL    HW126667   3.117   2.133   8.047  1.4581 -0.1762  0.0576
 8043SOL    HW226668   3.078   2.267   7.989  2.4751  0.3057  0.4624
 8044SOL     OW26669   8.568   4.096   2.156 -0.2329  0.2136  0.0902
 8044SOL    HW126670   8.594   4.109   2.064 -0.6985  1.3699  0.1139
 8044SOL    HW226671   8.476   4.121   2.158 -0.0506  0.8286  1.0059
 8045SOL     OW26672   8.711   1.407   2.502  0.0930 -0.1450 -0.1585
 8045SOL    HW126673   8.709   1.478   2.438 -0.4880  0.6270  0.7039
 8045SOL    HW226674   8.794   1.362   2.486 -1.3811 -1.8103 -3.4474
 8046SOL     OW26675   3.962   0.884   8.215 -0.0550  0.2228 -0.7973
 8046SOL    HW126676   3.918   0.799   8.225 -0.5486  0.5971  0.2337
 8046SOL    HW226677   4.024   0.870   8.143  1.9300 -1.8377  1.2235
 8047SOL     OW26678   3.488   1.866   8.972 -0.4628  0.5888  0.0673
 8047SOL    HW126679   3.440   1.868   9.055  1.5679 -2.0862  1.3648
 8047SOL    HW226680   3.465   1.782   8.932  0.8502  0.5809 -0.6952
 8048SOL     OW26681   7.711   2.748   5.174 -0.0994 -0.2716 -0.2187
 8048SOL    HW126682   7.775   2.815   5.196 -2.3878  2.0052 -0.2177
 8048SOL    HW226683   7.729   2.676   5.234  1.6540  0.8225  0.5919
 8049SOL     OW26684   4.473   0.279   1.570 -0.3697 -0.3910  0.4372
 8049SOL    HW126685   4.495   0.237   1.653  1.4394 -1.7894 -0.7183
 8049SOL    HW226686   4.483   0.373   1.587 -1.0428 -0.5951  2.0672
 8050SOL     OW26687   3.629   2.139   3.188  0.2802  0.0283 -0.7004
 8050SOL    HW126688   3.550   2.168   3.234  0.5714 -1.7691  0.9785
 8050SOL    HW226689   3.661   2.064   3.238  1.5504 -0.9668 -2.9026
 8051SOL     OW26690   8.993   7.625   2.826 -0.8367  0.3081  0.3891
 8051SOL    HW126691   9.054   7.699   2.824  0.2788 -0.6192  0.0119
 8051SOL    HW226692   9.048   7.548   2.816 -2.1192 -0.5148 -0.4344
 8052SOL     OW26693   8.831   1.326   7.075 -0.1502  0.0262 -0.3152
 8052SOL    HW126694   8.873   1.279   7.002 -1.2487 -1.3417 -0.0969
 8052SOL    HW226695   8.774   1.260   7.115 -0.4364  1.1037  1.0627
 8053SOL     OW26696   1.324   5.321   1.724  0.0927 -0.0726 -0.4552
 8053SOL    HW126697   1.384   5.283   1.789 -0.6692  0.4010  0.5436
 8053SOL    HW226698   1.237   5.301   1.759 -0.3175  0.9524 -0.8942
 8054SOL     OW26699   0.840   2.758   6.793  0.5145  0.9917 -0.4758
 8054SOL    HW126700   0.896   2.809   6.734  0.9097  1.0276 -0.0747
 8054SOL    HW226701   0.878   2.771   6.880  1.2009 -0.7488 -0.4839
 8055SOL     OW26702   4.750   2.080   2.721 -0.6578  0.1666  0.5672
 8055SOL    HW126703   4.676   2.094   2.662  0.4755  3.5080 -0.1599
 8055SOL    HW226704   4.710   2.071   2.808 -2.0024  0.6650  0.0090
 8056SOL     OW26705   4.053   1.760   0.699  0.3271 -0.6330 -0.1410
 8056SOL    HW126706   4.112   1.691   0.671 -0.5983 -0.8713 -1.5656
 8056SOL    HW226707   4.107   1.839   0.702  0.9633 -1.0585 -0.3201
 8057SOL     OW26708   9.050   8.101   7.164  0.3838  0.0999 -0.0786
 8057SOL    HW126709   9.092   8.186   7.174  0.3745 -0.0507  1.3514
 8057SOL    HW226710   9.074   8.073   7.076  0.1195  1.7190 -0.6817
 8058SOL     OW26711   7.826   2.398   9.478 -0.0613 -0.0007  0.1975
 8058SOL    HW126712   7.776   2.475   9.450  0.9932  0.3422 -0.7684
 8058SOL    HW226713   7.760   2.329   9.485 -0.5967  0.2695 -1.7640
 8059SOL     OW26714   0.800   5.907   2.709  0.2131  0.2712 -1.0554
 8059SOL    HW126715   0.787   5.836   2.772  0.9080  0.2138 -0.9806
 8059SOL    HW226716   0.765   5.985   2.754 -0.9924 -0.1007 -1.3243
 8060SOL     OW26717   6.274   5.274   4.574 -0.1843  0.1158 -0.2787
 8060SOL    HW126718   6.199   5.323   4.540 -0.3176  0.3861  0.3996
 8060SOL    HW226719   6.335   5.342   4.605  0.5020 -0.0850 -1.1511
 8061SOL     OW26720   7.696   6.745   0.867 -0.3426  0.3590  0.0548
 8061SOL    HW126721   7.741   6.787   0.941  0.7340 -0.7360  0.0376
 8061SOL    HW226722   7.636   6.683   0.908 -0.7958  0.7776  0.0358
 8062SOL     OW26723   7.394   3.735   8.298 -0.3292  0.6679  0.7370
 8062SOL    HW126724   7.380   3.818   8.343 -1.8024 -0.0651  1.6733
 8062SOL    HW226725   7.489   3.729   8.288 -0.2707  3.0145 -0.4145
 8063SOL     OW26726   7.645   0.318   5.595 -0.4178  0.3435  0.4676
 8063SOL    HW126727   7.646   0.356   5.507 -0.4688  0.1523  0.3843
 8063SOL    HW226728   7.553   0.321   5.622 -0.5203 -0.3225  0.1990
 8064SOL     OW26729   7.965   9.723   2.850 -0.0658 -0.1385 -0.3473
 8064SOL    HW126730   8.053   9.722   2.811 -0.1434 -0.0570 -0.5235
 8064SOL    HW226731   7.947   9.815   2.868  0.0506 -0.1952  0.0712
 8065SOL     OW26732   8.814   6.754   1.654 -0.1481  0.0379  0.4953
 8065SOL    HW126733   8.860   6.688   1.603 -0.7554  1.3042 -1.7688
 8065SOL    HW226734   8.721   6.737   1.638 -0.3325  0.7246  0.7989
 8066SOL     OW26735   5.750   8.200   6.248  0.4512 -0.4667 -0.2291
 8066SOL    HW126736   5.797   8.230   6.170  0.5035 -0.4170 -0.1782
 8066SOL    HW226737   5.744   8.105   6.236  0.4610 -0.4598 -0.2919
 8067SOL     OW26738   3.762   5.462   6.166  0.6597  0.2775 -0.1955
 8067SOL    HW126739   3.761   5.440   6.259  0.2710 -0.1008 -0.2825
 8067SOL    HW226740   3.799   5.550   6.162 -1.0455  1.0576  0.4870
 8068SOL     OW26741  10.116   4.729   9.518 -0.3656 -0.1581 -0.0211
 8068SOL    HW126742  10.167   4.792   9.467  3.6569 -1.5613  2.0453
 8068SOL    HW226743  10.150   4.644   9.491 -1.8494 -1.1514  1.1871
 8069SOL     OW26744   3.873   4.261   4.307 -0.2827  0.0433 -1.0196
 8069SOL    HW126745   3.865   4.344   4.354 -0.0688 -0.1965 -0.5521
 8069SOL    HW226746   3.966   4.238   4.316 -0.8028 -1.4552  0.9365
 8070SOL     OW26747   2.774   7.283   4.779 -0.1556 -0.3196 -0.2449
 8070SOL    HW126748   2.717   7.216   4.818  1.0452 -0.7500  0.8096
 8070SOL    HW226749   2.728   7.311   4.700 -1.5051 -1.1462  0.2330
 8071SOL     OW26750   4.007   3.677   9.110  1.0355  0.1007 -0.6719
 8071SOL    HW126751   4.046   3.595   9.079  0.8870  0.0229 -0.6575
 8071SOL    HW226752   3.955   3.708   9.036  0.7114 -0.0647 -0.5191
 8072SOL     OW26753   8.645   3.935   2.396 -0.0221  0.0127 -0.0393
 8072SOL    HW126754   8.622   3.972   2.310  1.0896 -0.7613 -0.6757
 8072SOL    HW226755   8.583   3.863   2.408 -0.2890  0.2270 -0.1011
 8073SOL     OW26756   8.113  10.165   3.443 -0.2598 -0.7644  0.6753
 8073SOL    HW126757   8.177  10.116   3.495  0.0306 -0.0496  0.9990
 8073SOL    HW226758   8.029  10.145   3.482 -0.0641 -0.4150  1.2760
 8074SOL     OW26759   7.620   3.072   3.894 -0.0140  0.0237 -0.3813
 8074SOL    HW126760   7.601   3.124   3.816 -1.0234  0.6661  0.2829
 8074SOL    HW226761   7.627   2.982   3.862  0.2350  0.3663 -1.3066
 8075SOL     OW26762   8.794   4.527   8.047 -0.6832 -0.0272  0.1535
 8075SOL    HW126763   8.862   4.560   7.987 -0.0506 -1.4131  0.0975
 8075SOL    HW226764   8.743   4.605   8.070 -0.0190  0.7736 -1.0184
 8076SOL     OW26765   5.267   1.241   3.026 -0.3467  0.1040  0.1323
 8076SOL    HW126766   5.356   1.266   3.000 -0.5827 -0.3761 -1.1529
 8076SOL    HW226767   5.269   1.145   3.028 -0.6456  0.1069  0.8172
 8077SOL     OW26768   9.606   0.571   3.237 -0.4229 -0.5558  0.4343
 8077SOL    HW126769   9.536   0.523   3.193 -0.4960  1.8737 -2.2257
 8077SOL    HW226770   9.562   0.624   3.303 -0.8627 -0.5135  0.1036
 8078SOL     OW26771   1.765   4.153   9.778 -0.4482 -0.2874  0.0070
 8078SOL    HW126772   1.687   4.173   9.727  0.0817 -1.0560 -1.1161
 8078SOL    HW226773   1.834   4.207   9.739 -0.1831 -0.4004  0.3151
 8079SOL     OW26774   7.724   5.296   9.413 -0.2258 -0.3173  0.3426
 8079SOL    HW126775   7.631   5.276   9.400  0.0363 -1.4731  0.1595
 8079SOL    HW226776   7.770   5.235   9.355  0.6242  0.8299 -0.2233
 8080SOL     OW26777   0.217   9.517  10.191  0.2372 -0.1353  0.1166
 8080SOL    HW126778   0.217   9.426  10.220  0.3025 -0.4465 -0.8390
 8080SOL    HW226779   0.295   9.555  10.230  0.9954 -0.8770 -0.6651
 8081SOL     OW26780   3.069   7.593   6.547 -0.0762 -0.1743 -0.2291
 8081SOL    HW126781   3.020   7.531   6.493 -0.6327  0.1061 -0.0462
 8081SOL    HW226782   3.076   7.551   6.632  0.5033 -0.4642 -0.4133
 8082SOL     OW26783   9.420   9.058   8.736  0.1484 -0.4725 -0.2460
 8082SOL    HW126784   9.480   9.127   8.706 -0.6735  0.4416  0.1812
 8082SOL    HW226785   9.429   8.989   8.671 -1.0537  1.1652 -2.2279
 8083SOL     OW26786   7.811   4.964   3.196 -0.0775 -0.0212 -0.5293
 8083SOL    HW126787   7.792   5.009   3.114  1.2883  0.3903 -0.6450
 8083SOL    HW226788   7.896   5.000   3.223  0.8913 -2.2658 -0.4594
 8084SOL     OW26789   7.721   1.707   4.904  0.3521 -0.0373 -0.2035
 8084SOL    HW126790   7.647   1.672   4.953  0.1189 -0.3746 -0.7876
 8084SOL    HW226791   7.720   1.659   4.821 -0.5118  1.9359 -1.3822
 8085SOL     OW26792   5.257   6.181   4.456 -0.4525  0.0750  0.0681
 8085SOL    HW126793   5.260   6.109   4.393  1.9408 -0.4799  0.7638
 8085SOL    HW226794   5.164   6.198   4.468 -1.0128 -1.6253 -1.5541
 8086SOL     OW26795   3.801   4.531   4.344 -0.1931 -0.6612  0.3650
 8086SOL    HW126796   3.889   4.561   4.368 -0.1798 -1.9327  1.9623
 8086SOL    HW226797   3.755   4.612   4.320  1.2234  0.0888  0.0884
 8087SOL     OW26798   5.273   6.419   0.135  0.1622 -0.0282  0.5429
 8087SOL    HW126799   5.200   6.373   0.095 -0.3775  0.5155  0.8824
 8087SOL    HW226800   5.239   6.449   0.220  0.6417  0.5896  0.5218
 8088SOL     OW26801   9.866   9.404   0.513  0.4958  0.7300  0.4162
 8088SOL    HW126802   9.778   9.423   0.480 -0.3728 -1.2797  1.4740
 8088SOL    HW226803   9.910   9.489   0.514 -0.9410  1.5368 -1.5128
 8089SOL     OW26804   4.369   0.789   1.779 -0.4163  0.1503 -0.3422
 8089SOL    HW126805   4.287   0.812   1.736 -0.2474  2.3167  0.4721
 8089SOL    HW226806   4.434   0.847   1.740  0.0429  0.9878  1.6137
 8090SOL     OW26807   3.363   0.060   9.662  0.1938  0.2871  0.2882
 8090SOL    HW126808   3.328   0.144   9.693 -1.2601 -0.3824  0.5078
 8090SOL    HW226809   3.313   0.042   9.582 -0.8934 -1.3163  1.2985
 8091SOL     OW26810   6.709   6.823   9.227  0.2781 -0.2862 -0.4300
 8091SOL    HW126811   6.777   6.816   9.160  0.9404 -0.6307  0.2690
 8091SOL    HW226812   6.719   6.744   9.280  2.1005  1.6478  2.2317
 8092SOL     OW26813   7.493   2.144   3.945  0.3318  0.1602  0.5650
 8092SOL    HW126814   7.500   2.236   3.918  1.0902  0.2064  0.9131
 8092SOL    HW226815   7.511   2.146   4.039  0.7034 -0.3890  0.5041
 8093SOL     OW26816   8.306   9.764   1.673 -0.3523  0.1477 -0.6408
 8093SOL    HW126817   8.257   9.813   1.739  1.4392  0.1930  0.6946
 8093SOL    HW226818   8.397   9.793   1.684  0.3055 -1.4512 -1.6636
 8094SOL     OW26819  10.006   4.342   6.357  0.0134  0.3756 -0.4922
 8094SOL    HW126820  10.068   4.271   6.368  0.1501  0.8973  2.6571
 8094SOL    HW226821   9.925   4.299   6.329  1.5208 -0.3582 -4.0448
 8095SOL     OW26822   4.807   3.934   4.490  0.8178  0.1267 -0.0863
 8095SOL    HW126823   4.834   3.843   4.495  0.1644 -0.0835 -0.2895
 8095SOL    HW226824   4.800   3.963   4.581 -1.9947 -0.9476  0.0929
 8096SOL     OW26825   8.145   2.620   0.483 -0.5008 -0.0225  0.3600
 8096SOL    HW126826   8.057   2.619   0.522 -0.7457 -1.4343 -0.1790
 8096SOL    HW226827   8.201   2.585   0.552 -0.4156  0.5570  0.5848
 8097SOL     OW26828   5.681   2.213   8.802  0.3554  0.6113  0.0796
 8097SOL    HW126829   5.613   2.155   8.835  1.1576 -0.7242 -0.5400
 8097SOL    HW226830   5.647   2.302   8.816 -1.6929 -0.0322 -0.6458
 8098SOL     OW26831   1.886   9.571   8.776  0.2304  0.4080  0.5762
 8098SOL    HW126832   1.948   9.637   8.744 -0.6189  0.8183 -0.2746
 8098SOL    HW226833   1.916   9.550   8.864  0.8409  1.5405  0.6507
 8099SOL     OW26834   0.031   2.342   0.318  0.3855  0.6096 -0.2758
 8099SOL    HW126835   0.039   2.266   0.375 -1.0473  0.4395 -0.2669
 8099SOL    HW226836  -0.006   2.307   0.236  1.2730  1.0363 -0.8646
 8100SOL     OW26837   7.010   7.557   8.505 -0.5128 -0.7355 -0.5868
 8100SOL    HW126838   7.050   7.617   8.568 -1.7508 -0.3475 -0.1427
 8100SOL    HW226839   6.991   7.612   8.429  3.0573 -1.6828 -2.2398
 8101SOL     OW26840   4.114   8.286   3.203 -0.2305 -0.2408  0.4580
 8101SOL    HW126841   4.193   8.233   3.204 -0.4681 -0.6033  0.2119
 8101SOL    HW226842   4.113   8.329   3.288  0.7940  0.6079  0.0551
 8102SOL     OW26843   5.997   3.463   3.708 -0.4711 -0.1484 -0.2137
 8102SOL    HW126844   6.055   3.391   3.732 -0.2907 -0.4334 -1.4852
 8102SOL    HW226845   5.938   3.425   3.642 -1.2240  0.5113  0.0697
 8103SOL     OW26846   8.843   6.341   9.362 -0.4989 -0.2995 -0.2508
 8103SOL    HW126847   8.753   6.371   9.374 -0.4406  0.0992 -0.7944
 8103SOL    HW226848   8.866   6.368   9.273 -0.4554 -1.9969 -0.7804
 8104SOL     OW26849   8.986   0.616   8.063  0.0709 -0.4642 -0.1282
 8104SOL    HW126850   8.947   0.572   8.139 -0.3349 -1.0192 -0.6572
 8104SOL    HW226851   9.010   0.545   8.004 -3.7779  0.1227 -2.5542
 8105SOL     OW26852   8.156   5.281   4.658 -0.3429 -0.0206 -0.0770
 8105SOL    HW126853   8.221   5.307   4.723 -0.3406  0.9722 -0.4701
 8105SOL    HW226854   8.098   5.221   4.705  1.2252 -1.4239  0.1016
 8106SOL     OW26855   0.685   5.246   5.975 -0.2684 -0.4395 -0.3648
 8106SOL    HW126856   0.674   5.341   5.979  0.1208 -0.4300  0.4289
 8106SOL    HW226857   0.647   5.214   6.057  0.3834 -0.9010 -0.2439
 8107SOL     OW26858   7.868   9.017   0.570  0.4025 -0.5165  0.4780
 8107SOL    HW126859   7.931   9.089   0.561  0.0130 -0.4232 -1.7846
 8107SOL    HW226860   7.787   9.059   0.598  0.5296 -0.2321  0.4237
 8108SOL     OW26861   0.084   4.961   8.489  0.1877  0.2877 -0.0101
 8108SOL    HW126862   0.058   4.970   8.581  0.5979 -1.2658  0.2813
 8108SOL    HW226863   0.157   4.899   8.491 -1.3126 -1.6124 -1.5882
 8109SOL     OW26864   4.840   8.133   1.179  0.5411 -0.2934 -0.1304
 8109SOL    HW126865   4.758   8.091   1.153  0.8224 -0.2114 -1.1774
 8109SOL    HW226866   4.838   8.132   1.275 -0.7059 -0.2289 -0.1482
 8110SOL     OW26867   3.139   6.006   7.126  0.4041  0.0108  0.3216
 8110SOL    HW126868   3.076   5.945   7.164  1.4540 -0.7734  0.8617
 8110SOL    HW226869   3.224   5.964   7.140  1.1464  1.5846  0.6422
 8111SOL     OW26870   1.546   2.152   7.609  0.1399  0.0428 -0.5429
 8111SOL    HW126871   1.521   2.234   7.566 -1.7398 -0.1518  0.1277
 8111SOL    HW226872   1.466   2.122   7.652  1.4249 -0.9075  1.2523
 8112SOL     OW26873   1.757   2.940  10.009 -0.1417  0.6285  0.5811
 8112SOL    HW126874   1.787   2.880  10.077 -0.6286  0.5454  0.7199
 8112SOL    HW226875   1.753   3.025  10.052 -0.7636  0.5169  0.7387
 8113SOL     OW26876   6.463   5.915  10.045 -0.0720 -0.0593  0.0567
 8113SOL    HW126877   6.416   5.991  10.011  1.0502 -0.0275 -1.4686
 8113SOL    HW226878   6.538   5.952  10.092 -2.3659 -0.0408  3.8705
 8114SOL     OW26879   7.413   9.414   2.227  0.2753  0.0571  0.1899
 8114SOL    HW126880   7.419   9.396   2.133  1.2333 -0.1907  0.2968
 8114SOL    HW226881   7.360   9.343   2.262  0.3673 -0.1465 -0.0789
 8115SOL     OW26882   2.004   6.027   3.858 -0.3458 -0.0277 -0.0545
 8115SOL    HW126883   2.086   6.043   3.905 -0.1385  1.5194 -0.9095
 8115SOL    HW226884   1.963   5.954   3.904  0.3631  0.7625  1.8669
 8116SOL     OW26885   0.376   2.865   7.067  0.2176  0.7635  0.0481
 8116SOL    HW126886   0.355   2.772   7.059  0.6226  0.7863 -1.5274
 8116SOL    HW226887   0.436   2.870   7.142 -0.4099 -0.1355  0.6130
 8117SOL     OW26888   2.832   8.086   1.106 -0.1360 -0.7022  0.0222
 8117SOL    HW126889   2.901   8.117   1.048 -0.8328  0.7271 -0.0770
 8117SOL    HW226890   2.878   8.051   1.182  0.7249 -0.8189 -0.5472
 8118SOL     OW26891   0.664   8.658   8.581 -0.1816 -0.1167 -0.1652
 8118SOL    HW126892   0.721   8.586   8.609  0.8628  0.6197 -0.3480
 8118SOL    HW226893   0.666   8.720   8.654 -0.9538 -0.1947 -0.0728
 8119SOL     OW26894   2.946   7.280   8.033 -0.3728  0.2304 -0.1080
 8119SOL    HW126895   3.026   7.325   8.060  0.7840 -1.5305 -0.5374
 8119SOL    HW226896   2.876   7.343   8.051  0.8714  1.0079  2.2453
 8120SOL     OW26897   7.760   1.908   5.573  0.3020 -1.0692 -0.3444
 8120SOL    HW126898   7.754   1.916   5.477 -0.7367 -1.9285 -0.3693
 8120SOL    HW226899   7.673   1.935   5.604  1.2444  1.0927  0.5126
 8121SOL     OW26900   4.965   5.946   4.094  0.2043 -0.7554  0.1983
 8121SOL    HW126901   4.951   5.851   4.099  1.6629 -1.1825 -2.8626
 8121SOL    HW226902   4.906   5.975   4.024  2.4320 -0.0118 -1.3966
 8122SOL     OW26903   7.582   4.567   3.969  0.0588  0.4546 -0.1400
 8122SOL    HW126904   7.558   4.566   3.876  0.2911  0.6197 -0.2005
 8122SOL    HW226905   7.664   4.519   3.973  0.5019  1.2105 -0.1410
 8123SOL     OW26906   9.956   4.664   4.085 -0.4505  0.2321  0.3548
 8123SOL    HW126907  10.006   4.657   4.004 -1.1120 -0.3002 -0.0112
 8123SOL    HW226908   9.910   4.748   4.078 -0.3868  0.2586  0.2531
 8124SOL     OW26909   1.651   5.186   7.641 -0.1069  0.0196  0.1986
 8124SOL    HW126910   1.557   5.197   7.656 -0.2941 -0.8010 -0.3419
 8124SOL    HW226911   1.691   5.203   7.726 -0.8532 -0.8997  0.7475
 8125SOL     OW26912   0.893   0.798   0.872  0.0882 -0.0532 -0.3745
 8125SOL    HW126913   0.801   0.825   0.869 -0.8948 -3.2082 -0.6046
 8125SOL    HW226914   0.905   0.766   0.962  0.4605 -1.2255 -0.8319
 8126SOL     OW26915   1.964   2.137   2.067 -0.4442  0.2908 -0.3826
 8126SOL    HW126916   2.051   2.137   2.028 -0.5470  0.1975 -0.6101
 8126SOL    HW226917   1.950   2.227   2.097  0.0747  0.1117  0.4141
 8127SOL     OW26918   0.879   5.826  10.102 -0.1677 -0.8345 -0.1817
 8127SOL    HW126919   0.827   5.760  10.147  0.6643 -2.3656 -1.3802
 8127SOL    HW226920   0.890   5.790  10.013 -0.2294  1.2181 -1.0380
 8128SOL     OW26921   2.102   0.784   7.502 -0.0752  0.1710 -0.1173
 8128SOL    HW126922   2.039   0.757   7.569 -0.1817  1.9201  0.5042
 8128SOL    HW226923   2.052   0.837   7.441  0.9212  2.2248  0.7973
 8129SOL     OW26924   6.061   7.225   8.243  0.0515  0.8185  0.4774
 8129SOL    HW126925   5.989   7.266   8.196  0.4654  1.5551  0.4785
 8129SOL    HW226926   6.104   7.170   8.178 -0.1916  0.7944  0.3376
 8130SOL     OW26927   9.055   4.183   7.274  0.9625 -0.1972 -0.7510
 8130SOL    HW126928   9.118   4.119   7.308 -0.3215 -1.9068 -1.5384
 8130SOL    HW226929   9.074   4.187   7.180 -0.1195 -0.7225 -0.9887
 8131SOL     OW26930   8.230   2.607  10.201  0.0093 -0.0511  0.1676
 8131SOL    HW126931   8.199   2.693  10.173 -0.3632 -0.5020 -0.8145
 8131SOL    HW226932   8.188   2.545  10.142 -0.1740 -0.9650  1.2342
 8132SOL     OW26933   7.607   1.891   3.621 -0.2637 -0.6194  0.4925
 8132SOL    HW126934   7.651   1.972   3.648  1.2439 -0.4282 -2.3778
 8132SOL    HW226935   7.665   1.821   3.653 -0.0480 -0.4794  0.4128
 8133SOL     OW26936   9.712   1.537   0.142 -0.3568 -0.1918 -0.1119
 8133SOL    HW126937   9.676   1.619   0.109  1.0740  0.7500  0.6134
 8133SOL    HW226938   9.759   1.562   0.221 -0.7913 -1.8805  0.7009
 8134SOL     OW26939   1.318   7.447   8.028 -0.1042  0.1284  0.0174
 8134SOL    HW126940   1.409   7.431   8.055  0.5751  1.0686 -1.5972
 8134SOL    HW226941   1.323   7.454   7.933 -1.6230  1.7406  0.0363
 8135SOL     OW26942   4.966   6.333   5.620 -0.0807 -0.2650  0.1726
 8135SOL    HW126943   4.947   6.410   5.673  0.5740  0.1441 -0.1763
 8135SOL    HW226944   4.902   6.337   5.549  1.1798  1.0309 -0.9199
 8136SOL     OW26945   8.392   8.607   6.449  0.5234 -0.5348  0.0760
 8136SOL    HW126946   8.392   8.579   6.541  2.0308  0.4164  0.3907
 8136SOL    HW226947   8.410   8.701   6.454 -0.8097 -0.2011 -1.1331
 8137SOL     OW26948   8.272   6.761   0.359  0.4121  0.3013  0.3813
 8137SOL    HW126949   8.332   6.710   0.413 -0.6462 -0.3486  0.9624
 8137SOL    HW226950   8.303   6.746   0.269 -1.0702 -3.0719  0.3432
 8138SOL     OW26951   0.184   0.479   8.851  0.3848 -0.6929  0.0129
 8138SOL    HW126952   0.231   0.550   8.808  0.7974 -1.0574 -0.1432
 8138SOL    HW226953   0.250   0.438   8.907  0.1310 -0.9093  0.1539
 8139SOL     OW26954   3.073   0.742   4.561  0.2680 -0.1584  0.0956
 8139SOL    HW126955   3.034   0.654   4.558  0.6544 -0.3624  0.7782
 8139SOL    HW226956   3.003   0.798   4.593  0.6046 -0.5839  1.6461
 8140SOL     OW26957   1.207   9.158   6.302  0.2814  0.3546 -0.1587
 8140SOL    HW126958   1.112   9.153   6.314  0.1557  0.8951 -0.9416
 8140SOL    HW226959   1.237   9.067   6.312 -0.3264  0.1588 -0.0730
 8141SOL     OW26960   7.835   4.453   3.944  0.3536  0.3522  0.5995
 8141SOL    HW126961   7.927   4.437   3.964  0.5078 -0.6781 -0.8654
 8141SOL    HW226962   7.801   4.368   3.915 -0.1640  1.4816 -2.2461
 8142SOL     OW26963   4.894   8.332   9.845  0.5047  0.2893  0.7303
 8142SOL    HW126964   4.853   8.324   9.932  0.4486  0.1383  0.6895
 8142SOL    HW226965   4.947   8.253   9.836  1.7042  1.0256  1.2541
 8143SOL     OW26966   2.480   2.377   1.747  0.1074  0.3073  0.6474
 8143SOL    HW126967   2.449   2.364   1.837  0.2510 -2.4284  0.3550
 8143SOL    HW226968   2.403   2.408   1.700 -0.3817  0.2626  1.4043
 8144SOL     OW26969   7.615   9.015   8.263 -0.6184 -0.3040 -0.5811
 8144SOL    HW126970   7.562   9.093   8.251 -0.7006  0.2122  2.6257
 8144SOL    HW226971   7.554   8.942   8.251 -0.9638  0.1691 -1.6836
 8145SOL     OW26972   5.064   9.829   9.041  0.7320  0.1610  0.7395
 8145SOL    HW126973   4.974   9.855   9.059  0.5928  0.7537 -0.7360
 8145SOL    HW226974   5.108   9.835   9.126 -0.3215  1.0552  1.2409
 8146SOL     OW26975   1.549   5.065   8.264  0.0647  0.3668  0.0706
 8146SOL    HW126976   1.485   5.122   8.306 -0.6743 -0.1327 -0.3651
 8146SOL    HW226977   1.514   5.051   8.176  1.0605  0.5543 -0.3629
 8147SOL     OW26978   0.203   2.914   6.546  0.2124  0.4034  0.2048
 8147SOL    HW126979   0.200   2.912   6.450  2.4260  0.1388  0.1086
 8147SOL    HW226980   0.221   2.823   6.571 -3.8959 -0.2538  1.0912
 8148SOL     OW26981   2.579   9.992   5.728 -0.2816  0.1058  0.3063
 8148SOL    HW126982   2.647   9.996   5.795  0.0654  0.3481 -0.0580
 8148SOL    HW226983   2.622  10.023   5.648 -0.2224 -1.8140 -0.4249
 8149SOL     OW26984   1.233   4.553   0.926  0.4926 -0.1695 -0.3857
 8149SOL    HW126985   1.282   4.472   0.943 -0.0858 -0.1365  1.6191
 8149SOL    HW226986   1.299   4.622   0.932  0.4447 -0.2329  1.0418
 8150SOL     OW26987   8.275   0.543   5.785 -0.1290  0.6120  0.5979
 8150SOL    HW126988   8.213   0.603   5.827 -0.8240  1.4344 -1.5520
 8150SOL    HW226989   8.312   0.594   5.713 -0.8607 -1.5990 -1.3936
 8151SOL     OW26990   2.124   2.151   1.433 -0.8155  0.2005 -0.3966
 8151SOL    HW126991   2.127   2.056   1.447 -0.4000  0.3929  0.8928
 8151SOL    HW226992   2.033   2.169   1.413 -0.8396 -0.5061 -0.9885
 8152SOL     OW26993   4.684   8.058   3.460 -0.0257 -0.0300  0.2889
 8152SOL    HW126994   4.770   8.025   3.486 -0.7167 -1.0347  1.3581
 8152SOL    HW226995   4.679   8.146   3.496  1.0909  0.5706 -0.9712
 8153SOL     OW26996   7.330   1.110   9.287 -0.3152 -0.4635  0.0127
 8153SOL    HW126997   7.370   1.125   9.201 -1.4807  1.3656 -0.2292
 8153SOL    HW226998   7.386   1.157   9.348 -0.2464 -0.6621  0.1057
 8154SOL     OW26999   9.749   3.751   7.798 -0.1878  0.0094  0.2247
 8154SOL    HW127000   9.656   3.733   7.780 -0.1458  0.3145 -0.3177
 8154SOL    HW227001   9.752   3.767   7.892 -1.0190  1.9647 -0.0542
 8155SOL     OW27002   2.008   3.350   8.895 -0.2088 -0.2076  0.2672
 8155SOL    HW127003   2.061   3.428   8.876  1.6562 -0.8723  2.5065
 8155SOL    HW227004   1.930   3.361   8.841  0.2394  2.9702  0.1416
 8156SOL     OW27005   0.594   6.453   3.624 -0.1144 -0.1643  0.4585
 8156SOL    HW127006   0.540   6.462   3.545  0.8745 -1.3958 -0.3991
 8156SOL    HW227007   0.566   6.370   3.663 -1.8736  1.3115  2.4487
 8157SOL     OW27008   0.410   8.499   5.419  0.3557  0.1730  0.8671
 8157SOL    HW127009   0.501   8.476   5.403  0.1403 -0.6117  0.7203
 8157SOL    HW227010   0.362   8.460   5.346 -0.3055 -1.0558  1.9241
 8158SOL     OW27011   8.678   8.960   4.334 -0.0503 -0.3846 -0.0062
 8158SOL    HW127012   8.602   9.017   4.322  0.1966 -0.0526  0.0040
 8158SOL    HW227013   8.699   8.930   4.246  2.0606  2.4340 -0.5250
 8159SOL     OW27014  10.020   7.098   2.229  0.6331 -0.2121  0.1398
 8159SOL    HW127015  10.106   7.058   2.237  1.3187  1.0447 -0.8380
 8159SOL    HW227016  10.037   7.186   2.196 -1.1080 -0.4176 -1.4166
 8160SOL     OW27017   8.597   6.958   3.795 -0.0661  0.3870 -0.5931
 8160SOL    HW127018   8.571   6.945   3.886 -0.3119 -1.4360 -0.9080
 8160SOL    HW227019   8.516   6.983   3.750  0.1265  1.6612 -0.2626
 8161SOL     OW27020   3.043   9.573   4.175 -0.1042 -0.1182  0.4241
 8161SOL    HW127021   3.032   9.478   4.163 -0.7744 -0.0686  0.6085
 8161SOL    HW227022   3.113   9.597   4.114 -1.7693 -0.2866 -1.6076
 8162SOL     OW27023   6.828   8.455   9.112  0.3049  0.1952  0.1308
 8162SOL    HW127024   6.866   8.368   9.121 -1.3767 -0.5915 -0.1675
 8162SOL    HW227025   6.791   8.474   9.198 -1.5593 -0.4792 -0.4988
 8163SOL     OW27026   3.445   4.832   5.045 -0.1218 -0.5164  0.2537
 8163SOL    HW127027   3.454   4.760   5.107  0.2978  0.4410  1.3223
 8163SOL    HW227028   3.452   4.791   4.959  1.0931 -1.6259  0.8655
 8164SOL     OW27029   7.484   8.183   5.065 -0.0359  0.1159 -0.5995
 8164SOL    HW127030   7.426   8.231   5.125  1.5699  0.4882  0.7008
 8164SOL    HW227031   7.548   8.141   5.122  2.2177  1.4083 -2.0990
 8165SOL     OW27032   3.191   6.245   8.681 -0.0867 -0.1863 -0.3826
 8165SOL    HW127033   3.106   6.201   8.681 -1.3278  2.1226 -1.7324
 8165SOL    HW227034   3.184   6.311   8.750 -0.0888  1.2479 -1.7245
 8166SOL     OW27035   9.038   6.498   6.157 -0.1250 -0.1603  0.2331
 8166SOL    HW127036   9.027   6.454   6.073  0.1798 -0.4481  0.3430
 8166SOL    HW227037   9.108   6.561   6.143  0.6275 -0.9122  0.5402
 8167SOL     OW27038   4.434   0.759   1.427 -0.1796  0.0178 -0.3334
 8167SOL    HW127039   4.409   0.685   1.371  0.3020 -0.6218  0.2963
 8167SOL    HW227040   4.415   0.836   1.373  3.2583 -0.6690 -2.6592
 8168SOL     OW27041   0.977   1.157   2.901 -0.1214  0.1067  0.6434
 8168SOL    HW127042   0.927   1.115   2.972 -0.5912  1.5519  1.1767
 8168SOL    HW227043   0.947   1.248   2.901  0.4337  0.3005 -0.9253
 8169SOL     OW27044   1.587   2.267   3.350 -0.0761 -0.1846 -0.2210
 8169SOL    HW127045   1.505   2.219   3.351 -1.0038  1.3528  0.8294
 8169SOL    HW227046   1.580   2.325   3.275 -0.5206  0.8618  0.6144
 8170SOL     OW27047   7.125   1.822   2.855  0.4098 -0.9201 -0.0735
 8170SOL    HW127048   7.134   1.797   2.947 -0.4309 -0.1856  0.2150
 8170SOL    HW227049   7.117   1.917   2.856 -0.9347 -1.0109 -0.7972
 8171SOL     OW27050   3.304   8.296   0.348  0.0643 -0.1549 -0.1866
 8171SOL    HW127051   3.380   8.256   0.390  0.4559 -0.2675 -0.9892
 8171SOL    HW227052   3.324   8.390   0.346 -0.1354 -0.1001  0.2331
 8172SOL     OW27053   2.327   7.119   7.231  0.0359 -0.1109  0.4090
 8172SOL    HW127054   2.401   7.171   7.201  0.6187 -0.4090  1.3292
 8172SOL    HW227055   2.316   7.142   7.323 -0.8322 -0.2892  0.3608
 8173SOL     OW27056   5.336   7.214   1.226  0.3087  0.5059  0.2518
 8173SOL    HW127057   5.381   7.295   1.252 -1.1547  0.6667  2.4413
 8173SOL    HW227058   5.250   7.243   1.195  0.7325 -0.0110 -1.4211
 8174SOL     OW27059   0.906   7.595   1.305 -0.2364 -0.1885 -0.3323
 8174SOL    HW127060   0.847   7.662   1.270  2.1602  1.0657 -2.0499
 8174SOL    HW227061   0.941   7.634   1.385 -0.0425 -0.0337 -0.4927
 8175SOL     OW27062   7.498   1.203   9.081  0.3140  0.1465 -0.1229
 8175SOL    HW127063   7.478   1.296   9.070 -1.2818 -0.1260  0.4834
 8175SOL    HW227064   7.502   1.169   8.991  0.9155  0.7806 -0.3487
 8176SOL     OW27065   1.799   4.880   5.445 -0.3066  0.3073 -0.6774
 8176SOL    HW127066   1.815   4.846   5.533 -1.0612 -0.0480 -0.6765
 8176SOL    HW227067   1.859   4.955   5.437 -1.2166  1.2146  0.6531
 8177SOL     OW27068   6.504   3.679  10.072 -0.7994 -0.7011 -0.4878
 8177SOL    HW127069   6.539   3.627  10.000  0.0037 -0.3898 -0.3388
 8177SOL    HW227070   6.435   3.626  10.110 -2.8025  0.0658 -2.9072
 8178SOL     OW27071   9.625   7.511   9.259  0.3535  0.6983  0.0629
 8178SOL    HW127072   9.665   7.438   9.213  0.6679  1.7723 -1.3834
 8178SOL    HW227073   9.531   7.492   9.257  0.5444 -0.4559  1.1109
 8179SOL     OW27074   0.198   2.763  10.030  0.1410 -0.1230  0.0989
 8179SOL    HW127075   0.143   2.841  10.038  1.9006  1.1084  0.5037
 8179SOL    HW227076   0.173   2.725   9.946 -1.9820 -0.1195  0.6959
 8180SOL     OW27077   5.282   3.564   3.966  0.3082  0.2875 -0.1190
 8180SOL    HW127078   5.307   3.482   3.925  1.2639  0.2623  0.5121
 8180SOL    HW227079   5.194   3.548   4.000 -0.0430 -0.0467 -1.1435
 8181SOL     OW27080   9.384   5.707   6.175 -0.7534  0.3436  0.6546
 8181SOL    HW127081   9.422   5.762   6.244 -0.9179  1.4354 -0.1114
 8181SOL    HW227082   9.387   5.618   6.211  1.8625  0.4915  0.8959
 8182SOL     OW27083   9.636   4.795  10.124  0.2549 -0.2390 -0.1929
 8182SOL    HW127084   9.719   4.839  10.109  0.0202  0.2376 -0.0850
 8182SOL    HW227085   9.645   4.711  10.078  0.5072  0.1285 -0.8108
 8183SOL     OW27086   7.598   2.994   2.536 -0.7030 -0.1041 -0.1498
 8183SOL    HW127087   7.599   3.088   2.522  1.2780 -0.0501  0.1330
 8183SOL    HW227088   7.540   2.981   2.611 -0.6144  0.9436  0.1000
 8184SOL     OW27089   9.766   2.434   9.200  0.0501  0.0039  0.4233
 8184SOL    HW127090   9.779   2.449   9.293  0.0500 -0.6422  0.5264
 8184SOL    HW227091   9.837   2.375   9.175 -0.0656  0.0203  0.0566
 8185SOL     OW27092   0.103   6.586   3.800  0.1676 -0.0110  0.2220
 8185SOL    HW127093   0.061   6.611   3.883 -0.6249 -0.8219  0.0686
 8185SOL    HW227094   0.068   6.648   3.737 -0.9809 -0.8229  0.0522
 8186SOL     OW27095   0.181   7.570   2.294  0.1793  0.4136  0.5479
 8186SOL    HW127096   0.190   7.480   2.325  1.7285  0.6339  0.7819
 8186SOL    HW227097   0.206   7.566   2.201 -1.0251  0.3821  0.2140
 8187SOL     OW27098   3.754   0.623   8.216  0.0618 -0.3177  0.8638
 8187SOL    HW127099   3.704   0.619   8.135  1.5984  2.3306 -0.2959
 8187SOL    HW227100   3.694   0.664   8.279  0.0864  1.0065  0.0359
 8188SOL     OW27101   6.476   3.632   4.898 -0.4913  0.0454 -0.1530
 8188SOL    HW127102   6.389   3.649   4.861 -0.0818 -0.3957 -1.3252
 8188SOL    HW227103   6.464   3.553   4.950 -0.7337 -0.1501 -0.5052
 8189SOL     OW27104   4.274   2.485   2.534  0.0561 -0.1952 -0.0199
 8189SOL    HW127105   4.291   2.575   2.507 -0.4138 -0.1659 -0.2229
 8189SOL    HW227106   4.297   2.482   2.627 -1.9198  0.6741  0.5205
 8190SOL     OW27107   5.325   7.091   0.494 -0.0174  0.1460  0.3621
 8190SOL    HW127108   5.280   7.050   0.420 -0.1789  0.5508  0.2389
 8190SOL    HW227109   5.263   7.084   0.567  0.4047 -0.8742  0.6476
 8191SOL     OW27110   3.191   2.352   6.377 -0.1660  0.4160 -0.4748
 8191SOL    HW127111   3.224   2.434   6.412 -0.1093 -0.5348  1.7427
 8191SOL    HW227112   3.118   2.329   6.433 -0.7225 -0.6329 -1.5954
 8192SOL     OW27113   9.373   2.634   7.667  0.1280 -0.2292  0.1063
 8192SOL    HW127114   9.437   2.637   7.596 -0.4381  1.3186 -0.3475
 8192SOL    HW227115   9.288   2.631   7.623 -0.2722  1.8035  0.7062
 8193SOL     OW27116   2.408   5.661   0.219 -0.9767  0.3586  0.5670
 8193SOL    HW127117   2.318   5.629   0.223 -1.0209  0.6740  2.3886
 8193SOL    HW227118   2.399   5.756   0.214 -0.7599  0.3189 -0.8202
 8194SOL     OW27119   4.847   7.553   3.204  0.3855 -0.3503  0.3482
 8194SOL    HW127120   4.902   7.548   3.282 -0.7976  0.6111  1.2569
 8194SOL    HW227121   4.757   7.550   3.237 -0.1291 -3.0496 -1.2189
 8195SOL     OW27122   6.464   3.431   1.112 -0.2501 -0.0523  0.1449
 8195SOL    HW127123   6.500   3.487   1.181  0.8439 -0.5330 -0.0210
 8195SOL    HW227124   6.464   3.343   1.151 -1.7258  0.0192  0.3194
 8196SOL     OW27125   9.843   6.165   9.965  0.1051  0.4066  0.3017
 8196SOL    HW127126   9.936   6.183   9.951  0.2080 -1.7498 -1.9832
 8196SOL    HW227127   9.799   6.220   9.901 -0.1298  0.3413  0.4082
 8197SOL     OW27128   7.433   9.542   7.345 -0.4132 -0.5415  0.0134
 8197SOL    HW127129   7.466   9.578   7.427 -0.9377  1.2230 -0.5213
 8197SOL    HW227130   7.418   9.619   7.290  1.5797 -1.7660 -2.3672
 8198SOL     OW27131   7.724   1.565   9.053  0.1891  0.1969  0.0139
 8198SOL    HW127132   7.805   1.513   9.054  1.1701  1.5965 -1.9281
 8198SOL    HW227133   7.671   1.524   8.984 -0.3285 -0.0923  0.5831
 8199SOL     OW27134   6.739  10.168  10.018  0.2067 -0.1630  0.2402
 8199SOL    HW127135   6.755  10.083   9.978  0.4450 -0.6137  1.2975
 8199SOL    HW227136   6.741  10.229   9.944 -1.5878 -1.2488 -0.7473
 8200SOL     OW27137   5.740   5.241   2.663 -0.3636 -0.0920  0.0292
 8200SOL    HW127138   5.742   5.315   2.725 -1.2633 -0.5545  0.6207
 8200SOL    HW227139   5.749   5.282   2.577  2.9868  0.3933  0.5614
 8201SOL     OW27140   6.049   9.388   5.368  0.0856 -0.5637 -0.7804
 8201SOL    HW127141   5.957   9.372   5.346 -0.2432 -1.8078  1.2923
 8201SOL    HW227142   6.090   9.302   5.363  0.5237 -0.4762  0.9205
 8202SOL     OW27143   5.727   4.349   0.554  0.5485 -0.0095 -0.1768
 8202SOL    HW127144   5.694   4.410   0.620  0.5712 -0.1469 -0.0354
 8202SOL    HW227145   5.689   4.264   0.579 -1.0058  0.2779 -1.4582
 8203SOL     OW27146   8.227   0.227   1.179  0.3702  0.2220 -0.2203
 8203SOL    HW127147   8.284   0.264   1.247  0.6023  0.2532 -0.4320
 8203SOL    HW227148   8.155   0.187   1.228  1.1734 -0.8450  0.1011
 8204SOL     OW27149   5.849   2.624  10.144 -0.1696  0.5701  0.1739
 8204SOL    HW127150   5.796   2.545  10.148  0.5516  0.0701 -0.1311
 8204SOL    HW227151   5.913   2.614  10.213  1.6994 -0.4121 -1.6547
 8205SOL     OW27152   0.591   6.159   3.786 -0.3711  0.2949  0.2436
 8205SOL    HW127153   0.518   6.141   3.846  0.3546 -1.2591  0.7034
 8205SOL    HW227154   0.657   6.202   3.839 -0.1584 -0.1098  0.3107
 8206SOL     OW27155   3.123   2.728   7.639  0.0622  0.0777  0.4054
 8206SOL    HW127156   3.153   2.729   7.548 -0.0712 -0.0910  0.3587
 8206SOL    HW227157   3.194   2.768   7.688  0.5978 -0.7920  0.3611
 8207SOL     OW27158   6.628   3.837   8.256 -0.5689 -0.6712 -0.7462
 8207SOL    HW127159   6.539   3.863   8.233 -0.6763 -0.1833  0.1901
 8207SOL    HW227160   6.624   3.741   8.260 -1.0597 -0.6512 -0.6983
 8208SOL     OW27161   9.187   6.840   8.509  0.4150  0.7665  0.1155
 8208SOL    HW127162   9.095   6.822   8.488  0.1711  1.4200  0.6048
 8208SOL    HW227163   9.183   6.894   8.588  1.2594 -0.0734  0.7360
 8209SOL     OW27164   5.745   7.451   5.398 -0.1638 -0.0866 -1.1339
 8209SOL    HW127165   5.693   7.424   5.474  3.0479  0.1592  1.2924
 8209SOL    HW227166   5.728   7.544   5.389 -1.4071 -0.3354 -1.4218
 8210SOL     OW27167   4.537   7.906   9.678  0.0587  0.6777  0.1970
 8210SOL    HW127168   4.620   7.858   9.682  1.0011  2.4599  3.4087
 8210SOL    HW227169   4.538   7.947   9.591  1.9171 -0.3905 -0.3206
 8211SOL     OW27170   2.354   3.459   0.182 -0.2144 -0.0385 -0.3533
 8211SOL    HW127171   2.296   3.524   0.142 -0.8282 -0.0335  0.5394
 8211SOL    HW227172   2.331   3.460   0.275 -1.4391 -2.7442 -0.5757
 8212SOL     OW27173   4.309   9.949   7.336 -0.3105 -0.4868 -0.1136
 8212SOL    HW127174   4.348   9.990   7.258 -1.0874 -0.2631 -0.3815
 8212SOL    HW227175   4.360   9.869   7.348  0.8286  0.2398  0.0599
 8213SOL     OW27176   4.195   1.582   7.202 -0.1363 -0.0646 -0.1969
 8213SOL    HW127177   4.162   1.514   7.260 -0.6641  0.6349  0.3220
 8213SOL    HW227178   4.226   1.651   7.260  1.9113 -0.5336 -0.6695
 8214SOL     OW27179   2.748   3.934   2.637 -0.3786 -0.0270 -0.2470
 8214SOL    HW127180   2.682   3.924   2.705 -0.2986  0.7180 -0.0595
 8214SOL    HW227181   2.703   3.982   2.567 -0.0857  0.3558 -0.1765
 8215SOL     OW27182   6.569   5.586   6.537  0.1179 -0.4863 -0.0380
 8215SOL    HW127183   6.550   5.667   6.583 -2.1063 -1.0084  0.0511
 8215SOL    HW227184   6.570   5.519   6.606  0.8548 -0.6827 -0.2407
 8216SOL     OW27185   3.285   1.894   7.764 -0.0551  0.5962  0.2653
 8216SOL    HW127186   3.380   1.895   7.753 -0.1866 -1.4820 -1.2735
 8216SOL    HW227187   3.252   1.846   7.688 -2.1365 -1.2500  2.2457
 8217SOL     OW27188   1.954   4.825   9.202  0.1270 -0.0974  0.1818
 8217SOL    HW127189   1.995   4.880   9.268  0.3686 -0.4736  0.3444
 8217SOL    HW227190   1.966   4.735   9.233 -0.3669 -0.2400 -0.0255
 8218SOL     OW27191   0.550   9.056   9.101  0.0226  0.2437  0.3442
 8218SOL    HW127192   0.539   9.151   9.112  0.5797  0.3483  0.0443
 8218SOL    HW227193   0.581   9.047   9.011 -0.7260 -0.2787  0.1420
 8219SOL     OW27194   4.670   6.262   4.145 -0.0924  0.2765 -0.0460
 8219SOL    HW127195   4.587   6.281   4.187  0.0218 -1.9586  1.2746
 8219SOL    HW227196   4.647   6.228   4.058 -0.3768  3.3921 -1.2578
 8220SOL     OW27197   7.113   9.610   5.877  0.4569 -0.1457  0.2046
 8220SOL    HW127198   7.044   9.602   5.811  1.4380 -1.3681 -0.6988
 8220SOL    HW227199   7.194   9.619   5.826  1.3515 -2.1015  1.2021
 8221SOL     OW27200   7.286   9.986   8.241  0.8614 -0.6515  0.3060
 8221SOL    HW127201   7.242   9.908   8.206  3.1162 -1.6497 -0.4229
 8221SOL    HW227202   7.319  10.031   8.163  0.7361  0.3287  0.8162
 8222SOL     OW27203   0.564   6.535   9.340  0.1030  0.2088 -0.1556
 8222SOL    HW127204   0.605   6.619   9.320 -0.8030  0.2859 -1.7247
 8222SOL    HW227205   0.584   6.480   9.265  0.7317 -1.0197  0.8849
 8223SOL     OW27206   2.057   3.564   1.259 -0.2044  0.1852  0.1670
 8223SOL    HW127207   2.016   3.498   1.314 -0.7298  3.5242  4.0725
 8223SOL    HW227208   2.002   3.569   1.181 -2.3493 -1.2783  1.5483
 8224SOL     OW27209   7.584   7.826   9.326 -0.4224  0.1335 -0.1026
 8224SOL    HW127210   7.663   7.778   9.352  0.1867 -0.0780 -2.2296
 8224SOL    HW227211   7.545   7.771   9.257 -2.7480 -0.0480  1.2999
 8225SOL     OW27212   7.800   8.346   6.860  0.9337  0.4577 -0.2157
 8225SOL    HW127213   7.823   8.263   6.818  1.1857  0.1245  0.5679
 8225SOL    HW227214   7.884   8.390   6.875  0.7223  1.4287 -1.7694
 8226SOL     OW27215   4.126   9.121  10.139 -0.1048  0.5955  0.0214
 8226SOL    HW127216   4.198   9.184  10.142  1.1577 -0.8141  0.4356
 8226SOL    HW227217   4.131   9.084  10.051  0.0306  0.1168  0.2257
 8227SOL     OW27218   7.612   3.821   7.968  0.0941  0.1053 -0.4878
 8227SOL    HW127219   7.707   3.814   7.963 -0.0165 -0.2563 -2.6088
 8227SOL    HW227220   7.582   3.733   7.987  0.1420 -0.0144 -0.9458
 8228SOL     OW27221   4.574   0.386   9.563  0.2840 -0.6919 -0.4041
 8228SOL    HW127222   4.577   0.354   9.653 -0.0322  1.1113  0.2706
 8228SOL    HW227223   4.482   0.378   9.539  0.7216 -3.3469 -1.4185
 8229SOL     OW27224   2.714   1.734   3.193 -0.3500  0.3392 -0.5353
 8229SOL    HW127225   2.779   1.707   3.129  1.4430  0.0435  1.3526
 8229SOL    HW227226   2.748   1.816   3.229 -1.1621  0.3346  0.2609
 8230SOL     OW27227   9.814   9.237   5.917  0.4092 -1.2646 -0.1952
 8230SOL    HW127228   9.757   9.290   5.862  1.3893  0.6494  0.5586
 8230SOL    HW227229   9.786   9.147   5.902 -1.1997 -0.5488 -1.6417
 8231SOL     OW27230   8.925   9.333   6.081 -0.8738 -0.1581 -0.3185
 8231SOL    HW127231   8.843   9.285   6.073 -1.0435  0.0416  0.2300
 8231SOL    HW227232   8.929   9.359   6.173  0.2536 -0.9724 -0.1268
 8232SOL     OW27233   0.084   8.039   9.429 -0.2012  0.2933 -0.2220
 8232SOL    HW127234   0.127   7.993   9.356 -3.1137 -1.0083 -1.1612
 8232SOL    HW227235  -0.007   8.047   9.402 -1.6093 -1.2327  3.7513
 8233SOL     OW27236   9.538   0.051   1.225 -0.2811 -0.2003 -0.2368
 8233SOL    HW127237   9.567   0.043   1.134 -1.3421  1.8665 -0.7919
 8233SOL    HW227238   9.607   0.099   1.269 -0.0453 -0.6716 -0.0892
 8234SOL     OW27239   6.894   3.288   5.150  0.2878 -0.0965 -0.4812
 8234SOL    HW127240   6.933   3.339   5.078 -0.1879 -0.8680 -1.2858
 8234SOL    HW227241   6.803   3.277   5.124  0.1914 -0.6322  0.1072
 8235SOL     OW27242   7.425   5.746   0.936 -0.1498 -0.0759 -0.0505
 8235SOL    HW127243   7.414   5.816   1.002  0.5839  1.4322 -1.4998
 8235SOL    HW227244   7.518   5.745   0.918 -0.0265 -2.0839  0.6040
 8236SOL     OW27245   3.377   6.181   1.168 -0.1067 -0.5866  0.1401
 8236SOL    HW127246   3.369   6.171   1.073 -0.5436  3.7415 -0.3798
 8236SOL    HW227247   3.471   6.186   1.183 -0.1079  2.3516 -0.5815
 8237SOL     OW27248   8.682   2.720   0.561  0.5999  0.1549 -0.1060
 8237SOL    HW127249   8.616   2.676   0.508  0.3369 -1.2593  1.3399
 8237SOL    HW227250   8.763   2.711   0.511  0.2735 -0.7780 -0.4771
 8238SOL     OW27251   1.773   9.822   2.386  0.5077 -0.2089  0.2759
 8238SOL    HW127252   1.836   9.857   2.324  0.3939 -1.0709 -0.3356
 8238SOL    HW227253   1.721   9.760   2.335 -0.3017 -0.1078  0.9713
 8239SOL     OW27254   3.470   9.435   8.103 -0.0344 -0.3479  0.5227
 8239SOL    HW127255   3.548   9.491   8.102  1.7772 -2.6721  3.2836
 8239SOL    HW227256   3.473   9.387   8.021  0.2842  1.0839 -0.3143
 8240SOL     OW27257   0.511   4.761   7.580  0.0984  0.1829  0.5572
 8240SOL    HW127258   0.584   4.783   7.522 -0.6953 -0.6063 -0.7863
 8240SOL    HW227259   0.552   4.727   7.659  1.2014  0.5680  0.1528
 8241SOL     OW27260   6.423   9.738   0.299  0.3775 -0.0956 -0.6149
 8241SOL    HW127261   6.449   9.653   0.334  2.1631  1.0907  1.0657
 8241SOL    HW227262   6.399   9.789   0.376  0.3284  1.2560 -1.5148
 8242SOL     OW27263   1.000   8.704   0.467  0.6877  0.4977  0.2679
 8242SOL    HW127264   1.080   8.677   0.423  0.4432  0.9953 -0.4898
 8242SOL    HW227265   1.026   8.780   0.520  1.2741 -0.9030  2.0466
 8243SOL     OW27266   6.537   5.999   0.318 -0.1086  0.0482  0.1065
 8243SOL    HW127267   6.465   6.056   0.345  0.0896  0.7063 -0.7580
 8243SOL    HW227268   6.528   5.921   0.374 -0.4167  0.8862  1.2509
 8244SOL     OW27269   3.881   2.257   5.990  0.2057  0.4191  0.0923
 8244SOL    HW127270   3.893   2.267   5.895 -1.0836  1.9677  0.0787
 8244SOL    HW227271   3.969   2.268   6.026  0.7576 -0.4919 -0.9442
 8245SOL     OW27272   9.765   9.817   5.868  0.8358  0.7917 -0.1678
 8245SOL    HW127273   9.694   9.782   5.921 -0.0244 -0.7621 -2.2978
 8245SOL    HW227274   9.841   9.816   5.927  0.4261 -3.0007  0.4399
 8246SOL     OW27275   4.776   4.622   5.009  0.0770  0.5226  0.4182
 8246SOL    HW127276   4.733   4.707   5.018  1.7093  1.4611 -0.3279
 8246SOL    HW227277   4.867   4.639   5.031  0.4022 -1.0642  0.3624
 8247SOL     OW27278  10.142   3.237   4.380  0.2569  0.6860  0.4318
 8247SOL    HW127279  10.189   3.262   4.460  2.2770  0.5312 -0.6852
 8247SOL    HW227280  10.158   3.309   4.319 -1.5774  0.9784  0.2676
 8248SOL     OW27281   6.374   2.044   2.771  0.3826 -0.2336 -0.0806
 8248SOL    HW127282   6.328   2.035   2.687  1.6733  1.5502 -1.0118
 8248SOL    HW227283   6.353   2.132   2.801  1.1563 -0.3056  0.7030
 8249SOL     OW27284   1.730   3.286   7.243  0.0969 -0.1337  0.3666
 8249SOL    HW127285   1.772   3.245   7.167 -2.7153 -2.1357 -0.2315
 8249SOL    HW227286   1.656   3.334   7.206 -1.3834 -1.2331  1.7935
 8250SOL     OW27287   5.380   9.871   4.585 -0.3844 -0.2951  0.0812
 8250SOL    HW127288   5.473   9.897   4.587 -0.0733 -1.3439 -0.5011
 8250SOL    HW227289   5.381   9.783   4.548 -1.5971 -0.4282  0.3688
 8251SOL     OW27290   3.081   5.475   9.938 -0.2667 -0.5821 -0.2973
 8251SOL    HW127291   3.072   5.553   9.883  4.4034 -0.0451 -0.4662
 8251SOL    HW227292   3.067   5.402   9.878 -0.5111  0.0759 -1.0511
 8252SOL     OW27293   7.991   3.604   5.008  0.3159 -0.0784  0.0308
 8252SOL    HW127294   7.984   3.539   5.078  1.5037 -0.1040  0.1301
 8252SOL    HW227295   8.036   3.558   4.937 -0.4764  0.0895 -0.5787
 8253SOL     OW27296   7.329   9.933   1.534  0.3873 -0.5244  0.4255
 8253SOL    HW127297   7.373   9.862   1.581  0.6624 -1.4314 -1.1834
 8253SOL    HW227298   7.386   9.954   1.461  1.0910  2.4817  1.7515
 8254SOL     OW27299   7.446   2.823   7.771  0.5769  0.1144  0.4124
 8254SOL    HW127300   7.446   2.898   7.830 -0.3998 -0.0015  0.5625
 8254SOL    HW227301   7.456   2.747   7.829  0.2820  0.0462  0.3768
 8255SOL     OW27302   9.231   4.039   1.255  0.5139 -0.1858  0.6837
 8255SOL    HW127303   9.238   3.954   1.213 -1.0451 -1.0831  2.1784
 8255SOL    HW227304   9.313   4.048   1.305  0.4846 -1.0176  0.8846
 8256SOL     OW27305   5.516   4.190   2.058  0.0073  0.5333 -0.1699
 8256SOL    HW127306   5.565   4.139   1.993 -0.7699  1.9074 -1.8780
 8256SOL    HW227307   5.430   4.203   2.018 -0.3730  1.6828  1.0021
 8257SOL     OW27308   7.470   6.206   9.132 -0.1730 -0.1293 -0.5270
 8257SOL    HW127309   7.508   6.238   9.214 -1.7212  0.7735 -0.1393
 8257SOL    HW227310   7.489   6.275   9.069  2.1900 -1.4259 -1.2731
 8258SOL     OW27311   5.923   2.315   5.445  0.2052 -0.7121  0.2848
 8258SOL    HW127312   5.948   2.388   5.389  1.0315  0.1992  1.8042
 8258SOL    HW227313   5.991   2.249   5.431 -0.3622 -1.0590 -0.8422
 8259SOL     OW27314   6.934   9.086   7.303  0.3368 -0.1995 -0.4028
 8259SOL    HW127315   6.893   9.096   7.218 -0.2663  3.9019  0.2647
 8259SOL    HW227316   7.028   9.101   7.287  0.2630  0.2706 -0.4028
 8260SOL     OW27317   2.944  10.105   4.547 -0.8248  0.1363  0.0777
 8260SOL    HW127318   2.856  10.114   4.510 -1.6324 -1.6104  1.4826
 8260SOL    HW227319   3.002  10.122   4.473 -2.3034  2.6202 -0.5671
 8261SOL     OW27320   0.292   9.467   3.494 -0.1633  0.1969  0.5278
 8261SOL    HW127321   0.300   9.443   3.586  0.3861 -0.8640  0.2116
 8261SOL    HW227322   0.377   9.448   3.456 -0.3143  0.8358 -0.1617
 8262SOL     OW27323   0.417   2.343   1.544 -0.5373  0.3404 -0.3974
 8262SOL    HW127324   0.394   2.372   1.632  0.1924  2.5939 -0.9241
 8262SOL    HW227325   0.489   2.281   1.558  1.3696  2.6672  0.4839
 8263SOL     OW27326   9.242   9.556   5.409  0.1385 -0.4092  0.3419
 8263SOL    HW127327   9.229   9.627   5.472  0.7958  0.4356 -0.4782
 8263SOL    HW227328   9.231   9.597   5.324  3.2105 -0.7017 -0.2513
 8264SOL     OW27329   6.900   1.704   3.149  0.4476 -0.0668 -0.3267
 8264SOL    HW127330   6.954   1.694   3.071 -1.7502  2.3154 -2.2081
 8264SOL    HW227331   6.899   1.798   3.166 -1.6595 -0.2415  0.6991
 8265SOL     OW27332   9.084   5.639   2.353 -0.2483  0.5292 -0.0202
 8265SOL    HW127333   9.026   5.710   2.326 -1.6111 -0.5543  0.0196
 8265SOL    HW227334   9.052   5.562   2.306  0.5713 -0.2799  0.7130
 8266SOL     OW27335   5.822   1.208   0.349  0.2732  0.2678 -0.1961
 8266SOL    HW127336   5.785   1.219   0.437 -1.1620  0.7071 -0.8374
 8266SOL    HW227337   5.754   1.162   0.300  1.4521 -0.8372 -0.8327
 8267SOL     OW27338   5.213   1.345   1.852  0.3806 -0.3923  0.3125
 8267SOL    HW127339   5.173   1.429   1.871  1.2161 -0.0725  0.6679
 8267SOL    HW227340   5.294   1.344   1.904  1.7368 -0.2861 -1.7242
 8268SOL     OW27341   0.866   3.350   3.106  0.0433 -0.0846 -0.1862
 8268SOL    HW127342   0.886   3.417   3.172 -0.1942 -0.2262  0.0284
 8268SOL    HW227343   0.790   3.384   3.060 -0.4993 -0.5366  0.3813
 8269SOL     OW27344   0.117   7.244   6.694 -0.5411 -0.1777  0.4236
 8269SOL    HW127345   0.157   7.158   6.697  0.2430  0.1579 -0.1660
 8269SOL    HW227346   0.060   7.242   6.618  0.0578  0.0627 -0.0395
 8270SOL     OW27347   5.871   9.177  10.129 -0.2827 -0.0306 -0.1833
 8270SOL    HW127348   5.791   9.210  10.088 -0.5241  1.5448  1.5332
 8270SOL    HW227349   5.903   9.249  10.183  1.1467 -1.3809  0.8321
 8271SOL     OW27350   3.385   6.634   9.802 -0.0071  0.0088  0.0665
 8271SOL    HW127351   3.343   6.694   9.740 -2.8187 -3.0625 -1.1630
 8271SOL    HW227352   3.451   6.587   9.750 -1.0001 -1.1755 -0.1451
 8272SOL     OW27353   0.553   3.122  10.048  0.2289 -0.0317  0.0277
 8272SOL    HW127354   0.469   3.142  10.005  0.4706 -2.2638 -1.5719
 8272SOL    HW227355   0.594   3.058   9.990  1.8516 -0.9928  2.1842
 8273SOL     OW27356   6.696   2.048   1.528 -0.3177 -0.4610  0.1073
 8273SOL    HW127357   6.713   2.142   1.520  0.5580 -0.5056  1.2848
 8273SOL    HW227358   6.733   2.011   1.448 -0.1171  0.1315 -0.0793
 8274SOL     OW27359   0.251   1.044   2.690  0.0930 -0.3297 -0.1148
 8274SOL    HW127360   0.185   1.003   2.634 -1.2973  1.3190  0.2592
 8274SOL    HW227361   0.213   1.040   2.778  0.5049  0.5771  0.1057
 8275SOL     OW27362   6.671   2.439   9.949 -0.8204 -0.0364 -0.3338
 8275SOL    HW127363   6.697   2.429   9.857  0.3374 -0.4967  0.0349
 8275SOL    HW227364   6.662   2.350   9.981 -1.2878  0.1259 -0.0157
 8276SOL     OW27365   8.400   1.886   6.068 -0.0349  0.4219  0.2788
 8276SOL    HW127366   8.428   1.795   6.056  1.2126  0.8477 -0.1145
 8276SOL    HW227367   8.334   1.901   6.001  0.6393  0.1645 -0.4486
 8277SOL     OW27368   3.612   9.500   2.814 -0.4427  0.2112  0.0889
 8277SOL    HW127369   3.557   9.453   2.877  0.9850 -0.4017  0.9350
 8277SOL    HW227370   3.670   9.553   2.869  0.3082  0.2592 -0.7396
 8278SOL     OW27371   9.070   4.927   3.059 -0.2590  0.1148  0.3297
 8278SOL    HW127372   9.077   4.994   3.128  0.1695 -0.2480  0.6393
 8278SOL    HW227373   9.144   4.868   3.075  0.1449  0.3216 -0.7609
 8279SOL     OW27374   8.762   5.399   6.602  0.0405 -0.2364 -0.3986
 8279SOL    HW127375   8.716   5.315   6.596  2.5378 -1.5499 -2.2365
 8279SOL    HW227376   8.703   5.462   6.560  0.0080 -1.9274 -2.9928
 8280SOL     OW27377   6.206   6.298   2.359 -0.1408  0.2008  0.8021
 8280SOL    HW127378   6.301   6.290   2.346 -0.1394  0.1946  0.8141
 8280SOL    HW227379   6.181   6.216   2.402 -0.2115  0.0473  0.4633
 8281SOL     OW27380   7.141   1.138   3.510 -0.0465  0.1154 -0.4919
 8281SOL    HW127381   7.143   1.231   3.492 -1.8212  0.4386  0.8207
 8281SOL    HW227382   7.176   1.129   3.599 -0.8711 -0.3286 -0.1969
 8282SOL     OW27383   9.477   6.745   7.132  0.0759  0.2030  0.0659
 8282SOL    HW127384   9.475   6.824   7.076 -1.4980 -0.7637 -1.3149
 8282SOL    HW227385   9.551   6.695   7.099  0.1922  0.4330 -0.0291
 8283SOL     OW27386   2.544   8.813   3.711 -0.9507 -0.2738  0.5744
 8283SOL    HW127387   2.608   8.884   3.710 -1.6702  0.3745 -0.1679
 8283SOL    HW227388   2.595   8.734   3.691 -0.4025  0.2427 -0.0840
 8284SOL     OW27389   0.439   9.151   2.723  0.2536  0.2862  0.1913
 8284SOL    HW127390   0.354   9.111   2.737  0.3051 -1.0283 -2.8013
 8284SOL    HW227391   0.427   9.243   2.748 -2.0186  0.0914 -0.0793
 8285SOL     OW27392   2.953   0.722   4.070  0.3839  0.4847  0.5412
 8285SOL    HW127393   2.970   0.707   4.163  0.5438  2.3503  0.8283
 8285SOL    HW227394   3.039   0.744   4.033  0.1147  0.9477  0.1858
 8286SOL     OW27395   8.596   0.429   9.752 -0.1768 -0.5587 -0.2337
 8286SOL    HW127396   8.535   0.356   9.747 -0.5159 -0.2008 -1.7783
 8286SOL    HW227397   8.541   0.507   9.754  0.2113 -0.2774 -0.3487
 8287SOL     OW27398   4.423   8.071   2.535 -0.2798  0.1517 -0.6882
 8287SOL    HW127399   4.398   8.044   2.624  2.3049  1.3890  0.4746
 8287SOL    HW227400   4.498   8.015   2.514  0.6833  1.5755 -1.0707
 8288SOL     OW27401   8.022   7.468   0.675 -0.4249  0.3690 -0.0038
 8288SOL    HW127402   8.087   7.537   0.685  0.0911 -0.1001 -0.1065
 8288SOL    HW227403   7.939   7.510   0.695 -0.0418  0.8673  0.5338
 8289SOL     OW27404   0.780   0.950   7.821  0.2455 -0.5887  0.2779
 8289SOL    HW127405   0.781   0.938   7.726 -0.0715 -0.7816  0.2954
 8289SOL    HW227406   0.868   0.980   7.843 -0.3009  1.5181 -0.3364
 8290SOL     OW27407   1.086   9.884   9.925  0.4739  0.2895  0.3517
 8290SOL    HW127408   1.146   9.915   9.857 -0.8540  0.5535 -0.7339
 8290SOL    HW227409   1.104   9.790   9.931  1.3149  0.4493  0.3683
 8291SOL     OW27410   1.299   6.736   7.662  0.2507 -0.2006  0.4935
 8291SOL    HW127411   1.375   6.739   7.720  0.1455  0.8520  0.5828
 8291SOL    HW227412   1.273   6.828   7.651 -0.1717 -0.4472 -0.6369
 8292SOL     OW27413   5.340   0.184   3.089 -0.5757  0.1899  0.0057
 8292SOL    HW127414   5.367   0.094   3.105  0.1371  0.3172 -0.4831
 8292SOL    HW227415   5.295   0.210   3.170 -1.3765 -0.8183 -0.0962
 8293SOL     OW27416   1.421   5.288   8.637 -0.2646 -0.0012 -0.1505
 8293SOL    HW127417   1.478   5.356   8.604  1.9816 -1.7777 -0.0475
 8293SOL    HW227418   1.367   5.263   8.562  0.2232  0.5525 -0.6890
 8294SOL     OW27419   2.223   5.898   8.587  0.3610  0.2423  0.1265
 8294SOL    HW127420   2.294   5.834   8.596 -0.2058 -0.3591  0.3557
 8294SOL    HW227421   2.165   5.880   8.661  1.0433  2.1172  1.1675
 8295SOL     OW27422   2.300   4.037   9.357  0.1610 -0.1752 -0.6996
 8295SOL    HW127423   2.212   4.034   9.321  0.7363 -1.3738 -2.0491
 8295SOL    HW227424   2.302   3.965   9.420 -0.6685  1.5721  1.3921
 8296SOL     OW27425   5.619   7.308   5.177  0.0202  0.5741 -0.0782
 8296SOL    HW127426   5.689   7.361   5.215  0.4092  0.7192 -0.9919
 8296SOL    HW227427   5.549   7.370   5.158  0.2098  0.6526 -0.5168
 8297SOL     OW27428   8.165   6.636   6.617  0.2666  0.1919 -0.1319
 8297SOL    HW127429   8.170   6.541   6.619 -1.0308  0.0279 -2.3066
 8297SOL    HW227430   8.243   6.666   6.664  1.2691 -1.9241 -0.4006
 8298SOL     OW27431   4.647   1.062   7.002  0.0229  0.3387 -0.2565
 8298SOL    HW127432   4.652   1.048   6.907  1.8982 -1.7441  0.1231
 8298SOL    HW227433   4.732   1.097   7.026  0.5259 -1.7397  1.0529
 8299SOL     OW27434   0.240   5.036   2.679 -0.1399 -0.3819 -0.3460
 8299SOL    HW127435   0.278   4.967   2.733  0.7455 -1.2603 -2.0372
 8299SOL    HW227436   0.231   5.111   2.738  0.2542 -1.4957  1.1457
 8300SOL     OW27437   1.203   1.786   6.332  0.2588  0.5962 -0.4327
 8300SOL    HW127438   1.233   1.778   6.242  1.5778 -2.3817  0.1864
 8300SOL    HW227439   1.270   1.741   6.384 -1.7757 -0.0981  1.7188
 8301SOL     OW27440   6.781   5.574   1.154  0.1086 -0.3197  0.7625
 8301SOL    HW127441   6.704   5.542   1.202  0.5661 -1.3915  0.8063
 8301SOL    HW227442   6.805   5.656   1.198 -0.7214 -0.2251  1.0420
 8302SOL     OW27443   1.323   2.092   1.233  0.2311  0.0018  0.1200
 8302SOL    HW127444   1.332   2.032   1.307 -0.5754 -0.8254 -0.4346
 8302SOL    HW227445   1.362   2.045   1.159 -2.1412 -0.6676 -0.7393
 8303SOL     OW27446   0.322   0.011   4.503 -0.1962 -0.3273  0.5157
 8303SOL    HW127447   0.317  -0.083   4.489  0.8274 -0.3850  0.4989
 8303SOL    HW227448   0.291   0.024   4.593 -1.1918 -0.5804  0.2076
 8304SOL     OW27449   8.867   3.624   7.588 -0.6603  0.4903  0.3463
 8304SOL    HW127450   8.914   3.553   7.544 -0.4809  0.7601  0.1054
 8304SOL    HW227451   8.776   3.609   7.565 -0.5560  0.6934 -0.2046
 8305SOL     OW27452   0.694   8.253   4.279 -0.0601  0.6820  0.3044
 8305SOL    HW127453   0.674   8.346   4.268 -2.3577  0.1685 -0.1451
 8305SOL    HW227454   0.620   8.208   4.238  0.2709 -1.3335  1.8552
 8306SOL     OW27455   0.637   4.748   5.059 -0.0824  0.4309  0.2522
 8306SOL    HW127456   0.626   4.759   5.154 -0.6296 -0.8311  0.3502
 8306SOL    HW227457   0.586   4.819   5.021 -1.5478 -0.2295  0.8929
 8307SOL     OW27458   8.303   8.924   9.515  0.2325  0.0794 -0.5613
 8307SOL    HW127459   8.249   8.846   9.530  0.3273  0.7143  3.8745
 8307SOL    HW227460   8.391   8.897   9.543  0.7408  1.0870 -1.1721
 8308SOL     OW27461   4.383   9.229   3.079  0.1739  0.0119 -0.2378
 8308SOL    HW127462   4.317   9.280   3.126  0.5622 -0.3151  0.6724
 8308SOL    HW227463   4.363   9.138   3.100 -0.1601 -0.1836 -1.3852
 8309SOL     OW27464   8.624   6.682   8.162  0.0095 -0.5761 -0.2398
 8309SOL    HW127465   8.558   6.701   8.095 -1.4934  0.4603  1.5008
 8309SOL    HW227466   8.589   6.606   8.208 -0.1053  0.1398  0.8554
 8310SOL     OW27467   1.285   0.863   6.256 -0.2031 -0.4836 -0.1982
 8310SOL    HW127468   1.291   0.955   6.229 -3.6553 -0.1455 -0.0328
 8310SOL    HW227469   1.202   0.857   6.302 -0.1335 -3.7609 -0.3719
 8311SOL     OW27470   2.763   9.550   5.626  0.2761  0.1666  0.2947
 8311SOL    HW127471   2.781   9.629   5.575 -0.9684  0.3711  0.1507
 8311SOL    HW227472   2.723   9.583   5.707 -0.1667 -0.3076  0.2702
 8312SOL     OW27473   6.463   5.650   9.525 -0.3050 -0.0227  0.0574
 8312SOL    HW127474   6.378   5.606   9.518 -1.4854  2.3077 -0.5224
 8312SOL    HW227475   6.454   5.706   9.602 -0.1073  1.9202 -1.2965
 8313SOL     OW27476   5.284   6.219   8.855 -0.4471 -0.1094 -0.3827
 8313SOL    HW127477   5.297   6.239   8.762 -1.0959  0.8809 -0.2727
 8313SOL    HW227478   5.372   6.211   8.891 -0.1903  0.0690 -0.9678
 8314SOL     OW27479   3.677   9.120   8.095 -0.1230 -0.1252 -0.2425
 8314SOL    HW127480   3.598   9.066   8.097  0.8899 -1.7970 -2.4235
 8314SOL    HW227481   3.743   9.068   8.141 -0.4874  1.7225  2.5109
 8315SOL     OW27482   6.823   2.313   2.977  0.4118 -0.6055 -0.2934
 8315SOL    HW127483   6.863   2.324   2.890 -0.1230 -2.0094 -0.7211
 8315SOL    HW227484   6.889   2.348   3.037  2.1892 -2.5662 -1.0167
 8316SOL     OW27485   7.332   3.394   9.053  0.3806 -0.3821 -0.5383
 8316SOL    HW127486   7.365   3.343   8.979 -0.1508  0.2281 -1.1938
 8316SOL    HW227487   7.411   3.428   9.095  0.7044 -1.1024 -0.5429
 8317SOL     OW27488   2.088   9.752   8.725 -0.0444 -0.1771 -0.2716
 8317SOL    HW127489   2.085   9.821   8.791 -1.4832 -0.7064  0.2295
 8317SOL    HW227490   2.181   9.728   8.720 -0.0460 -0.7182  2.1537
 8318SOL     OW27491   7.761   7.510   8.424  0.1178 -0.4121  0.3570
 8318SOL    HW127492   7.803   7.592   8.398  1.5805 -0.5607  2.1988
 8318SOL    HW227493   7.670   7.519   8.393  0.2064  1.9677  0.7073
 8319SOL     OW27494   7.587   0.995   4.547  0.1408  0.1473 -0.2644
 8319SOL    HW127495   7.616   0.910   4.581 -1.6823 -0.0846  0.7731
 8319SOL    HW227496   7.667   1.046   4.538  0.8753 -0.3960  2.7418
 8320SOL     OW27497   0.275   0.044   1.955  0.1559  0.2640 -0.2586
 8320SOL    HW127498   0.193   0.017   1.998 -0.6822 -1.0228 -2.5668
 8320SOL    HW227499   0.318  -0.039   1.932  0.5424  0.9330 -1.9488
 8321SOL     OW27500   7.245   3.833   2.143  0.7216 -0.0473  0.1555
 8321SOL    HW127501   7.230   3.904   2.205 -2.3444 -1.3356  1.0114
 8321SOL    HW227502   7.329   3.794   2.170  1.2859  1.7889  1.0816
 8322SOL     OW27503   3.330   2.792   1.527 -0.1514  0.0619  0.7011
 8322SOL    HW127504   3.289   2.810   1.612 -1.3077 -0.3545  0.2434
 8322SOL    HW227505   3.325   2.697   1.518 -0.4606  0.1444 -0.0365
 8323SOL     OW27506   7.788   1.212  10.135 -0.0786 -0.0079 -0.3022
 8323SOL    HW127507   7.716   1.234  10.195 -0.9054 -0.0520 -1.2742
 8323SOL    HW227508   7.759   1.244  10.050  0.7010 -0.7701 -0.8583
 8324SOL     OW27509   5.643   6.044   7.373  0.1969  0.1349 -0.1241
 8324SOL    HW127510   5.727   6.003   7.355  0.3880  0.5321 -0.1376
 8324SOL    HW227511   5.603   6.056   7.287 -0.1187 -0.5652 -0.0808
 8325SOL     OW27512   5.127   9.793   2.790 -0.0955  0.3711  0.1130
 8325SOL    HW127513   5.137   9.698   2.790  1.4879  0.5093 -0.6386
 8325SOL    HW227514   5.079   9.813   2.870  0.1447 -1.0076  0.6079
 8326SOL     OW27515   4.514   3.947   2.176  0.0307  0.3828  0.5843
 8326SOL    HW127516   4.554   4.021   2.221 -1.2861  0.8863  0.9291
 8326SOL    HW227517   4.585   3.910   2.124  1.3086  0.4186  2.2674
 8327SOL     OW27518   3.602   0.600   7.350 -0.0419 -0.0743  0.2073
 8327SOL    HW127519   3.632   0.511   7.329 -1.0960 -0.4417  0.1809
 8327SOL    HW227520   3.653   0.626   7.426  0.3686 -0.6602  0.1312
 8328SOL     OW27521   5.654   2.718   4.886 -0.3269  0.8655  0.4110
 8328SOL    HW127522   5.718   2.782   4.854  1.7605  0.1928  3.0451
 8328SOL    HW227523   5.570   2.750   4.854  1.0873  2.8937 -1.4223
 8329SOL     OW27524   4.292   2.577   3.023  0.6256 -0.2947  0.1005
 8329SOL    HW127525   4.357   2.521   3.066 -0.4152 -1.3890  0.2854
 8329SOL    HW227526   4.236   2.608   3.094 -0.9572 -1.9203 -0.3962
 8330SOL     OW27527   1.764   7.105   0.466  0.2646 -0.3207 -0.4855
 8330SOL    HW127528   1.767   7.126   0.372  1.1912 -1.0015 -0.6214
 8330SOL    HW227529   1.679   7.137   0.496 -0.5858 -1.2729 -1.8414
 8331SOL     OW27530   6.982   0.482   5.616 -0.2200 -0.0599 -0.7169
 8331SOL    HW127531   7.035   0.551   5.655  0.2027 -0.3452 -0.7893
 8331SOL    HW227532   6.923   0.455   5.687  0.0980 -0.1173 -0.4707
 8332SOL     OW27533   2.510   1.893   4.188 -0.3821 -0.2130  0.6328
 8332SOL    HW127534   2.582   1.954   4.202 -1.8589  1.6387  0.2317
 8332SOL    HW227535   2.434   1.934   4.228 -1.2176 -2.2216  1.1884
 8333SOL     OW27536   6.652   7.210   0.217  0.4660  0.0095 -0.0518
 8333SOL    HW127537   6.698   7.282   0.175  0.4852 -0.0845 -0.1932
 8333SOL    HW227538   6.562   7.218   0.185  0.7053 -0.6809 -0.9405
 8334SOL     OW27539   1.886   3.865   9.130 -0.0220 -0.9735 -0.2782
 8334SOL    HW127540   1.929   3.949   9.111 -0.0997 -0.8033  0.2839
 8334SOL    HW227541   1.881   3.821   9.045  0.0064 -0.4016 -0.5811
 8335SOL     OW27542   1.058   6.012   5.363  0.0271 -0.4170 -0.6013
 8335SOL    HW127543   1.046   6.001   5.457 -0.0605 -0.2053 -0.5872
 8335SOL    HW227544   1.020   5.933   5.325  1.8060 -1.3957 -0.3583
 8336SOL     OW27545   3.076   6.447   7.849 -0.2155  0.5290 -0.4783
 8336SOL    HW127546   3.023   6.425   7.925  0.4137  2.1109  0.4417
 8336SOL    HW227547   3.166   6.430   7.876 -0.2159 -3.1552 -2.3731
 8337SOL     OW27548   6.807   0.544   9.214 -0.0992  0.3170  0.1623
 8337SOL    HW127549   6.783   0.635   9.232 -0.8658  0.1918 -0.1855
 8337SOL    HW227550   6.834   0.509   9.299  0.2023  0.8709  0.2929
 8338SOL     OW27551   3.626   9.117   6.835 -0.1143 -0.2888 -0.3132
 8338SOL    HW127552   3.647   9.122   6.928  1.4667 -0.7309 -0.6187
 8338SOL    HW227553   3.533   9.136   6.829 -0.5459 -1.7047  1.5146
 8339SOL     OW27554   0.735   7.220  10.036  0.0269  0.3538 -0.1835
 8339SOL    HW127555   0.752   7.301  10.084 -0.3227 -0.0014  0.5553
 8339SOL    HW227556   0.731   7.152  10.104 -0.0801 -0.2238 -0.7529
 8340SOL     OW27557   5.398   1.369   4.169 -0.3781  0.2768 -0.3287
 8340SOL    HW127558   5.357   1.363   4.083  0.2077  1.8444 -0.7461
 8340SOL    HW227559   5.492   1.375   4.150 -0.2312  0.4758  0.4240
 8341SOL     OW27560   1.961   4.791   1.746  0.5754  0.0944 -0.0453
 8341SOL    HW127561   1.920   4.754   1.667  0.3625  1.8247 -0.7737
 8341SOL    HW227562   2.053   4.766   1.739  0.1734 -1.5090  0.2124
 8342SOL     OW27563   6.695   2.201   1.995  0.2020 -0.0819  0.2682
 8342SOL    HW127564   6.776   2.204   1.944 -1.7248  2.2928 -2.7966
 8342SOL    HW227565   6.626   2.185   1.930 -2.1813  1.4329  2.3236
 8343SOL     OW27566   9.267   2.778   8.453  0.6653  0.4341  0.0500
 8343SOL    HW127567   9.314   2.730   8.384 -0.0320 -2.4121  1.4555
 8343SOL    HW227568   9.320   2.764   8.531  0.8972  2.7648  0.3364
 8344SOL     OW27569   3.568   2.478   1.886 -0.6847 -0.0494 -0.6017
 8344SOL    HW127570   3.488   2.447   1.845 -0.0838 -0.5953 -1.3647
 8344SOL    HW227571   3.544   2.490   1.978 -1.8706  0.6078 -0.9806
 8345SOL     OW27572   6.723   1.041   7.287  0.1302  0.3232  0.0451
 8345SOL    HW127573   6.727   1.117   7.230 -0.3238  1.5764  1.6481
 8345SOL    HW227574   6.635   1.006   7.274  0.5977 -0.4078 -1.2661
 8346SOL     OW27575   5.778   6.824   2.915  0.0132 -0.5815 -0.1194
 8346SOL    HW127576   5.731   6.742   2.901  0.6352 -0.8875 -0.4278
 8346SOL    HW227577   5.789   6.861   2.828 -1.9855  0.8107  0.1855
 8347SOL     OW27578  10.112   6.555   2.747  0.1521  0.2911 -0.2676
 8347SOL    HW127579  10.085   6.475   2.791  1.8116 -0.2244 -0.1606
 8347SOL    HW227580  10.098   6.538   2.654  1.6871 -0.6076 -0.3502
 8348SOL     OW27581   1.749   4.727   7.052 -0.3139 -0.1151  0.3731
 8348SOL    HW127582   1.760   4.753   6.961 -0.3448 -1.8960 -0.1615
 8348SOL    HW227583   1.784   4.800   7.102 -1.4128  1.4099 -1.0347
 8349SOL     OW27584   9.188   4.313   3.156 -0.1823  0.5383 -0.2085
 8349SOL    HW127585   9.186   4.220   3.177 -1.1195  0.8921  1.3920
 8349SOL    HW227586   9.128   4.323   3.082  0.5409 -0.2382 -0.9043
 8350SOL     OW27587   8.665   1.064   4.767  0.0928 -0.1506 -0.3565
 8350SOL    HW127588   8.738   1.025   4.718 -0.0006 -1.0136  0.1764
 8350SOL    HW227589   8.628   1.129   4.707  1.4123  0.4359 -0.5639
 8351SOL     OW27590   5.753   3.703   4.374  0.0880  0.2326 -0.2093
 8351SOL    HW127591   5.847   3.689   4.381 -0.0493 -0.5199  0.1239
 8351SOL    HW227592   5.717   3.616   4.357 -0.7008  0.2795  1.2321
 8352SOL     OW27593   4.058   5.642   5.335 -0.1599  0.1123 -0.0935
 8352SOL    HW127594   4.010   5.693   5.270 -0.0289 -0.2693 -0.4906
 8352SOL    HW227595   4.000   5.570   5.357  0.0247 -0.0719 -0.2066
 8353SOL     OW27596   3.719   6.151   8.145 -0.0064 -0.2094 -0.0832
 8353SOL    HW127597   3.736   6.245   8.148  1.4353 -0.4035 -1.3266
 8353SOL    HW227598   3.656   6.141   8.074 -0.6868 -0.1199  0.5033
 8354SOL     OW27599   6.766   0.794   9.349  0.3828 -0.0721  0.0945
 8354SOL    HW127600   6.679   0.796   9.310  0.1022 -1.0593  0.6389
 8354SOL    HW227601   6.782   0.884   9.376 -1.3621 -0.2597  1.9008
 8355SOL     OW27602   3.293   1.237   4.408  0.3489 -0.1016  0.2580
 8355SOL    HW127603   3.287   1.277   4.321  0.8019  0.2882  0.4003
 8355SOL    HW227604   3.241   1.294   4.464 -0.5218 -0.7482  0.1071
 8356SOL     OW27605   3.651   9.187   4.316  0.2847 -0.3510 -0.1923
 8356SOL    HW127606   3.654   9.125   4.243  0.6814  0.1634 -0.6175
 8356SOL    HW227607   3.622   9.270   4.277  1.4764  0.1902  0.0362
 8357SOL     OW27608   7.977   7.817   4.017  0.5512 -0.1414 -0.2295
 8357SOL    HW127609   7.890   7.785   3.993  0.3384 -0.2399  0.6830
 8357SOL    HW227610   7.971   7.912   4.008  0.9548 -0.2760 -2.1710
 8358SOL     OW27611   2.659   7.648   7.420 -0.0778 -0.1020 -0.1704
 8358SOL    HW127612   2.709   7.623   7.498 -0.3044  1.3932  0.4721
 8358SOL    HW227613   2.680   7.581   7.355  0.7869 -0.8820  0.9074
 8359SOL     OW27614   1.514   3.699   4.296  0.3525  0.2760  0.7051
 8359SOL    HW127615   1.479   3.610   4.288  1.5460 -0.1560  0.0917
 8359SOL    HW227616   1.490   3.726   4.384  0.8508 -1.0554  1.2693
 8360SOL     OW27617   2.399   6.849   2.876  0.3387  0.2854 -0.5835
 8360SOL    HW127618   2.377   6.942   2.866  2.2113  0.8515  0.2280
 8360SOL    HW227619   2.382   6.810   2.791 -0.4429  1.3906 -0.9400
 8361SOL     OW27620   2.745   3.915   0.968 -0.0694 -0.0943 -0.3494
 8361SOL    HW127621   2.669   3.956   1.008 -0.2019 -1.0261  0.3521
 8361SOL    HW227622   2.712   3.835   0.928  0.6024 -0.6735  0.2442
 8362SOL     OW27623   2.140   4.624   1.374  0.2885  0.1132 -0.0721
 8362SOL    HW127624   2.119   4.547   1.322  0.8300 -0.8096  1.0492
 8362SOL    HW227625   2.229   4.647   1.349  0.2667  0.1377 -0.1265
 8363SOL     OW27626   0.860   4.544   4.660 -0.1012 -0.5066  0.1403
 8363SOL    HW127627   0.800   4.474   4.685 -0.4011 -0.4513 -0.4269
 8363SOL    HW227628   0.859   4.545   4.565 -1.1100  1.1153  0.1389
 8364SOL     OW27629   7.909   2.071   0.090  0.1512  0.1224 -0.2653
 8364SOL    HW127630   7.834   2.012   0.097 -1.2182  1.6317 -1.8229
 8364SOL    HW227631   7.906   2.124   0.170  0.0443 -0.3801  0.0611
 8365SOL     OW27632   1.071   9.005   2.985 -0.5437 -0.5358  0.4970
 8365SOL    HW127633   1.048   9.098   2.983 -3.1047 -1.1390  0.4443
 8365SOL    HW227634   1.101   8.989   3.074 -1.9173 -0.0825  1.0371
 8366SOL     OW27635   3.207   5.548   2.001  0.2168  0.2748 -0.4437
 8366SOL    HW127636   3.122   5.522   2.038  0.7535  0.4172  0.9194
 8366SOL    HW227637   3.186   5.582   1.914 -0.7672 -2.4844 -1.3243
 8367SOL     OW27638   2.940  10.122   1.743 -0.2603  0.4972 -0.1837
 8367SOL    HW127639   2.845  10.113   1.741 -0.2109 -0.2600  0.6780
 8367SOL    HW227640   2.969  10.055   1.805  0.6135  2.3876  1.5072
 8368SOL     OW27641   1.260   5.545   3.291 -0.3167  0.0330 -0.3914
 8368SOL    HW127642   1.181   5.550   3.345 -0.0159  2.1838 -0.1031
 8368SOL    HW227643   1.323   5.498   3.346 -0.5726  0.6243  0.4205
 8369SOL     OW27644   1.546   5.681   1.039 -0.1792 -0.2663 -0.4191
 8369SOL    HW127645   1.479   5.749   1.048  0.4689  0.2998  0.1697
 8369SOL    HW227646   1.547   5.662   0.945  0.4731  1.4201 -0.7869
 8370SOL     OW27647   2.601   9.566   1.912  0.2030 -0.1042  0.3801
 8370SOL    HW127648   2.652   9.510   1.970 -1.1381 -1.7595  0.0146
 8370SOL    HW227649   2.630   9.543   1.824 -0.1529 -0.0387  0.2423
 8371SOL     OW27650   7.549   5.913   3.378  0.1553 -0.0317 -0.3065
 8371SOL    HW127651   7.521   5.843   3.318 -0.5522  0.4695 -0.5765
 8371SOL    HW227652   7.562   5.869   3.462 -2.6358 -0.1310  0.1372
 8372SOL     OW27653   7.756   6.000   0.140 -0.3145  0.2018  0.3203
 8372SOL    HW127654   7.676   5.947   0.136 -0.0775 -0.1282 -0.0019
 8372SOL    HW227655   7.783   5.996   0.231 -0.4849  0.0507  0.3636
 8373SOL     OW27656   0.766   6.573   2.602 -0.1201 -0.1472 -0.1642
 8373SOL    HW127657   0.759   6.478   2.613 -0.0862 -0.1355 -0.0381
 8373SOL    HW227658   0.753   6.588   2.509 -2.1731 -0.1026  0.0966
 8374SOL     OW27659   4.445   0.400   4.359  0.2105 -0.0618 -0.5441
 8374SOL    HW127660   4.482   0.410   4.271 -1.4912  1.5360 -1.1175
 8374SOL    HW227661   4.498   0.457   4.415  1.3101 -1.0971 -0.5264
 8375SOL     OW27662   2.299   3.601   2.291 -0.5166 -0.5584  0.1814
 8375SOL    HW127663   2.256   3.526   2.334 -1.6510  0.4277  0.7862
 8375SOL    HW227664   2.244   3.621   2.216 -0.2075 -0.3233  0.0155
 8376SOL     OW27665   9.425   7.902   9.130  0.1602 -0.5404 -0.1477
 8376SOL    HW127666   9.388   7.860   9.207 -0.1464 -1.9178 -1.0448
 8376SOL    HW227667   9.377   7.985   9.122 -0.6898 -0.9839  0.3824
 8377SOL     OW27668   6.546   0.173   1.374 -1.5305 -0.4148  0.6674
 8377SOL    HW127669   6.581   0.238   1.434 -2.7563 -0.8919  1.9296
 8377SOL    HW227670   6.622   0.146   1.321 -0.6659  0.7813  1.2729
 8378SOL     OW27671   3.641   6.175   1.169 -0.3823  0.0497 -0.4303
 8378SOL    HW127672   3.702   6.206   1.102  0.2677 -0.5222 -0.1066
 8378SOL    HW227673   3.695   6.123   1.228 -0.6856  1.7125  1.3298
 8379SOL     OW27674   2.319   0.835   4.267 -0.6278 -0.0845  0.4027
 8379SOL    HW127675   2.407   0.857   4.298 -1.0761  0.4199  1.3623
 8379SOL    HW227676   2.306   0.744   4.292 -0.4918 -0.0635  0.5503
 8380SOL     OW27677   7.454   2.471   6.649  0.2129 -0.4837 -0.1959
 8380SOL    HW127678   7.531   2.500   6.698 -0.2500 -0.8694  0.7690
 8380SOL    HW227679   7.486   2.400   6.594  1.1085  1.0550 -1.7346
 8381SOL     OW27680   9.431   3.210   0.531 -0.0757 -0.3084 -0.0749
 8381SOL    HW127681   9.350   3.166   0.506 -2.0129  2.0361  1.7966
 8381SOL    HW227682   9.461   3.163   0.609 -0.0064 -0.7854 -0.3912
 8382SOL     OW27683   1.270   3.466   1.229 -0.0075 -0.5088  0.1373
 8382SOL    HW127684   1.272   3.371   1.226  2.2641 -0.5277  1.0914
 8382SOL    HW227685   1.242   3.492   1.141  1.1431 -2.0280 -0.7025
 8383SOL     OW27686   1.357   9.178   1.886  0.4819 -0.4240  0.0824
 8383SOL    HW127687   1.440   9.178   1.838  0.2780 -0.5865 -0.2745
 8383SOL    HW227688   1.364   9.252   1.946 -0.6596  2.0198 -2.6456
 8384SOL     OW27689   8.434   1.810   5.791 -0.0187  0.1389  0.2164
 8384SOL    HW127690   8.448   1.737   5.731  0.1659  0.4011 -0.0638
 8384SOL    HW227691   8.445   1.772   5.878 -1.1646 -0.4344  0.1238
 8385SOL     OW27692   8.290   7.712   2.779  1.3262  0.5976  0.0520
 8385SOL    HW127693   8.320   7.626   2.809  3.1694  1.3658  0.4668
 8385SOL    HW227694   8.291   7.767   2.857  0.7956  1.1801 -0.3464
 8386SOL     OW27695   1.679   6.137   1.328 -0.4662  0.3798 -0.1985
 8386SOL    HW127696   1.584   6.146   1.323 -0.2727  1.5106 -2.3160
 8386SOL    HW227697   1.694   6.042   1.334 -1.7689  0.2848  2.1080
 8387SOL     OW27698   3.873   7.030   3.450  0.0629 -0.2393  0.3458
 8387SOL    HW127699   3.804   6.986   3.500 -0.4102 -0.8804 -0.8375
 8387SOL    HW227700   3.833   7.112   3.420  0.2062 -0.0486  0.6883
 8388SOL     OW27701   1.876   2.916   9.378 -0.4149 -0.0489  0.3354
 8388SOL    HW127702   1.791   2.937   9.417  0.4965  2.1843  1.2477
 8388SOL    HW227703   1.914   3.002   9.357  1.4836 -1.0170 -0.3116
 8389SOL     OW27704   1.668   5.069   2.906  0.0666 -0.4640  0.2449
 8389SOL    HW127705   1.690   4.997   2.965  0.6969 -0.4434  0.0311
 8389SOL    HW227706   1.572   5.077   2.913 -0.1199 -1.9605 -0.4809
 8390SOL     OW27707   4.560   9.286   8.437 -0.4907  1.1540  0.0512
 8390SOL    HW127708   4.524   9.198   8.435 -2.3357  1.9028 -1.8441
 8390SOL    HW227709   4.607   9.292   8.520  0.2935 -1.8370 -0.1388
 8391SOL     OW27710   5.019   9.033   6.568 -0.2402  0.2600 -0.2120
 8391SOL    HW127711   5.103   9.078   6.560  0.5320 -1.1028  0.0010
 8391SOL    HW227712   4.969   9.063   6.492  0.5067  0.9438 -0.4459
 8392SOL     OW27713   4.823  10.101   3.561 -0.1852 -0.3164  0.2851
 8392SOL    HW127714   4.754  10.037   3.544 -1.4562  0.8149  1.0411
 8392SOL    HW227715   4.897  10.071   3.509 -1.4791 -1.1787 -1.1109
 8393SOL     OW27716   6.613   3.071   0.945  0.4565 -0.3219  0.3459
 8393SOL    HW127717   6.623   3.086   1.039  0.5218 -0.2948  0.3349
 8393SOL    HW227718   6.612   2.976   0.936 -1.2868 -0.3389  0.5551
 8394SOL     OW27719   4.619   0.326   2.441 -0.8262  0.3962  0.0342
 8394SOL    HW127720   4.603   0.324   2.535 -1.0003  1.0386  0.0188
 8394SOL    HW227721   4.708   0.291   2.431 -1.0575 -0.2846  0.3799
 8395SOL     OW27722   6.648   5.110   2.448  0.5306  0.3472 -0.2587
 8395SOL    HW127723   6.661   5.160   2.368  0.5015 -1.0179 -1.1371
 8395SOL    HW227724   6.595   5.167   2.504 -0.6603  0.7494 -1.7675
 8396SOL     OW27725   5.647   5.362   3.871  0.4502  0.2030 -0.1603
 8396SOL    HW127726   5.630   5.335   3.781  1.3216 -1.5367  0.1675
 8396SOL    HW227727   5.570   5.414   3.896 -0.9933 -1.4540 -1.0642
 8397SOL     OW27728   0.443   0.580   3.218 -0.2068 -0.4571  0.4297
 8397SOL    HW127729   0.405   0.660   3.256 -0.0294  0.2293 -0.8386
 8397SOL    HW227730   0.384   0.558   3.146  1.8006  0.6494 -1.6099
 8398SOL     OW27731   2.662   3.174   0.704 -0.1979 -0.2214 -0.9037
 8398SOL    HW127732   2.611   3.126   0.769 -0.7618  0.7184 -0.6535
 8398SOL    HW227733   2.598   3.205   0.640 -0.0108  1.3727 -0.3349
 8399SOL     OW27734   2.526   9.967   1.592  0.2372  0.1950  0.0402
 8399SOL    HW127735   2.474   9.947   1.669  0.6832 -0.3558  0.1991
 8399SOL    HW227736   2.505  10.058   1.571  0.9461  0.6900  1.4496
 8400SOL     OW27737   1.750   3.234   0.401 -0.0196 -0.4477  0.3805
 8400SOL    HW127738   1.731   3.328   0.395  0.4864 -0.3948 -0.5785
 8400SOL    HW227739   1.829   3.229   0.454 -0.8398 -0.4361  1.6171
 8401SOL     OW27740  10.065   4.945   9.709 -0.0871  0.0452  0.1765
 8401SOL    HW127741  10.068   4.875   9.644  0.5848 -0.6325  0.9216
 8401SOL    HW227742  10.115   4.910   9.784  0.0705  1.2311  0.6311
 8402SOL     OW27743   8.681   6.134   5.563 -0.2262  0.1387 -0.2945
 8402SOL    HW127744   8.742   6.139   5.489 -0.6134  0.6297 -0.5753
 8402SOL    HW227745   8.620   6.206   5.550 -1.3056 -0.7872 -0.3876
 8403SOL     OW27746   7.607   9.803   3.675 -0.1846  0.1234  0.1195
 8403SOL    HW127747   7.621   9.897   3.668 -1.2856  0.1829 -1.6966
 8403SOL    HW227748   7.512   9.793   3.675 -0.0766 -1.0054 -0.2178
 8404SOL     OW27749   3.630   5.288   5.814  0.7703  0.0910  0.2022
 8404SOL    HW127750   3.608   5.376   5.844  1.8546  0.2474  0.5714
 8404SOL    HW227751   3.613   5.232   5.889  0.4216  0.0309  0.0797
 8405SOL     OW27752   5.354   9.123   3.980  0.4468  0.1451 -0.0853
 8405SOL    HW127753   5.340   9.060   3.910  2.0541  2.4713 -2.6334
 8405SOL    HW227754   5.269   9.165   3.992 -0.5987 -2.3170  1.5390
 8406SOL     OW27755   3.075   5.801   8.010 -0.8104 -0.0141  0.4608
 8406SOL    HW127756   3.004   5.824   8.069 -1.8041 -0.2390 -0.6341
 8406SOL    HW227757   3.152   5.794   8.067 -1.5799  0.5917  1.5960
 8407SOL     OW27758   2.360   0.658   0.268 -0.2400 -0.0398 -0.2928
 8407SOL    HW127759   2.359   0.563   0.258 -2.7232  0.0165 -0.7435
 8407SOL    HW227760   2.268   0.684   0.273  0.4100  2.2395  0.9635
 8408SOL     OW27761   9.455   7.505   4.710 -0.4964 -0.1894  0.1056
 8408SOL    HW127762   9.406   7.462   4.779 -1.9657 -2.4480 -2.2579
 8408SOL    HW227763   9.494   7.434   4.659  0.6231  1.4011 -1.3287
 8409SOL     OW27764   8.489   3.582   7.874  0.0446  0.5591  0.7337
 8409SOL    HW127765   8.418   3.566   7.937 -0.2341  0.8344  0.4929
 8409SOL    HW227766   8.501   3.497   7.831  1.1210  0.0343  2.0499
 8410SOL     OW27767   5.297   5.290   1.472 -0.5389 -0.6960 -0.4087
 8410SOL    HW127768   5.246   5.236   1.533 -2.0226  0.9749 -0.1345
 8410SOL    HW227769   5.269   5.379   1.490  1.7334  0.1715 -1.0110
 8411SOL     OW27770   7.802   3.246   6.378  0.1621  0.4024 -0.3756
 8411SOL    HW127771   7.727   3.257   6.321 -0.5495  0.0846  0.4880
 8411SOL    HW227772   7.863   3.314   6.351 -0.8034  1.2308 -0.4961
 8412SOL     OW27773   1.620   7.140   2.774  0.4480 -0.2676  0.5260
 8412SOL    HW127774   1.559   7.142   2.700  0.4005  0.2836  0.5795
 8412SOL    HW227775   1.633   7.232   2.797  2.2617 -0.3010 -0.2639
 8413SOL     OW27776  10.157   5.376   7.822  0.6060  0.6308 -0.5653
 8413SOL    HW127777  10.075   5.425   7.830  0.1393 -0.1236 -0.6908
 8413SOL    HW227778  10.173   5.342   7.910  0.0014 -0.4553 -0.8629
 8414SOL     OW27779   6.611   0.051   5.989  0.0051  1.1166 -0.1093
 8414SOL    HW127780   6.581   0.110   6.058 -0.0590 -0.9309  1.6547
 8414SOL    HW227781   6.705   0.068   5.981 -0.0802  1.6986  0.1213
 8415SOL     OW27782   3.275   5.851   0.407  0.0302  0.2467  0.1602
 8415SOL    HW127783   3.248   5.942   0.419 -0.0655 -0.0954  2.9632
 8415SOL    HW227784   3.339   5.854   0.336 -0.2401  2.4468 -0.0328
 8416SOL     OW27785   0.780   4.128   4.510  0.1143 -0.0426  0.4526
 8416SOL    HW127786   0.703   4.098   4.461 -0.0745  0.4037  0.4699
 8416SOL    HW227787   0.752   4.210   4.550 -0.0042 -0.8313  2.0061
 8417SOL     OW27788   2.116   2.622   6.820  0.2575 -0.5225  0.6660
 8417SOL    HW127789   2.043   2.564   6.799  0.3674 -0.6464  0.6263
 8417SOL    HW227790   2.091   2.707   6.783 -0.2135 -0.3678  1.3323
 8418SOL     OW27791   0.396   9.067   0.909  0.5843  0.4057 -0.4345
 8418SOL    HW127792   0.433   9.005   0.972  0.7506 -1.2996 -2.1935
 8418SOL    HW227793   0.307   9.036   0.894  0.4560  0.9627 -0.8578
 8419SOL     OW27794   5.120   6.532   1.589 -0.3052 -0.5129 -0.2753
 8419SOL    HW127795   5.210   6.502   1.602  0.3642  0.9424 -1.3919
 8419SOL    HW227796   5.104   6.520   1.495 -1.1588 -0.4272 -0.1475
 8420SOL     OW27797  10.147   2.750   3.524 -0.4156 -0.5673  0.3589
 8420SOL    HW127798  10.129   2.709   3.609  0.0149 -2.2485 -0.3529
 8420SOL    HW227799  10.090   2.704   3.463  0.9003 -0.8730 -0.6464
 8421SOL     OW27800   2.780   1.331   4.017  0.3029 -0.7461 -0.1718
 8421SOL    HW127801   2.868   1.341   4.052  0.1142  0.8917 -0.1387
 8421SOL    HW227802   2.735   1.276   4.081  0.5436  0.5843  1.1754
 8422SOL     OW27803   9.339   4.754   8.430  0.5341  0.6657 -0.9886
 8422SOL    HW127804   9.291   4.786   8.507  1.1485  0.7398 -0.6331
 8422SOL    HW227805   9.348   4.831   8.374 -0.1400  0.5542 -1.2537
 8423SOL     OW27806   1.900   2.827   2.187  0.4975  0.6336 -0.3772
 8423SOL    HW127807   1.812   2.864   2.191  0.3746  0.2301  0.8171
 8423SOL    HW227808   1.886   2.734   2.168  0.4986 -0.0610  2.7691
 8424SOL     OW27809   2.829   0.580   0.833  0.0619  0.9851  0.2276
 8424SOL    HW127810   2.740   0.595   0.802  0.1310 -0.4852 -0.7371
 8424SOL    HW227811   2.834   0.485   0.846  1.8362  0.9113 -0.8518
 8425SOL     OW27812   4.590   8.448   0.648  0.3470  0.0437  0.1740
 8425SOL    HW127813   4.502   8.484   0.657  0.0967 -0.3312 -0.6727
 8425SOL    HW227814   4.643   8.520   0.616  1.2855  1.4439  4.4923
 8426SOL     OW27815   6.076   3.177   0.093 -0.3848 -0.8901  0.4889
 8426SOL    HW127816   6.035   3.114   0.034 -1.7246  0.0421  0.4058
 8426SOL    HW227817   6.161   3.195   0.053  0.1482 -2.8926  0.6976
 8427SOL     OW27818   1.592   5.149   9.836 -0.3481 -0.3124 -0.0078
 8427SOL    HW127819   1.574   5.128   9.744 -3.4458 -4.0353  1.2736
 8427SOL    HW227820   1.677   5.109   9.854 -0.0704 -0.2052 -1.0598
 8428SOL     OW27821  10.176   3.012   1.805 -0.6096 -0.2603 -0.4415
 8428SOL    HW127822  10.131   2.958   1.871  0.3632 -0.3976  0.1216
 8428SOL    HW227823  10.199   2.950   1.735 -2.0115 -0.0379 -1.1143
 8429SOL     OW27824   3.430   5.077   0.745 -0.0481  0.1758 -0.2988
 8429SOL    HW127825   3.470   4.992   0.725  1.3258  0.4456  1.2191
 8429SOL    HW227826   3.340   5.069   0.713  0.1422 -1.7616 -0.4073
 8430SOL     OW27827   2.174   8.771   1.461  0.2701 -0.3301 -0.1337
 8430SOL    HW127828   2.092   8.757   1.413 -0.0554 -0.2818  0.4042
 8430SOL    HW227829   2.242   8.740   1.402 -0.1779 -0.8232 -0.3947
 8431SOL     OW27830   6.048   1.713   7.943 -0.6350  0.7066  0.4567
 8431SOL    HW127831   6.033   1.620   7.960 -0.6175  0.4540 -0.8441
 8431SOL    HW227832   6.048   1.720   7.848  1.7299  1.6703  0.5038
 8432SOL     OW27833   9.136   6.076   5.720 -0.1830 -0.1397  0.0957
 8432SOL    HW127834   9.046   6.107   5.729  0.1693  0.7922  0.4974
 8432SOL    HW227835   9.170   6.075   5.809  0.4003  0.1095 -0.1224
 8433SOL     OW27836   6.833   9.138   0.422 -0.0649 -0.3034  0.1195
 8433SOL    HW127837   6.800   9.139   0.512 -0.2121  1.8766  0.0751
 8433SOL    HW227838   6.911   9.194   0.424  1.6125 -2.5459 -0.5282
 8434SOL     OW27839   5.041   2.227   8.455  0.0804  0.2499 -0.2887
 8434SOL    HW127840   5.101   2.212   8.528 -0.1825  0.0916 -0.1025
 8434SOL    HW227841   4.959   2.254   8.496 -1.0734 -2.9370 -0.3078
 8435SOL     OW27842   3.198   8.142   7.637 -0.1457  0.3897 -0.2771
 8435SOL    HW127843   3.211   8.048   7.651 -0.3890  0.3485 -0.3111
 8435SOL    HW227844   3.269   8.168   7.579  0.1229  0.2965  0.0040
 8436SOL     OW27845   2.226   4.857   8.588  0.2697 -0.2294 -0.1383
 8436SOL    HW127846   2.279   4.787   8.549  0.2063 -0.5541  0.3548
 8436SOL    HW227847   2.188   4.817   8.666 -0.2746  0.1642 -0.1977
 8437SOL     OW27848   0.840   2.960   4.572  0.0469 -0.2201 -0.5781
 8437SOL    HW127849   0.910   2.931   4.514  0.5259 -1.3137  0.5182
 8437SOL    HW227850   0.885   3.006   4.643 -0.4010 -0.2153 -0.2961
 8438SOL     OW27851   5.873   7.068   2.230  0.2943 -0.0377 -0.2741
 8438SOL    HW127852   5.888   7.161   2.213  0.5546  0.1065  0.7274
 8438SOL    HW227853   5.781   7.063   2.254  0.0955 -0.1510 -1.0244
 8439SOL     OW27854   3.696   4.600   0.499 -0.3792 -0.3260 -0.3092
 8439SOL    HW127855   3.759   4.624   0.567 -0.5515  1.2640 -0.6795
 8439SOL    HW227856   3.655   4.520   0.531  2.8500 -2.2663 -0.7304
 8440SOL     OW27857   1.182   1.896   5.068 -0.1497  0.2577 -0.1426
 8440SOL    HW127858   1.245   1.933   5.129  0.4002 -0.1919 -0.4295
 8440SOL    HW227859   1.231   1.829   5.021 -1.1888 -1.0276  0.5574
 8441SOL     OW27860   6.238   4.482   1.626 -0.6985 -0.1221 -0.1718
 8441SOL    HW127861   6.223   4.427   1.703 -0.3417 -0.1479 -0.1193
 8441SOL    HW227862   6.223   4.424   1.552 -0.3768 -0.2750 -0.1168
 8442SOL     OW27863   8.923   3.240   8.319 -1.0340 -0.4275  0.2497
 8442SOL    HW127864   9.012   3.206   8.330 -1.2232 -1.4679 -1.3497
 8442SOL    HW227865   8.927   3.328   8.357  1.3716  0.5831 -2.1772
 8443SOL     OW27866   6.131   0.491  10.141 -0.2180  0.1922  0.6661
 8443SOL    HW127867   6.098   0.541  10.066  1.1291 -0.2189 -0.2227
 8443SOL    HW227868   6.133   0.554  10.213  0.6438  1.2225 -0.2339
 8444SOL     OW27869   3.068   5.033   3.382  0.4165  0.0832 -0.2342
 8444SOL    HW127870   3.138   5.095   3.362 -0.2248  0.5297 -1.1063
 8444SOL    HW227871   2.989   5.073   3.346 -0.4609  0.0418  1.5758
 8445SOL     OW27872   9.882   3.872   7.236  0.5804 -0.3071 -0.0168
 8445SOL    HW127873   9.870   3.812   7.310  1.2835 -1.3927 -0.7627
 8445SOL    HW227874   9.894   3.958   7.276  0.5860 -0.8271  1.1159
 8446SOL     OW27875   6.134   8.661   8.771  0.3170 -0.3118 -0.2890
 8446SOL    HW127876   6.209   8.710   8.806  0.6441 -1.5340  0.7778
 8446SOL    HW227877   6.164   8.571   8.767 -1.5967 -1.1021  1.6971
 8447SOL     OW27878   3.164   6.518   8.363 -0.0573  0.0675 -0.2198
 8447SOL    HW127879   3.256   6.544   8.370 -0.0904 -0.1004  0.8878
 8447SOL    HW227880   3.115   6.600   8.369 -0.0181  0.0658  0.1560
 8448SOL     OW27881   2.239   4.901   0.923  0.3172  0.4027 -0.0727
 8448SOL    HW127882   2.254   4.982   0.971 -0.6606 -0.3954  1.6248
 8448SOL    HW227883   2.153   4.912   0.882  1.2824  1.2048 -1.9428
 8449SOL     OW27884   8.314   3.447   2.617  0.0992  0.4068  0.0746
 8449SOL    HW127885   8.305   3.479   2.707 -1.8946  1.1668 -0.3746
 8449SOL    HW227886   8.238   3.481   2.571  1.2424  0.2862 -2.0045
 8450SOL     OW27887   6.366   9.884   5.144  0.1149  0.1276  0.7148
 8450SOL    HW127888   6.392   9.973   5.171  0.0635  0.4541 -0.2886
 8450SOL    HW227889   6.419   9.866   5.067 -0.6316 -0.2913  0.2894
 8451SOL     OW27890   0.455   1.305   9.144 -0.5080  0.3465  0.1847
 8451SOL    HW127891   0.509   1.384   9.138 -0.2069  0.3045  2.1177
 8451SOL    HW227892   0.365   1.338   9.147 -0.5130  0.4978 -1.2004
 8452SOL     OW27893   9.556  10.165   8.359  0.4797 -0.0239  0.1045
 8452SOL    HW127894   9.629  10.173   8.298 -1.1958  2.3919 -1.6988
 8452SOL    HW227895   9.595  10.181   8.445  2.5010 -1.2950 -0.5512
 8453SOL     OW27896   3.174   5.162   0.962 -0.0865 -0.1469 -0.9156
 8453SOL    HW127897   3.208   5.191   1.047  0.5753  2.0099 -1.8754
 8453SOL    HW227898   3.251   5.161   0.905 -0.9935  1.0814 -2.1761
 8454SOL     OW27899   4.730   9.243   2.244 -0.2821 -0.0497 -0.1860
 8454SOL    HW127900   4.650   9.271   2.290  0.1172  1.4487 -0.3643
 8454SOL    HW227901   4.736   9.149   2.261 -2.1795 -0.2157 -0.3154
 8455SOL     OW27902   0.453   4.749   1.219  0.0905 -0.3859 -0.1723
 8455SOL    HW127903   0.525   4.812   1.211  0.5782 -0.9663 -0.4266
 8455SOL    HW227904   0.374   4.803   1.225  0.7030  0.3174  1.9249
 8456SOL     OW27905   9.465   3.217   1.464  0.1278 -0.2082 -0.0227
 8456SOL    HW127906   9.430   3.179   1.544  0.6175  2.3889  1.4748
 8456SOL    HW227907   9.543   3.165   1.445 -1.3283 -2.3789 -0.1924
 8457SOL     OW27908   6.614   1.165   4.609  0.1662 -0.4882  0.1500
 8457SOL    HW127909   6.563   1.221   4.666 -0.2765  0.4375 -1.1409
 8457SOL    HW227910   6.687   1.219   4.581  0.3880 -0.9411 -0.1545
 8458SOL     OW27911   5.114   8.810   0.514 -0.5745 -0.0669  0.1594
 8458SOL    HW127912   5.193   8.775   0.556  0.0983  1.6546  0.3561
 8458SOL    HW227913   5.073   8.864   0.582 -0.0977  1.8053 -0.9931
 8459SOL     OW27914   7.260   8.508   4.640  0.1098 -0.1945  0.3852
 8459SOL    HW127915   7.221   8.530   4.555 -1.6648 -2.0087  0.7026
 8459SOL    HW227916   7.344   8.468   4.617 -1.1283 -2.2881 -0.6337
 8460SOL     OW27917   2.821   3.114   7.165 -0.1984  0.4308  0.4872
 8460SOL    HW127918   2.815   3.102   7.070  2.4938  2.5143 -0.0482
 8460SOL    HW227919   2.765   3.190   7.183 -0.1186  0.5036  0.4309
 8461SOL     OW27920   2.483   5.842   7.313  0.1047  0.0105  0.1951
 8461SOL    HW127921   2.423   5.775   7.279  0.0964 -0.5712  1.3245
 8461SOL    HW227922   2.570   5.813   7.285 -0.1910  1.3746 -2.3027
 8462SOL     OW27923   0.410   7.265   7.501 -0.3887  0.2450 -0.5748
 8462SOL    HW127924   0.381   7.180   7.466 -0.1534  0.3088 -0.9191
 8462SOL    HW227925   0.346   7.327   7.466 -1.1500  0.0744  0.4889
 8463SOL     OW27926   1.467   2.824   7.677 -0.4004  0.2012  0.2781
 8463SOL    HW127927   1.413   2.768   7.621  1.2051 -0.3914 -0.7088
 8463SOL    HW227928   1.406   2.857   7.743 -2.1450  0.2055 -1.2820
 8464SOL     OW27929   5.796   8.423   0.943 -0.4178  0.1303 -0.4266
 8464SOL    HW127930   5.737   8.438   1.018 -0.0871 -0.3665 -0.0645
 8464SOL    HW227931   5.875   8.471   0.965  0.0227 -0.7645 -0.0307
 8465SOL     OW27932   4.308   0.003   3.344 -0.1084 -0.0732 -0.2904
 8465SOL    HW127933   4.262  -0.081   3.343  0.0633 -0.1678 -0.2267
 8465SOL    HW227934   4.400  -0.020   3.329 -0.0686  0.1071 -0.3228
 8466SOL     OW27935   0.763   1.999   3.620  0.2274 -0.6343  0.3451
 8466SOL    HW127936   0.719   1.981   3.703 -0.1418  1.1199  0.5491
 8466SOL    HW227937   0.722   2.080   3.589  1.2876 -0.5656 -0.9009
 8467SOL     OW27938   2.090   0.141   0.901 -0.0019 -0.2960 -0.7924
 8467SOL    HW127939   1.999   0.162   0.881 -0.2491 -1.2157 -0.6346
 8467SOL    HW227940   2.135   0.149   0.817 -0.2844 -0.1648 -0.9346
 8468SOL     OW27941   5.231   8.403   6.497 -0.0749 -0.4336 -0.0261
 8468SOL    HW127942   5.325   8.405   6.483 -0.1769 -0.4514 -0.7282
 8468SOL    HW227943   5.219   8.356   6.580  0.4537 -1.6012 -0.6074
 8469SOL     OW27944   1.449   4.056   6.060  0.0542 -0.2192  0.2414
 8469SOL    HW127945   1.522   4.082   6.115 -1.5518  1.3354  1.6660
 8469SOL    HW227946   1.448   3.960   6.066 -0.9772 -0.0278  4.0713
 8470SOL     OW27947   3.902   1.650   6.082 -0.3881 -0.3155 -0.3202
 8470SOL    HW127948   3.845   1.702   6.137  0.8250 -0.7535  1.4002
 8470SOL    HW227949   3.894   1.688   5.995 -1.0361  1.4703  0.5103
 8471SOL     OW27950   5.991   1.855  10.119 -0.4751  0.3110 -0.8132
 8471SOL    HW127951   5.962   1.946  10.120  2.2279  1.2045 -0.8593
 8471SOL    HW227952   5.972   1.824  10.030 -1.2555  0.8618 -0.8421
 8472SOL     OW27953   2.771   9.031   4.596 -0.5189 -0.2705 -0.4508
 8472SOL    HW127954   2.866   9.031   4.605 -0.3540 -2.1564 -1.8792
 8472SOL    HW227955   2.747   8.939   4.595 -2.2467  0.1678 -1.2462
 8473SOL     OW27956   3.995   2.713   8.219  0.4728  0.3245  0.6281
 8473SOL    HW127957   3.997   2.750   8.307 -1.5937 -0.4103  1.0031
 8473SOL    HW227958   3.973   2.787   8.162  3.1502  1.0977  0.5179
 8474SOL     OW27959   1.587   3.590   6.053 -0.2120 -0.3455  0.2260
 8474SOL    HW127960   1.636   3.666   6.084  0.9287 -0.9369 -0.1222
 8474SOL    HW227961   1.648   3.543   5.997 -1.4680 -0.6015 -0.9469
 8475SOL     OW27962   2.238   6.969   1.999  0.0567  0.1575 -0.1312
 8475SOL    HW127963   2.168   7.026   1.968  0.3511  0.9102  0.5837
 8475SOL    HW227964   2.303   6.971   1.928  1.1663  2.6530  0.8890
 8476SOL     OW27965   3.717   6.240   0.601  0.3812  0.2200 -0.0408
 8476SOL    HW127966   3.680   6.287   0.526  0.6859  0.2442 -0.1769
 8476SOL    HW227967   3.720   6.305   0.671  0.8538  0.4248 -0.2448
 8477SOL     OW27968   8.642   3.315   9.705  0.0845  0.1238  0.1190
 8477SOL    HW127969   8.551   3.318   9.676 -0.1883  1.3951  1.0522
 8477SOL    HW227970   8.662   3.221   9.712 -0.6849 -0.1742 -1.4930
 8478SOL     OW27971   8.494   3.611   9.026  0.7310 -0.3047 -0.2609
 8478SOL    HW127972   8.584   3.611   8.994  2.0881 -1.2539  3.2734
 8478SOL    HW227973   8.464   3.521   9.015  0.0917  0.0656 -1.6653
 8479SOL     OW27974   8.694   4.282   2.353  0.2256 -0.5638  0.0030
 8479SOL    HW127975   8.601   4.305   2.349 -0.1473 -2.0734 -0.3358
 8479SOL    HW227976   8.707   4.224   2.279  1.6534  0.3252 -0.4580
 8480SOL     OW27977   2.357   0.300   0.788 -0.1129 -0.3405 -0.4622
 8480SOL    HW127978   2.293   0.237   0.755  1.1516 -1.0726 -1.5723
 8480SOL    HW227979   2.315   0.385   0.776 -1.3490 -0.8740 -0.0640
 8481SOL     OW27980   8.644   6.086   8.701 -0.2002 -0.2515  0.1329
 8481SOL    HW127981   8.629   6.062   8.609 -0.9464 -0.7360  0.3727
 8481SOL    HW227982   8.603   6.015   8.751 -1.2199  0.8372  0.8503
 8482SOL     OW27983   4.273   2.385   6.826  0.3752  0.0181 -0.2276
 8482SOL    HW127984   4.339   2.320   6.848  0.8039 -0.1147 -1.8172
 8482SOL    HW227985   4.301   2.465   6.872  0.6925 -0.5069  0.4878
 8483SOL     OW27986   8.486   3.908   1.730 -0.1798 -0.4242  0.2028
 8483SOL    HW127987   8.506   4.001   1.743 -0.4236  0.1718 -3.2715
 8483SOL    HW227988   8.572   3.865   1.732  0.1357  0.1723 -0.4568
 8484SOL     OW27989   4.164   6.636   5.453 -0.3765 -0.0398 -0.1297
 8484SOL    HW127990   4.199   6.581   5.523 -1.1486 -1.1149 -0.5743
 8484SOL    HW227991   4.241   6.672   5.410  0.0959  1.1441  1.6717
 8485SOL     OW27992   3.224   6.814   6.173  0.3672  0.2573  0.8059
 8485SOL    HW127993   3.173   6.794   6.094  0.4837  0.5538  0.6554
 8485SOL    HW227994   3.172   6.879   6.220  1.1321  1.4003  0.0920
 8486SOL     OW27995   9.524   8.432   1.720 -0.0055 -0.7888  0.1211
 8486SOL    HW127996   9.557   8.510   1.765  0.8059 -0.4205 -1.0879
 8486SOL    HW227997   9.539   8.360   1.781  0.4571 -0.1918  0.7066
 8487SOL     OW27998   5.746   4.921   1.612 -0.6869  0.4539 -0.1189
 8487SOL    HW127999   5.697   4.849   1.572 -0.3262  0.4670 -0.5847
 8487SOL    HW228000   5.822   4.880   1.652 -2.1239  0.1469  2.4295
 8488SOL     OW28001   8.332   3.842   5.875 -0.0538 -0.1976  0.0204
 8488SOL    HW128002   8.268   3.792   5.924  0.5656 -0.3875  0.6486
 8488SOL    HW228003   8.299   3.842   5.785 -0.2921 -1.3450  0.0960
 8489SOL     OW28004   1.646  10.013   4.960  0.4530 -0.2661  0.0144
 8489SOL    HW128005   1.654   9.974   5.048 -0.6340  0.9234  0.6618
 8489SOL    HW228006   1.647  10.107   4.976 -0.4448 -0.0472 -1.1774
 8490SOL     OW28007   9.486   7.170   7.885  0.1776 -0.2453  0.1259
 8490SOL    HW128008   9.403   7.205   7.854 -0.1479 -0.0701  1.1631
 8490SOL    HW228009   9.543   7.172   7.808 -1.1734 -1.6389 -0.9325
 8491SOL     OW28010   4.310   8.638   3.840 -0.0590 -0.2503  0.0480
 8491SOL    HW128011   4.342   8.725   3.816 -2.4238  0.6885  0.1474
 8491SOL    HW228012   4.315   8.637   3.936  1.8719 -1.0073 -0.0411
 8492SOL     OW28013   8.864   9.454   4.019 -0.2015  0.1987  0.4779
 8492SOL    HW128014   8.953   9.484   4.037  0.0468 -0.9674  1.2158
 8492SOL    HW228015   8.822   9.450   4.104 -0.7874  0.2015  0.1892
 8493SOL     OW28016   8.747   7.187   8.411 -0.1999  0.4167  0.1575
 8493SOL    HW128017   8.723   7.096   8.427  2.1421  0.0248  1.5822
 8493SOL    HW228018   8.696   7.212   8.334 -4.2816 -0.6944  2.3757
 8494SOL     OW28019   2.846   5.165   5.100 -0.4023  0.4642 -0.4999
 8494SOL    HW128020   2.864   5.081   5.142 -1.8572  0.0179 -0.7285
 8494SOL    HW228021   2.894   5.229   5.153  0.0044 -0.4132  0.2071
 8495SOL     OW28022   7.561   7.130   3.082  0.1265  0.6981  0.2957
 8495SOL    HW128023   7.560   7.071   3.158 -0.5481  0.4708  0.1081
 8495SOL    HW228024   7.645   7.176   3.089  0.7368 -0.4144  0.3386
 8496SOL     OW28025   4.625   1.695   2.262 -0.0629  0.3785  0.2411
 8496SOL    HW128026   4.547   1.650   2.294  1.0532 -1.8861 -0.1162
 8496SOL    HW228027   4.593   1.753   2.193 -1.3596 -1.0191 -0.3586
 8497SOL     OW28028   3.586   2.857   3.211  0.1949 -0.7821 -0.4333
 8497SOL    HW128029   3.518   2.825   3.271  0.0186 -0.7466 -0.6152
 8497SOL    HW228030   3.569   2.951   3.204  1.5266 -0.3994  1.1576
 8498SOL     OW28031   1.004   7.443   0.561  0.2367 -0.0692  0.0793
 8498SOL    HW128032   1.081   7.394   0.591  1.5116  1.6199 -0.3544
 8498SOL    HW228033   0.977   7.494   0.637 -0.9049 -1.1809  0.4402
 8499SOL     OW28034   4.561  10.183   9.368  0.2578 -0.0960  0.0894
 8499SOL    HW128035   4.529  10.165   9.279 -0.8461  1.1402  0.2171
 8499SOL    HW228036   4.644  10.228   9.354  1.4599 -2.3811 -0.2675
 8500SOL     OW28037   4.114   7.615   9.804  0.0172 -0.1701  0.0789
 8500SOL    HW128038   4.165   7.678   9.753  0.7160 -0.4533  0.4089
 8500SOL    HW228039   4.078   7.555   9.739  2.2319 -1.4814  0.0228
 8501SOL     OW28040   4.777   6.225   0.170 -0.0808  0.1543  0.0915
 8501SOL    HW128041   4.807   6.262   0.253  1.1039  2.2781 -1.2308
 8501SOL    HW228042   4.726   6.295   0.129  0.3112 -0.4540 -1.4887
 8502SOL     OW28043   8.105   5.644   6.095  0.2998 -0.3677  0.2499
 8502SOL    HW128044   8.196   5.618   6.086 -0.1735 -2.1648  0.4646
 8502SOL    HW228045   8.077   5.664   6.005  1.1208  0.9841  0.2895
 8503SOL     OW28046   1.109   2.770   0.667 -0.4266 -0.6277 -0.1359
 8503SOL    HW128047   1.061   2.853   0.663  0.8267  0.1790  1.2132
 8503SOL    HW228048   1.170   2.775   0.594 -0.3750 -0.3816 -0.0773
 8504SOL     OW28049   8.373   8.122   0.402  0.4414  0.8085 -0.0685
 8504SOL    HW128050   8.384   8.042   0.349  1.2066  0.8418  0.0326
 8504SOL    HW228051   8.463   8.151   0.420  0.1696  1.3323  0.4415
 8505SOL     OW28052   2.105   4.508   8.019  0.4921 -0.2325  0.3176
 8505SOL    HW128053   2.066   4.579   8.070  1.6168 -0.4089  1.4740
 8505SOL    HW228054   2.032   4.468   7.973  0.0035  2.4725 -1.3694
 8506SOL     OW28055   6.112   3.344   1.853  0.2138  0.6903 -0.2135
 8506SOL    HW128056   6.200   3.321   1.822  0.4504  1.2969 -0.0044
 8506SOL    HW228057   6.054   3.304   1.789  0.5273 -1.8620  1.0152
 8507SOL     OW28058   3.192   7.455   7.328  1.0467  0.7161  0.5906
 8507SOL    HW128059   3.255   7.398   7.284 -0.0777 -0.2358  0.1980
 8507SOL    HW228060   3.110   7.440   7.282 -0.7096 -2.0078  4.3818
 8508SOL     OW28061   0.382   3.970   0.322  0.7351 -0.1628  0.0350
 8508SOL    HW128062   0.444   3.934   0.259 -0.8841 -2.2654 -0.4009
 8508SOL    HW228063   0.300   3.981   0.273 -0.1610 -0.5144  1.4177
 8509SOL     OW28064   6.854  10.163   5.377  0.4068 -0.5007  0.5065
 8509SOL    HW128065   6.920  10.137   5.313 -0.3367 -0.1500 -0.4105
 8509SOL    HW228066   6.830  10.253   5.353 -0.6104 -0.7229  0.6463
 8510SOL     OW28067   5.172   9.988   3.842 -0.5835 -0.0166 -0.2374
 8510SOL    HW128068   5.081  10.020   3.844 -0.8739 -0.8690  0.6229
 8510SOL    HW228069   5.173   9.925   3.770 -0.3961  0.8059 -0.9552
 8511SOL     OW28070   7.889  10.026   3.518  0.3349  0.3157  0.0854
 8511SOL    HW128071   7.851  10.068   3.441 -0.5338  0.2909  0.5012
 8511SOL    HW228072   7.896   9.934   3.493  0.0713  0.3100  0.0289
 8512SOL     OW28073   5.597   5.261   3.632  0.2492  0.6790  0.1792
 8512SOL    HW128074   5.631   5.274   3.543 -0.7852  0.2705 -0.2813
 8512SOL    HW228075   5.605   5.166   3.647 -1.1993  0.4913 -0.1523
 8513SOL     OW28076   1.191   9.740   5.303 -0.1558  0.7582 -0.1270
 8513SOL    HW128077   1.161   9.650   5.288 -0.6471  1.1193 -1.4422
 8513SOL    HW228078   1.119   9.782   5.349  0.0137  0.5230  0.3563
 8514SOL     OW28079   9.802   0.773   6.875  0.3749 -0.8674 -0.4225
 8514SOL    HW128080   9.757   0.812   6.799  1.7999  1.3540 -0.2077
 8514SOL    HW228081   9.893   0.766   6.846  1.2794  1.6654  1.6537
 8515SOL     OW28082   2.595   2.427   6.929  0.2097  0.0104 -0.1150
 8515SOL    HW128083   2.631   2.338   6.920 -0.2367 -0.3004  1.0578
 8515SOL    HW228084   2.526   2.431   6.862  2.3021  0.5761 -2.2927
 8516SOL     OW28085   8.173   6.234   1.954 -0.0600  0.4877  0.0829
 8516SOL    HW128086   8.207   6.149   1.983 -1.1601  0.6392  1.8583
 8516SOL    HW228087   8.249   6.277   1.915  1.2517 -0.1232  1.8824
 8517SOL     OW28088   6.826   3.356   4.238  0.1046  0.2893 -0.2104
 8517SOL    HW128089   6.784   3.271   4.228  0.2860  0.1743 -0.0106
 8517SOL    HW228090   6.842   3.363   4.332 -0.4752  0.8137 -0.1539
 8518SOL     OW28091   2.072   6.168   9.081 -0.1995 -1.1202 -0.5990
 8518SOL    HW128092   2.105   6.199   9.165  2.4100 -1.7884 -1.3234
 8518SOL    HW228093   2.032   6.083   9.102 -1.7250 -0.1905  0.3373
 8519SOL     OW28094   4.371   5.080   6.669 -0.4106  0.2248  0.1556
 8519SOL    HW128095   4.424   5.009   6.633 -3.0894 -0.8652 -1.7750
 8519SOL    HW228096   4.316   5.037   6.735  0.6591  1.2522  1.7603
 8520SOL     OW28097   9.524   2.931   3.109 -0.0574 -0.1109 -0.4612
 8520SOL    HW128098   9.598   2.872   3.126  0.1932  0.1241 -0.7374
 8520SOL    HW228099   9.504   2.970   3.194 -2.8828 -3.6547  0.6539
 8521SOL     OW28100   2.887  10.056   0.420  0.2571  0.3174  0.0504
 8521SOL    HW128101   2.895  10.122   0.489 -1.7020 -0.4332  1.0231
 8521SOL    HW228102   2.911   9.974   0.462 -3.2142 -0.5217  0.5513
 8522SOL     OW28103   5.030  10.091   5.438  0.2811  0.3057  0.7880
 8522SOL    HW128104   5.032  10.187   5.442  0.9942  0.2361  3.4851
 8522SOL    HW228105   5.076  10.069   5.358 -1.2643  2.2420 -0.6942
 8523SOL     OW28106   3.026   7.494   9.419 -0.7491 -0.1297 -0.2480
 8523SOL    HW128107   3.016   7.474   9.512  1.4852  0.8561  0.2420
 8523SOL    HW228108   2.981   7.578   9.408  0.7983  0.8212  0.4367
 8524SOL     OW28109   0.525   5.719   8.206  0.7705  0.3298 -0.3320
 8524SOL    HW128110   0.464   5.717   8.132  0.6491  1.0630 -0.2556
 8524SOL    HW228111   0.509   5.803   8.248  0.3380 -0.4012  0.9690
 8525SOL     OW28112   2.598   7.364   1.640  0.3397  0.0066 -0.5400
 8525SOL    HW128113   2.625   7.275   1.664 -3.2754 -0.8746  0.5992
 8525SOL    HW228114   2.516   7.351   1.592  0.4589  2.6769 -1.5376
 8526SOL     OW28115   1.781   3.037   6.354  0.3744 -0.5938 -0.2957
 8526SOL    HW128116   1.854   2.976   6.345 -0.0603 -1.0634 -0.6358
 8526SOL    HW228117   1.704   2.982   6.363  0.1332 -0.0998  0.7435
 8527SOL     OW28118   1.878   7.357   7.032 -0.3217  0.2629  0.1940
 8527SOL    HW128119   1.822   7.292   6.991  0.6615  0.1944 -1.0690
 8527SOL    HW228120   1.962   7.313   7.044  0.3529  1.2877 -0.6770
 8528SOL     OW28121   3.125   6.166   2.888  0.1510 -0.3336 -0.5862
 8528SOL    HW128122   3.194   6.233   2.880 -0.8767  0.5814 -1.9226
 8528SOL    HW228123   3.156   6.093   2.835  1.5374 -1.1839  1.3112
 8529SOL     OW28124   5.682   2.304   7.519  0.3967 -0.0577  0.1555
 8529SOL    HW128125   5.719   2.351   7.595  0.3642  0.4199 -0.1207
 8529SOL    HW228126   5.755   2.251   7.486  0.9237  1.0799 -0.5453
 8530SOL     OW28127   4.818   5.942   9.069 -0.0223 -0.3831  0.0555
 8530SOL    HW128128   4.887   5.924   9.005 -0.7456  2.0111 -1.4801
 8530SOL    HW228129   4.805   5.859   9.115  1.8951 -1.6235 -1.5588
 8531SOL     OW28130   1.644   6.241   9.716 -0.2749 -0.3477  0.1494
 8531SOL    HW128131   1.624   6.302   9.787 -1.5716  0.2538 -0.7302
 8531SOL    HW228132   1.740   6.233   9.718 -0.1680  0.9982  0.8640
 8532SOL     OW28133   9.298   8.749   1.710 -0.3872 -0.2294  0.0925
 8532SOL    HW128134   9.350   8.802   1.649  0.5562 -0.5807  0.5773
 8532SOL    HW228135   9.207   8.769   1.688 -0.0480  0.3166 -0.8407
 8533SOL     OW28136   3.742   4.609   9.612  0.0698 -0.5775 -0.1663
 8533SOL    HW128137   3.770   4.653   9.692 -0.8551 -0.4370  0.0821
 8533SOL    HW228138   3.824   4.579   9.571  0.5873 -0.0590  0.4842
 8534SOL     OW28139   8.427   4.581   8.862  0.2235  0.1885 -0.2296
 8534SOL    HW128140   8.376   4.517   8.911  0.1420 -0.3049 -0.9697
 8534SOL    HW228141   8.362   4.643   8.829  0.1734 -0.0871 -0.6404
 8535SOL     OW28142   8.959   5.398   0.414 -0.4942 -0.0894  0.3324
 8535SOL    HW128143   8.970   5.458   0.340 -0.7146  0.8294  1.0322
 8535SOL    HW228144   9.020   5.327   0.397  0.1371  0.5868 -0.2544
 8536SOL     OW28145   3.543   1.240   8.273  0.2066  0.4334  0.2378
 8536SOL    HW128146   3.514   1.151   8.292 -2.1217  1.4567  1.6651
 8536SOL    HW228147   3.624   1.250   8.324  0.2967 -0.7357  0.3474
 8537SOL     OW28148   0.720   4.112   9.669 -1.0207  0.2276 -0.3712
 8537SOL    HW128149   0.806   4.083   9.700 -1.5223 -1.3404 -0.4157
 8537SOL    HW228150   0.738   4.192   9.619  0.3746  0.0432 -0.1790
 8538SOL     OW28151   9.969   4.974   3.562  0.0517  0.1688  0.3147
 8538SOL    HW128152  10.006   5.062   3.576 -2.6345  1.4570 -0.3905
 8538SOL    HW228153  10.017   4.918   3.623  1.7903  2.1311  0.8064
 8539SOL     OW28154   9.345   0.955   8.818 -0.5126  0.1134  0.3048
 8539SOL    HW128155   9.263   0.934   8.773 -0.0256  1.3445 -1.2236
 8539SOL    HW228156   9.358   0.883   8.879 -1.6591 -1.1733 -0.9178
 8540SOL     OW28157   9.500   0.116   2.137 -0.5340  0.0442  0.1591
 8540SOL    HW128158   9.435   0.092   2.071 -0.1985 -0.4506  0.0119
 8540SOL    HW228159   9.563   0.045   2.136 -0.2968  0.2436  0.7134
 8541SOL     OW28160   1.434   0.610   0.538 -0.3442 -0.2580  0.5769
 8541SOL    HW128161   1.359   0.667   0.550 -1.8710 -1.7586 -1.4902
 8541SOL    HW228162   1.401   0.536   0.487  2.2605 -1.5378  0.6246
 8542SOL     OW28163   1.582   8.183   0.066  0.1076  0.7926  0.3840
 8542SOL    HW128164   1.656   8.242   0.057 -1.0075  2.1123 -0.3622
 8542SOL    HW228165   1.612   8.115   0.127  1.9150  1.2855  0.0711
 8543SOL     OW28166   8.642   4.037   9.669  0.1033 -0.0102 -0.1037
 8543SOL    HW128167   8.672   3.965   9.614  1.3966  0.6406 -0.2757
 8543SOL    HW228168   8.606   3.995   9.747 -2.1010 -0.9400 -1.6034
 8544SOL     OW28169   9.692   0.946   1.723  0.0761  0.4687 -0.2487
 8544SOL    HW128170   9.771   0.953   1.670 -0.2883  1.0752 -0.7201
 8544SOL    HW228171   9.691   1.026   1.775  0.2641  0.0232  0.4538
 8545SOL     OW28172   6.524  10.072   8.737  0.1839 -0.0032 -0.3939
 8545SOL    HW128173   6.513   9.977   8.742 -0.6326  0.0469 -1.2438
 8545SOL    HW228174   6.613  10.084   8.705 -0.5585 -0.5265 -2.7357
 8546SOL     OW28175   9.251   9.518   7.828 -0.6576 -0.2576  0.0445
 8546SOL    HW128176   9.289   9.604   7.840 -0.0293 -0.6411  0.8332
 8546SOL    HW228177   9.319   9.466   7.785 -1.1470 -0.2780 -0.7282
 8547SOL     OW28178   2.945   4.271   3.915  0.0531 -0.2698 -0.1175
 8547SOL    HW128179   2.867   4.248   3.965  0.7836 -1.0354  0.6603
 8547SOL    HW228180   2.928   4.361   3.885 -1.0716 -0.3903  0.1437
 8548SOL     OW28181   4.464   8.176   9.024 -0.2751  0.2489  0.0785
 8548SOL    HW128182   4.407   8.102   9.044 -2.3207  1.5172 -0.9134
 8548SOL    HW228183   4.494   8.207   9.110 -0.4873 -0.8851  0.5668
 8549SOL     OW28184   4.722   6.342   9.260  0.3365  0.4859 -0.1244
 8549SOL    HW128185   4.758   6.256   9.235 -2.4128 -0.6173 -0.4119
 8549SOL    HW228186   4.785   6.405   9.224  1.3784 -1.3451 -1.6170
 8550SOL     OW28187   9.623   3.383   5.610 -0.3597  0.4452  0.5710
 8550SOL    HW128188   9.668   3.299   5.608  0.8057  0.9636  2.9942
 8550SOL    HW228189   9.670   3.437   5.547  1.0015  0.2738  1.4145
 8551SOL     OW28190   7.398   0.886   3.579  0.2073 -0.2559  0.0932
 8551SOL    HW128191   7.385   0.801   3.621  1.7673 -0.8549 -0.5892
 8551SOL    HW228192   7.340   0.946   3.626  0.2598 -1.3710  1.6025
 8552SOL     OW28193   1.847   9.714   0.523  0.2545 -0.2635  0.5088
 8552SOL    HW128194   1.799   9.651   0.577 -1.9814  0.5207 -0.5198
 8552SOL    HW228195   1.806   9.709   0.437  0.7389  1.8144  0.1158
 8553SOL     OW28196   4.519   1.722   3.072  0.1919 -0.9286  0.2843
 8553SOL    HW128197   4.427   1.733   3.094  0.3857 -1.1209  1.1967
 8553SOL    HW228198   4.536   1.629   3.089  0.7344 -0.7370  0.7994
 8554SOL     OW28199   4.007   5.738   2.885 -0.2177 -0.3287 -0.1660
 8554SOL    HW128200   4.061   5.798   2.833 -1.5849 -0.0474 -1.3260
 8554SOL    HW228201   3.976   5.673   2.821 -0.1928 -1.2241  0.7293
 8555SOL     OW28202   8.937   2.228   1.958 -0.1420  0.3362  0.4645
 8555SOL    HW128203   8.884   2.307   1.950 -0.5389 -0.0181 -0.4454
 8555SOL    HW228204   8.990   2.226   1.879  0.1118 -0.1271  0.6434
 8556SOL     OW28205   1.602   3.108   5.344  0.3555 -0.0967  0.4974
 8556SOL    HW128206   1.599   3.101   5.248  1.5112 -0.4703  0.4744
 8556SOL    HW228207   1.645   3.192   5.360 -1.8195  0.9958  0.7092
 8557SOL     OW28208   3.559   1.183   4.388  0.3781 -0.1033 -0.3577
 8557SOL    HW128209   3.466   1.198   4.405  0.7885  1.8412  0.3267
 8557SOL    HW228210   3.590   1.137   4.466  0.3290  0.7630  0.1871
 8558SOL     OW28211   8.559   0.665   3.891  0.0945 -0.0572  0.7237
 8558SOL    HW128212   8.625   0.730   3.869  0.0342 -0.3827 -0.4341
 8558SOL    HW228213   8.517   0.643   3.808  0.1720 -1.6371  1.0749
 8559SOL     OW28214   3.978   7.952   0.052  0.3514 -0.3003  0.5894
 8559SOL    HW128215   3.972   7.978  -0.040  0.4978  0.6666  0.8481
 8559SOL    HW228216   4.062   7.907   0.059  2.0040  2.6937  0.9794
 8560SOL     OW28217   7.473   7.472   1.190  0.4789 -0.4358 -0.2442
 8560SOL    HW128218   7.471   7.532   1.264 -2.2109  1.3444 -1.6710
 8560SOL    HW228219   7.529   7.400   1.219 -0.1177  0.4295  3.3176
 8561SOL     OW28220   8.102   9.207   8.372  0.7512  0.5435 -0.1381
 8561SOL    HW128221   8.143   9.284   8.332  1.4620  0.9968  1.4446
 8561SOL    HW228222   8.097   9.228   8.465 -3.2222  0.5537 -0.2825
 8562SOL     OW28223   4.050   1.189   5.422  0.7379 -0.6001  0.1594
 8562SOL    HW128224   4.059   1.164   5.330  0.7293  1.8440 -0.5371
 8562SOL    HW228225   4.136   1.173   5.460  0.9381 -0.9638 -0.4436
 8563SOL     OW28226   5.866   2.305   3.440  0.2191  0.1443  0.0215
 8563SOL    HW128227   5.773   2.294   3.463  0.6202  0.0125  1.6182
 8563SOL    HW228228   5.902   2.216   3.445  0.5950  0.3034  0.0829
 8564SOL     OW28229   7.792   4.943   3.786  0.7812  0.4401 -0.3068
 8564SOL    HW128230   7.713   4.989   3.757 -0.2684 -0.9820  0.2559
 8564SOL    HW228231   7.785   4.857   3.745  1.5764 -0.0160  0.5163
 8565SOL     OW28232   6.516   8.991   8.328  0.1772  0.0208 -0.0818
 8565SOL    HW128233   6.565   9.039   8.394 -2.3486  0.1071  1.7997
 8565SOL    HW228234   6.471   9.059   8.277 -1.2575 -0.1967  0.8645
 8566SOL     OW28235   8.937   0.388   2.996 -0.3441  0.1955  0.1742
 8566SOL    HW128236   8.969   0.475   2.973 -0.7121  0.2840  0.0106
 8566SOL    HW228237   8.844   0.389   2.973 -0.3641 -0.2149  0.2429
 8567SOL     OW28238   0.153   5.409   9.176 -0.2226  0.8207 -0.4139
 8567SOL    HW128239   0.097   5.401   9.253  0.4131  1.2782  0.1024
 8567SOL    HW228240   0.120   5.342   9.115 -0.1116 -0.2113  0.6393
 8568SOL     OW28241   4.959   7.379   5.178  0.4643  0.0414 -0.2916
 8568SOL    HW128242   4.953   7.382   5.082 -1.4223 -1.7921 -0.2732
 8568SOL    HW228243   4.889   7.436   5.208  0.6888  0.1688 -0.0097
 8569SOL     OW28244   2.881   0.214   5.641 -0.5699 -0.6160  0.7622
 8569SOL    HW128245   2.871   0.241   5.549  0.4630  0.1291  0.8556
 8569SOL    HW228246   2.948   0.146   5.638 -1.4312 -1.4743  0.8228
 8570SOL     OW28247   0.867   7.935   1.869 -0.2598 -0.6302 -0.1198
 8570SOL    HW128248   0.913   7.852   1.866  0.3117 -0.3583  0.7628
 8570SOL    HW228249   0.821   7.941   1.785 -0.6953 -2.0483  0.0032
 8571SOL     OW28250   0.196   9.248   5.644  0.0366  0.1658  0.0726
 8571SOL    HW128251   0.207   9.197   5.564  0.2268  0.4263 -0.0662
 8571SOL    HW228252   0.155   9.188   5.706 -2.0992  0.5811 -0.8934
 8572SOL     OW28253   9.628   0.404   1.186 -0.3075 -0.1404  0.1328
 8572SOL    HW128254   9.533   0.408   1.177 -0.1710  0.6845 -1.1320
 8572SOL    HW228255   9.660   0.386   1.098  0.5962 -3.3547  1.0598
 8573SOL     OW28256   3.451   7.065   5.860 -0.0151 -0.0077 -0.0747
 8573SOL    HW128257   3.390   7.079   5.787  0.1314 -0.6686 -0.3221
 8573SOL    HW228258   3.525   7.018   5.822  0.9146  1.2694  0.1161
 8574SOL     OW28259   8.324   5.558   6.863 -0.1147 -0.3960 -0.1370
 8574SOL    HW128260   8.321   5.497   6.937 -0.1391 -1.9558 -1.4049
 8574SOL    HW228261   8.416   5.565   6.840 -0.3012 -1.5044 -1.2512
 8575SOL     OW28262   1.171   8.143   4.648 -0.1177 -0.2471 -0.5329
 8575SOL    HW128263   1.207   8.184   4.726 -0.0062 -1.1575 -0.0960
 8575SOL    HW228264   1.080   8.125   4.670 -0.2247 -0.0254 -0.8013
 8576SOL     OW28265   7.918   9.399   0.459 -0.3441 -0.7692 -0.1167
 8576SOL    HW128266   7.972   9.335   0.504 -1.5241 -1.1069  0.8404
 8576SOL    HW228267   7.828   9.371   0.475 -0.9100  1.4038  0.7633
 8577SOL     OW28268   5.036   6.972   9.101 -0.3549  0.3404 -0.0089
 8577SOL    HW128269   5.029   6.909   9.173  0.9857 -1.5572 -1.4974
 8577SOL    HW228270   5.107   7.030   9.127 -0.3874  0.1298  0.5524
 8578SOL     OW28271   7.828   3.701   6.864  0.0752 -0.0969  0.0780
 8578SOL    HW128272   7.878   3.776   6.832  2.2988 -2.3846 -1.9810
 8578SOL    HW228273   7.739   3.715   6.830  0.8746  0.7163 -1.7121
 8579SOL     OW28274   5.014   8.692   3.815 -0.7285 -0.1077 -0.5726
 8579SOL    HW128275   5.076   8.632   3.855 -1.5139 -0.6349 -0.1148
 8579SOL    HW228276   5.025   8.679   3.721 -0.4134 -0.4672 -0.4865
 8580SOL     OW28277   5.244   5.662   4.931  0.7928  0.2491  0.4209
 8580SOL    HW128278   5.274   5.744   4.969 -0.1963 -0.1123  2.0052
 8580SOL    HW228279   5.308   5.597   4.961  0.4908  0.1105  0.7643
 8581SOL     OW28280   1.365   8.534   1.164  0.0084 -0.4237  0.5302
 8581SOL    HW128281   1.363   8.593   1.239 -0.7239  1.2367 -0.7620
 8581SOL    HW228282   1.447   8.486   1.174  0.7224  0.9431  1.5207
 8582SOL     OW28283   4.084   0.699   4.436 -0.6721  0.4839  0.0363
 8582SOL    HW128284   3.992   0.682   4.419  0.1260  1.0992 -6.1335
 8582SOL    HW228285   4.124   0.613   4.445 -1.2948  0.0563 -1.1847
 8583SOL     OW28286   0.018   8.462   8.750 -0.0891  0.0668  0.0223
 8583SOL    HW128287  -0.001   8.373   8.723 -0.1047 -0.8552  2.9335
 8583SOL    HW228288  -0.034   8.476   8.828  0.3190  2.4647 -0.0683
 8584SOL     OW28289   5.252   1.367   7.450 -0.5677 -0.3543  0.1044
 8584SOL    HW128290   5.288   1.353   7.537  0.9217 -0.3330 -0.4799
 8584SOL    HW228291   5.306   1.312   7.393 -1.6288 -0.4995 -0.7861
 8585SOL     OW28292   9.952   7.355   8.107 -0.0276  0.1927  0.0374
 8585SOL    HW128293   9.921   7.446   8.112  0.3379  0.2826  0.6448
 8585SOL    HW228294  10.038   7.362   8.064 -0.1944  0.0862 -0.3192
 8586SOL     OW28295   3.079   3.337   8.063 -0.0232 -0.2742 -0.0222
 8586SOL    HW128296   3.112   3.426   8.048 -1.6443  0.3871  0.2509
 8586SOL    HW228297   3.152   3.291   8.104  0.5228  1.2002  0.7070
 8587SOL     OW28298   9.961   4.765   7.346  0.1210 -0.1093 -0.3932
 8587SOL    HW128299   9.996   4.849   7.373  0.5966 -0.7773  1.1120
 8587SOL    HW228300  10.037   4.714   7.318 -0.2923  0.3526 -2.4488
 8588SOL     OW28301   4.194   5.929   2.404  0.2979  0.2412 -0.0718
 8588SOL    HW128302   4.120   5.988   2.418 -0.2101 -0.4665  0.2530
 8588SOL    HW228303   4.182   5.896   2.315  0.3846  0.3627 -0.1272
 8589SOL     OW28304   4.317   3.472   5.543  0.3603  0.2708 -0.7305
 8589SOL    HW128305   4.286   3.518   5.621  0.0684  0.1230 -0.7563
 8589SOL    HW228306   4.376   3.405   5.577 -0.0760 -0.0554 -0.5957
 8590SOL     OW28307   6.188   5.399  10.174  0.3892  0.5528 -0.0796
 8590SOL    HW128308   6.152   5.347  10.245 -1.2583  0.0793 -1.2337
 8590SOL    HW228309   6.283   5.387  10.181  0.1428 -0.8878  0.9570
 8591SOL     OW28310   8.238   2.166   6.706 -0.4168  0.1826  0.6183
 8591SOL    HW128311   8.151   2.191   6.672 -0.2649  2.0784  1.5409
 8591SOL    HW228312   8.230   2.174   6.801  0.6170 -0.1145  0.7346
 8592SOL     OW28313   1.103   1.677   3.336 -0.6353 -0.2684 -0.0644
 8592SOL    HW128314   1.129   1.749   3.394  1.7748 -0.7160 -0.5479
 8592SOL    HW228315   1.036   1.715   3.279  0.1041  1.4074  0.1553
 8593SOL     OW28316   7.917   6.393   7.235 -0.0744  0.0596  0.3625
 8593SOL    HW128317   7.920   6.298   7.225  1.9200  0.1166  0.2953
 8593SOL    HW228318   7.825   6.416   7.220 -0.2643 -1.6855 -1.3134
 8594SOL     OW28319   6.248   8.617   5.030  0.2389 -0.1204 -0.3117
 8594SOL    HW128320   6.258   8.585   4.941 -1.9588  0.4130 -0.7759
 8594SOL    HW228321   6.200   8.699   5.021  1.4079  0.7577  1.2465
 8595SOL     OW28322   7.987   3.708   7.382  0.5119 -0.5098  0.4699
 8595SOL    HW128323   7.936   3.726   7.461 -1.4705  0.3195 -0.9520
 8595SOL    HW228324   7.933   3.743   7.311  2.7334 -0.3352 -1.1599
 8596SOL     OW28325   8.947   5.070   4.986 -0.6038  0.1453 -0.1241
 8596SOL    HW128326   8.976   5.011   5.056 -1.0036  0.5506  0.3858
 8596SOL    HW228327   8.852   5.058   4.983 -0.7735  1.2650  0.4488
 8597SOL     OW28328   0.105   3.261   8.404  0.1870  0.5551  0.0613
 8597SOL    HW128329   0.075   3.246   8.314  0.1615 -0.2382  0.2024
 8597SOL    HW228330   0.143   3.349   8.401  2.8998 -0.5981 -1.4740
 8598SOL     OW28331   0.860   3.394   8.834 -0.2982 -0.6010  0.2778
 8598SOL    HW128332   0.814   3.473   8.861 -0.0791  0.2591 -1.7761
 8598SOL    HW228333   0.946   3.399   8.876  0.1192  0.8058 -0.7354
 8599SOL     OW28334   0.137   5.419   3.817  0.5137  0.2645  0.3263
 8599SOL    HW128335   0.051   5.461   3.810  0.4928  0.1400 -0.1333
 8599SOL    HW228336   0.160   5.395   3.728  0.9630  0.1651  0.4678
 8600SOL     OW28337   1.735   2.044   0.992 -0.2841 -0.1029  0.4742
 8600SOL    HW128338   1.645   2.077   0.994  1.0039  3.8569 -0.4922
 8600SOL    HW228339   1.742   1.998   0.908 -1.2288  0.1279  0.2620
 8601SOL     OW28340   2.776   9.417   3.893 -0.2226 -0.2323  0.5723
 8601SOL    HW128341   2.864   9.453   3.906 -1.0909  2.2243 -0.0492
 8601SOL    HW228342   2.787   9.351   3.824  0.8576  1.3445 -0.8166
 8602SOL     OW28343   7.096   0.245   9.723 -0.0945 -0.4806 -0.2185
 8602SOL    HW128344   7.118   0.318   9.665  0.1831 -0.7399 -0.4460
 8602SOL    HW228345   7.027   0.279   9.780  1.5608  0.6666  1.1686
 8603SOL     OW28346   9.243   5.315   0.287  0.8197  0.0866  0.6134
 8603SOL    HW128347   9.303   5.373   0.334 -2.1511  1.9084  2.3056
 8603SOL    HW228348   9.217   5.250   0.353  1.8596 -1.4827 -0.4747
 8604SOL     OW28349   1.126   8.620   5.921  0.2363 -0.5769 -0.5797
 8604SOL    HW128350   1.098   8.533   5.893 -1.9247 -0.0658 -0.0879
 8604SOL    HW228351   1.064   8.645   5.989  0.8994  1.3094 -0.6235
 8605SOL     OW28352   3.139   9.879   3.564  0.0116 -0.1082  0.6073
 8605SOL    HW128353   3.208   9.944   3.578 -0.5327  0.3296  1.3288
 8605SOL    HW228354   3.130   9.873   3.469 -0.4596  1.4680  0.5331
 8606SOL     OW28355   5.411   5.278   8.888 -0.5077  0.3760  0.2089
 8606SOL    HW128356   5.369   5.297   8.972 -0.5277  0.2556  0.2262
 8606SOL    HW228357   5.347   5.304   8.822 -0.3180  0.8842  0.2240
 8607SOL     OW28358   7.674   8.831   6.259  0.4735  0.1247  0.1422
 8607SOL    HW128359   7.655   8.822   6.352 -0.1468 -0.9904 -0.0865
 8607SOL    HW228360   7.640   8.750   6.219 -0.7814  1.3238 -1.2880
 8608SOL     OW28361   0.345   7.838   3.268  0.1822 -0.3083 -0.0785
 8608SOL    HW128362   0.421   7.877   3.226 -0.6103  2.1485  0.6815
 8608SOL    HW228363   0.381   7.778   3.333  1.5068  1.1624  0.5736
 8609SOL     OW28364   3.834   0.495   6.383  0.0420 -0.4272  0.2595
 8609SOL    HW128365   3.828   0.562   6.314  1.1355 -0.6329 -0.0517
 8609SOL    HW228366   3.747   0.457   6.387 -0.4315  0.6186  0.0243
 8610SOL     OW28367   9.239   3.596   8.978  0.5655 -0.5793 -0.1696
 8610SOL    HW128368   9.228   3.507   9.011 -1.8501 -0.2592 -0.0769
 8610SOL    HW228369   9.251   3.649   9.058 -0.2213 -0.5187 -0.0874
 8611SOL     OW28370   5.549   6.697   6.679 -0.4422 -0.0852  0.2299
 8611SOL    HW128371   5.544   6.635   6.607  1.9970 -0.9950  0.7712
 8611SOL    HW228372   5.577   6.643   6.754  1.1957  1.5407  0.8240
 8612SOL     OW28373   2.893   5.486   3.493 -0.3016  0.1003  0.5371
 8612SOL    HW128374   2.906   5.433   3.571  1.2628  0.7030  0.7099
 8612SOL    HW228375   2.970   5.467   3.439 -1.4673 -0.4802 -0.9659
 8613SOL     OW28376   0.430  10.035   2.201 -0.6173 -0.5122  0.0009
 8613SOL    HW128377   0.398  10.125   2.212 -0.3619 -0.1375 -2.0739
 8613SOL    HW228378   0.480  10.017   2.280 -3.4788 -0.0504  2.0045
 8614SOL     OW28379   1.792   7.911   5.784  0.5163 -0.1742 -0.0277
 8614SOL    HW128380   1.776   7.860   5.705  2.1640 -0.4808 -0.1926
 8614SOL    HW228381   1.860   7.862   5.831  1.6299  1.4792  0.1419
 8615SOL     OW28382   8.872   1.616   0.699  0.0319  0.8052 -0.4284
 8615SOL    HW128383   8.817   1.678   0.651  0.0180  0.2421 -1.1455
 8615SOL    HW228384   8.880   1.541   0.640 -0.0965  0.0514  0.5050
 8616SOL     OW28385   2.966   1.753   5.599  0.1139 -0.2681  0.1429
 8616SOL    HW128386   3.013   1.833   5.623 -1.2407  0.7756 -0.6422
 8616SOL    HW228387   2.910   1.735   5.675  0.1174 -0.2242  0.1565
 8617SOL     OW28388   7.499   6.339   5.776  0.4417 -0.2213  0.1535
 8617SOL    HW128389   7.495   6.271   5.708 -0.6037 -0.0925  0.0722
 8617SOL    HW228390   7.592   6.357   5.787  0.6472 -0.5767 -0.9267
 8618SOL     OW28391   8.927   2.696   5.853 -0.0901 -0.0426  0.8130
 8618SOL    HW128392   8.854   2.637   5.866 -0.5651  0.3970  0.1876
 8618SOL    HW228393   8.998   2.640   5.822 -1.4246  0.1137 -2.7238
 8619SOL     OW28394   7.465   5.228   8.970  0.8417 -0.1829 -0.0143
 8619SOL    HW128395   7.531   5.163   8.944  0.9227  0.1705 -0.7131
 8619SOL    HW228396   7.513   5.310   8.976  0.3068  0.2573 -1.4393
 8620SOL     OW28397  10.022   0.905   9.847  0.0548 -0.0773  0.4491
 8620SOL    HW128398  10.105   0.930   9.887  0.0593  0.3763  0.1603
 8620SOL    HW228399  10.035   0.814   9.819  1.1733  0.6546 -1.4975
 8621SOL     OW28400   5.762   5.704   1.896  0.3117 -1.0565 -0.2582
 8621SOL    HW128401   5.683   5.751   1.869  1.0018  1.1027  1.3188
 8621SOL    HW228402   5.747   5.682   1.988  0.7785 -2.3134 -0.4698
 8622SOL     OW28403   4.468   3.309   6.602  0.1029 -0.1642 -0.5288
 8622SOL    HW128404   4.486   3.291   6.694 -0.5050  1.3545 -0.0915
 8622SOL    HW228405   4.372   3.309   6.596  0.1418 -0.2307 -1.1551
 8623SOL     OW28406   6.085   8.830   9.048  0.3590  0.5609 -0.3943
 8623SOL    HW128407   6.166   8.804   9.005 -0.8950 -0.1433 -2.4186
 8623SOL    HW228408   6.016   8.793   8.993 -1.3907  3.3990 -0.2040
 8624SOL     OW28409   3.111   9.580   3.403 -0.1023  0.3144  0.2049
 8624SOL    HW128410   3.107   9.668   3.365 -1.1557 -0.6817 -2.0894
 8624SOL    HW228411   3.169   9.531   3.345  0.4321 -0.5379  1.4318
 8625SOL     OW28412   8.916   6.104   4.614  0.0767  0.3950  0.2828
 8625SOL    HW128413   8.851   6.067   4.674  0.4897 -0.1463  0.4023
 8625SOL    HW228414   8.967   6.165   4.668 -0.2575  0.7292  0.2175
 8626SOL     OW28415   8.159   4.503   4.972  0.2679 -0.1478 -0.2354
 8626SOL    HW128416   8.165   4.583   4.921  1.8017  0.2479  0.5424
 8626SOL    HW228417   8.160   4.533   5.063 -0.9856 -0.9381  0.0540
 8627SOL     OW28418   8.694   1.810   4.058  0.1949 -0.2502 -0.0419
 8627SOL    HW128419   8.779   1.845   4.083  0.6476 -0.5380 -1.1368
 8627SOL    HW228420   8.673   1.747   4.126  0.8347 -0.1333  0.2684
 8628SOL     OW28421   1.060   0.953   4.318 -0.0113 -0.7872  0.3893
 8628SOL    HW128422   1.011   0.913   4.246 -0.4648 -0.0015  0.2538
 8628SOL    HW228423   1.048   1.048   4.306 -1.1075 -0.6690  2.1972
 8629SOL     OW28424   7.456   7.548   8.111 -0.0971  0.6488  0.1731
 8629SOL    HW128425   7.482   7.595   8.190 -2.2333  2.0702  0.0771
 8629SOL    HW228426   7.377   7.594   8.080 -1.5844 -2.2627 -0.5734
 8630SOL     OW28427   1.763   4.391   6.357  0.3303 -0.0993  0.4630
 8630SOL    HW128428   1.705   4.464   6.336  0.4280  0.3113  1.6331
 8630SOL    HW228429   1.842   4.432   6.392  0.4836 -0.7550  0.8901
 8631SOL     OW28430   6.479  10.081   9.736 -0.3487 -0.0737 -0.2443
 8631SOL    HW128431   6.443  10.167   9.759 -0.3243 -0.0701 -0.2233
 8631SOL    HW228432   6.488  10.036   9.820 -1.4020 -0.4987 -0.3519
 8632SOL     OW28433   4.465   1.708   0.162  0.0217 -0.1769  0.0734
 8632SOL    HW128434   4.498   1.791   0.127 -1.5521  0.3801 -0.1168
 8632SOL    HW228435   4.533   1.644   0.140  2.0393  1.3545  1.6895
 8633SOL     OW28436   1.638   2.166   5.796 -0.1254 -0.0025 -0.5529
 8633SOL    HW128437   1.572   2.143   5.730 -0.6481 -0.9316  0.2927
 8633SOL    HW228438   1.652   2.260   5.784  0.2331 -0.2701 -2.4000
 8634SOL     OW28439   1.747   6.328   0.703 -1.1774 -0.2607  0.0717
 8634SOL    HW128440   1.670   6.271   0.715  0.7412 -3.8201 -3.1996
 8634SOL    HW228441   1.724   6.382   0.627 -1.4723  0.6416  0.7914
 8635SOL     OW28442   3.644   4.117   3.578  0.0671 -0.4475 -0.5106
 8635SOL    HW128443   3.653   4.077   3.491  0.7381  1.4844 -1.3494
 8635SOL    HW228444   3.711   4.073   3.630  2.3219  1.1084 -2.0136
 8636SOL     OW28445   9.445   5.664   0.080 -0.3796 -0.2432 -0.7026
 8636SOL    HW128446   9.482   5.667  -0.008 -1.9347 -1.9547 -1.4392
 8636SOL    HW228447   9.441   5.755   0.108 -0.1110  0.3306 -2.5012
 8637SOL     OW28448   9.367   8.774   1.001 -0.3600 -0.7518  0.3069
 8637SOL    HW128449   9.454   8.814   1.009 -0.5145 -0.4065  0.2636
 8637SOL    HW228450   9.318   8.809   1.076 -0.8944  0.1563 -0.4618
 8638SOL     OW28451   9.416   0.035   8.147  0.4705  0.1423  0.3599
 8638SOL    HW128452   9.454  -0.023   8.212 -0.2416 -0.4739  0.2349
 8638SOL    HW228453   9.454   0.121   8.166  0.3330 -0.0525  1.5299
 8639SOL     OW28454   8.748   6.457   3.505  0.1553 -0.2989  0.0272
 8639SOL    HW128455   8.661   6.429   3.476 -0.4156  0.6797  0.7274
 8639SOL    HW228456   8.731   6.535   3.559  1.5127  0.2349 -0.2832
 8640SOL     OW28457   8.550   4.148   3.854 -0.0055  0.1908  0.9395
 8640SOL    HW128458   8.579   4.114   3.770  0.5877 -1.3476  1.7452
 8640SOL    HW228459   8.466   4.105   3.870  0.2741 -0.1500  1.5049
 8641SOL     OW28460   9.194   7.121   1.915  0.3194  0.2425  0.3349
 8641SOL    HW128461   9.146   7.062   1.856  0.3106 -0.9759  1.5479
 8641SOL    HW228462   9.264   7.067   1.951  1.0542  1.3142  0.5331
 8642SOL     OW28463   6.198   6.325   0.859  0.0818 -0.3993 -0.9564
 8642SOL    HW128464   6.277   6.341   0.910 -0.4294  0.5622 -0.4666
 8642SOL    HW228465   6.184   6.230   0.865 -0.1004 -0.2710  0.8544
 8643SOL     OW28466   0.909   1.478   7.873  0.1702  0.4348 -0.0941
 8643SOL    HW128467   0.975   1.474   7.805  0.2147 -0.1336 -0.0142
 8643SOL    HW228468   0.958   1.478   7.955  0.1086  0.9168 -0.0541
 8644SOL     OW28469   2.661   5.247   2.269  0.0269 -0.3895  0.4045
 8644SOL    HW128470   2.706   5.232   2.352 -1.4519  0.1063  1.3046
 8644SOL    HW228471   2.676   5.166   2.220  1.3990 -0.4628  0.9088
 8645SOL     OW28472   7.529   9.613   9.453 -0.8111  0.1924 -0.2417
 8645SOL    HW128473   7.490   9.654   9.530 -1.1126 -0.2618 -0.1495
 8645SOL    HW228474   7.460   9.556   9.420  0.6183 -2.5828  1.4166
 8646SOL     OW28475   5.791   4.078   2.986 -0.0953  0.4890 -0.3412
 8646SOL    HW128476   5.804   3.983   2.982  1.7804  0.6325  1.5863
 8646SOL    HW228477   5.696   4.089   2.975 -0.8336 -1.8607  2.8600
 8647SOL     OW28478   9.157   1.382   8.939  0.4585 -0.5890  0.6477
 8647SOL    HW128479   9.071   1.417   8.915  0.8099 -0.2173 -0.0926
 8647SOL    HW228480   9.145   1.287   8.935  0.7778 -0.5661 -2.1328
 8648SOL     OW28481   7.173   8.959   6.431 -0.2361  0.2263 -0.1488
 8648SOL    HW128482   7.229   8.898   6.480 -1.3022  0.1540  0.9908
 8648SOL    HW228483   7.228   8.987   6.357  1.7792  1.1384  1.6383
 8649SOL     OW28484   6.278   1.421   0.001  0.9169 -0.3797 -0.0464
 8649SOL    HW128485   6.254   1.422  -0.091  0.6665 -1.1138  0.0095
 8649SOL    HW228486   6.370   1.449   0.002  0.7545  0.1866 -0.4599
 8650SOL     OW28487   1.576   0.522   2.370  0.2363  0.3260 -0.1029
 8650SOL    HW128488   1.567   0.494   2.279  0.6734  0.5900 -0.2321
 8650SOL    HW228489   1.584   0.441   2.420 -0.0457  0.1788 -0.2964
 8651SOL     OW28490   8.704   0.919   9.117 -0.0681 -0.1567  0.3979
 8651SOL    HW128491   8.757   0.990   9.153  0.0062  0.0040 -0.0342
 8651SOL    HW228492   8.648   0.892   9.190 -0.2445  0.4874  0.5004
 8652SOL     OW28493   6.445   6.795   8.593  0.1768  0.4608  0.0001
 8652SOL    HW128494   6.447   6.832   8.505  1.8334  1.5956  0.4859
 8652SOL    HW228495   6.486   6.709   8.584 -2.1591 -0.5995 -0.8249
 8653SOL     OW28496   0.520   6.542   2.766  0.9152 -0.1403  0.1270
 8653SOL    HW128497   0.526   6.453   2.803  1.1660 -0.4089 -0.5581
 8653SOL    HW228498   0.608   6.560   2.733  0.4114 -0.3544 -1.3747
 8654SOL     OW28499   4.285   2.422   6.565  0.1493  0.0425 -0.1117
 8654SOL    HW128500   4.260   2.510   6.536  0.8152  0.1777 -0.2832
 8654SOL    HW228501   4.280   2.426   6.661  1.2246  0.5913 -0.0698
 8655SOL     OW28502   6.434   9.162   4.359 -0.0189  0.1110  0.0427
 8655SOL    HW128503   6.358   9.165   4.416  0.8497 -0.6068  1.2705
 8655SOL    HW228504   6.404   9.116   4.281 -0.5545 -1.1519  0.9786
 8656SOL     OW28505   9.230   4.079   8.635 -0.1468  0.4454  0.5226
 8656SOL    HW128506   9.293   4.072   8.563 -0.4799  0.5973  0.2192
 8656SOL    HW228507   9.216   3.988   8.662 -0.8225  0.2957 -0.2965
 8657SOL     OW28508   7.516   4.506   1.371 -0.4344  0.2985 -0.4141
 8657SOL    HW128509   7.488   4.481   1.459 -0.5598  0.2333 -0.4721
 8657SOL    HW228510   7.611   4.517   1.378 -0.3860 -0.1434 -0.3751
 8658SOL     OW28511   4.101   4.478   2.891  0.6743  0.0160  0.8006
 8658SOL    HW128512   4.070   4.412   2.829 -1.3690  1.2287  0.4826
 8658SOL    HW228513   4.095   4.435   2.977  0.6162 -0.6464  0.4691
 8659SOL     OW28514   8.840   2.591   8.256  0.1739  0.6310  0.4029
 8659SOL    HW128515   8.931   2.602   8.284  0.1202 -0.2124  0.9355
 8659SOL    HW228516   8.845   2.582   8.161  0.5985  1.0750  0.3815
 8660SOL     OW28517   5.503   0.660   5.740  0.0329  0.4753  0.1587
 8660SOL    HW128518   5.549   0.654   5.656  0.1381  0.2830  0.2284
 8660SOL    HW228519   5.489   0.754   5.754  3.5913  0.8410  1.8466
 8661SOL     OW28520   9.888   6.382   1.905 -0.1987  0.2848  0.1887
 8661SOL    HW128521   9.800   6.360   1.933 -0.2952  0.1936 -0.1882
 8661SOL    HW228522   9.889   6.478   1.903 -1.1054  0.2769 -2.3783
 8662SOL     OW28523   5.409   6.753   4.990 -0.0285  0.0112  0.0632
 8662SOL    HW128524   5.393   6.728   4.899 -2.3349 -0.9366  0.6936
 8662SOL    HW228525   5.479   6.818   4.985 -0.8969  0.8265 -2.4915
 8663SOL     OW28526   7.186   0.009   1.203 -0.3521  0.2620 -0.3263
 8663SOL    HW128527   7.180  -0.084   1.223  0.5194  0.0073 -1.1810
 8663SOL    HW228528   7.268   0.017   1.153 -1.4600  1.1563 -2.0644
 8664SOL     OW28529   7.505   3.155   9.215  0.0477 -0.4282  0.0789
 8664SOL    HW128530   7.509   3.249   9.233 -2.2606  0.0288 -1.6411
 8664SOL    HW228531   7.596   3.131   9.194  0.7780  1.2505  1.2596
 8665SOL     OW28532   4.578   7.596   0.143  0.0130 -0.1949  0.3359
 8665SOL    HW128533   4.508   7.532   0.140  0.2034 -0.3313 -1.7435
 8665SOL    HW228534   4.579   7.635   0.056  1.1250  1.3077  0.9986
 8666SOL     OW28535   1.952   0.818   3.456 -0.1699  0.2353 -0.3791
 8666SOL    HW128536   1.956   0.877   3.381  0.4833  0.7629  0.0631
 8666SOL    HW228537   1.978   0.873   3.531 -0.1373 -0.4608  0.1217
 8667SOL     OW28538   6.473   3.203   0.748 -0.0103 -0.1425 -0.3733
 8667SOL    HW128539   6.429   3.126   0.711 -2.4897  0.3076  1.5216
 8667SOL    HW228540   6.524   3.168   0.822 -1.3485  0.0485  0.6531
 8668SOL     OW28541   2.699   5.430   2.828 -0.0549 -0.0385  0.5889
 8668SOL    HW128542   2.630   5.375   2.867 -0.6053  0.4379  0.2938
 8668SOL    HW228543   2.670   5.519   2.845 -0.1180  0.1756 -0.5858
 8669SOL     OW28544   1.912   2.605   4.647 -0.3440  0.0039  0.0522
 8669SOL    HW128545   1.927   2.510   4.651 -2.4370 -0.3122  2.1847
 8669SOL    HW228546   1.847   2.616   4.578  1.1060  0.1029 -1.3269
 8670SOL     OW28547   4.858   6.138   7.527 -0.1704  0.2449 -0.2726
 8670SOL    HW128548   4.823   6.053   7.553  2.2301 -2.1092 -4.0925
 8670SOL    HW228549   4.949   6.136   7.556  0.7221  0.2212 -2.9475
 8671SOL     OW28550   2.375   4.132   2.755  0.1216  0.2843  0.0946
 8671SOL    HW128551   2.469   4.149   2.756  0.1542  0.2100 -0.9863
 8671SOL    HW228552   2.336   4.211   2.719 -0.2408  0.3539  0.6314
 8672SOL     OW28553   3.379   9.186   4.938  0.0321  0.3998  0.1219
 8672SOL    HW128554   3.284   9.182   4.951  0.1376  0.8118  1.0812
 8672SOL    HW228555   3.395   9.136   4.858 -1.0292  0.5932 -0.2159
 8673SOL     OW28556  10.161   7.144   4.193 -0.4554  0.2085  0.0717
 8673SOL    HW128557  10.226   7.205   4.159 -0.1766  0.2411  0.6545
 8673SOL    HW228558  10.157   7.074   4.128  0.7862 -0.2193  0.4468
 8674SOL     OW28559   2.194   0.610   6.407 -0.0911 -0.6096 -0.7117
 8674SOL    HW128560   2.099   0.613   6.397 -0.0856 -0.1767 -0.6621
 8674SOL    HW228561   2.227   0.616   6.318 -0.1084 -0.5940 -0.7170
 8675SOL     OW28562   0.684   8.054   5.730 -0.5137 -0.1420 -0.2131
 8675SOL    HW128563   0.686   8.005   5.812 -0.0992  1.4349  0.7358
 8675SOL    HW228564   0.605   8.023   5.686  0.0272 -2.0395  0.1111
 8676SOL     OW28565  10.172   5.802  10.072 -0.2853 -0.2432  0.0103
 8676SOL    HW128566  10.252   5.845  10.100  0.0715  0.1903 -1.6644
 8676SOL    HW228567  10.155   5.837   9.985 -0.4191 -2.9036 -1.0578
 8677SOL     OW28568   6.328   5.922   1.502  0.1698 -0.5146 -0.4754
 8677SOL    HW128569   6.360   5.966   1.580  1.2976 -1.6069 -0.3020
 8677SOL    HW228570   6.407   5.906   1.449 -0.4318 -0.7852 -1.3080
 8678SOL     OW28571   4.114   2.600   0.901  0.2149  0.2754 -0.5722
 8678SOL    HW128572   4.031   2.562   0.875 -0.0687  0.3997  0.1385
 8678SOL    HW228573   4.142   2.651   0.824 -0.1587 -0.0981 -0.9586
 8679SOL     OW28574   8.201   2.757   7.807 -0.3427  0.1273 -0.0328
 8679SOL    HW128575   8.241   2.673   7.785 -3.1329 -0.8824 -1.4428
 8679SOL    HW228576   8.109   2.747   7.782 -1.2060  2.8200  1.9126
 8680SOL     OW28577   9.128   8.018   4.155 -0.2711  0.1420 -0.5198
 8680SOL    HW128578   9.179   8.064   4.088  0.0329  0.7064  0.0979
 8680SOL    HW228579   9.053   8.076   4.171  1.3704  1.6611  2.0419
 8681SOL     OW28580   3.048   4.241   6.113  0.4523  0.1559  0.0148
 8681SOL    HW128581   2.965   4.197   6.096  0.6811 -0.4933  0.5486
 8681SOL    HW228582   3.100   4.226   6.034 -0.2313  1.2639 -0.6527
 8682SOL     OW28583   7.106   7.823   5.514 -0.1928 -0.4681  0.1727
 8682SOL    HW128584   7.027   7.771   5.505  0.5440 -1.7673  1.1357
 8682SOL    HW228585   7.160   7.798   5.439 -0.3322 -0.1887 -0.0243
 8683SOL     OW28586   1.455   5.549   7.043 -0.6567 -0.8142  0.3481
 8683SOL    HW128587   1.450   5.465   7.088  0.2710 -0.0158  1.9821
 8683SOL    HW228588   1.546   5.577   7.053 -0.4905 -0.4765 -1.8056
 8684SOL     OW28589   6.658   7.435   4.420 -0.0542  0.1056  0.1624
 8684SOL    HW128590   6.676   7.344   4.395  1.5596  0.4860 -0.1772
 8684SOL    HW228591   6.611   7.472   4.345  1.0839  0.0927 -0.5758
 8685SOL     OW28592   1.230   9.728   8.635 -0.0394  0.1909  0.7354
 8685SOL    HW128593   1.255   9.636   8.620  2.1889  0.8746  0.0567
 8685SOL    HW228594   1.307   9.767   8.676  0.3321  2.5666 -2.0472
 8686SOL     OW28595   2.533   9.195   1.246  0.6332 -0.9106 -0.2726
 8686SOL    HW128596   2.570   9.107   1.256  1.8560 -0.6201 -2.0445
 8686SOL    HW228597   2.489   9.193   1.162  1.0204  0.3010 -0.5163
 8687SOL     OW28598   0.945   3.687   5.341  0.2502  0.5303  0.0921
 8687SOL    HW128599   1.000   3.648   5.274  0.3381  1.6390 -0.4887
 8687SOL    HW228600   0.938   3.620   5.409 -1.0362 -1.1695 -1.6647
 8688SOL     OW28601   4.652   5.769   5.815 -0.4434 -0.5960 -0.3728
 8688SOL    HW128602   4.627   5.715   5.890 -0.8206  0.7179  0.4593
 8688SOL    HW228603   4.579   5.762   5.755 -0.2480 -1.4586 -0.5147
 8689SOL     OW28604   9.142   8.302   1.105  0.3752  0.4863  0.2570
 8689SOL    HW128605   9.085   8.240   1.150  0.6364  1.6678  2.2913
 8689SOL    HW228606   9.223   8.301   1.155  1.3533  0.4745 -1.3006
 8690SOL     OW28607   8.385   3.416   7.163  0.0105  0.0146  0.5113
 8690SOL    HW128608   8.342   3.345   7.211 -0.4488 -0.6576 -0.8412
 8690SOL    HW228609   8.350   3.496   7.202 -0.9839 -0.5262  0.7610
 8691SOL     OW28610   2.686   3.150   5.359  0.0911 -0.3302  0.0204
 8691SOL    HW128611   2.770   3.171   5.320 -0.4490 -1.3759 -1.7567
 8691SOL    HW228612   2.623   3.203   5.310 -0.5018 -1.0420  0.0050
 8692SOL     OW28613   1.451   4.294   6.556  0.1043 -0.4948  0.3725
 8692SOL    HW128614   1.452   4.386   6.531 -0.6024 -0.0384  1.9900
 8692SOL    HW228615   1.447   4.295   6.651  1.8199 -2.2039  0.5006
 8693SOL     OW28616   0.089   0.279   9.141 -0.5175  0.6990  0.7877
 8693SOL    HW128617   0.095   0.366   9.182 -0.6997  2.2219 -2.2745
 8693SOL    HW228618   0.154   0.281   9.071 -3.5185  0.0139 -2.1484
 8694SOL     OW28619   0.286   2.011   7.227 -0.2273  0.0552  0.2929
 8694SOL    HW128620   0.327   1.949   7.288  0.4958  0.2129 -0.0206
 8694SOL    HW228621   0.273   1.960   7.147 -0.2811  0.1135  0.2653
 8695SOL     OW28622   0.164   2.446   2.403 -0.2287  0.9162 -0.4646
 8695SOL    HW128623   0.096   2.511   2.419  0.3321  1.2786  0.5501
 8695SOL    HW228624   0.134   2.397   2.327 -1.7421  0.8948  0.1470
 8696SOL     OW28625   8.344   9.447   4.159  0.8409  0.2698 -0.3821
 8696SOL    HW128626   8.376   9.497   4.084 -2.9422  2.9727 -0.3375
 8696SOL    HW228627   8.344   9.510   4.231 -2.4949 -0.1615  0.0746
 8697SOL     OW28628   9.918   0.929   6.059 -0.1554 -0.1218 -0.2852
 8697SOL    HW128629   9.975   0.893   5.991  0.9350  0.4837  0.2861
 8697SOL    HW228630   9.836   0.949   6.014  1.1201  1.8655 -1.8112
 8698SOL     OW28631   6.672   3.896   6.703  0.4258  0.2171 -0.2989
 8698SOL    HW128632   6.704   3.980   6.671  0.8867  0.5423  0.9902
 8698SOL    HW228633   6.638   3.914   6.791  2.4497 -1.3232  0.8442
 8699SOL     OW28634   4.202   8.656   5.956  0.3594 -0.1166  0.2414
 8699SOL    HW128635   4.224   8.575   6.001 -0.5743 -0.6149 -0.1843
 8699SOL    HW228636   4.178   8.629   5.867 -1.2555  0.4561  0.4688
 8700SOL     OW28637   7.722   7.003   9.242  0.0899 -0.1734 -0.1462
 8700SOL    HW128638   7.696   7.042   9.326  3.3539  0.7067  0.4969
 8700SOL    HW228639   7.771   6.924   9.267 -1.0623 -1.2973 -1.3274
 8701SOL     OW28640   5.927   0.236   3.123 -0.5258 -0.0180  0.4327
 8701SOL    HW128641   5.922   0.161   3.063 -0.3721  0.6107 -0.3724
 8701SOL    HW228642   5.849   0.228   3.178 -0.5435 -0.7347  0.3065
 8702SOL     OW28643   0.703   2.641   2.545  0.5614 -0.0895 -0.5094
 8702SOL    HW128644   0.631   2.587   2.515  0.2836  0.1458 -0.2681
 8702SOL    HW228645   0.714   2.707   2.477  0.0632  0.3225 -0.1930
 8703SOL     OW28646   6.561   4.073   5.748 -0.4967  0.4111 -0.1866
 8703SOL    HW128647   6.619   4.087   5.823  1.0148  3.9013 -1.8802
 8703SOL    HW228648   6.620   4.054   5.675 -1.7734 -0.3886 -1.0219
 8704SOL     OW28649   9.819   8.850   0.696 -0.2516  0.0032  0.2843
 8704SOL    HW128650   9.854   8.898   0.621 -1.1069 -0.1624 -0.2335
 8704SOL    HW228651   9.724   8.853   0.684 -0.3450 -1.1787  0.6450
 8705SOL     OW28652   5.120   4.913   5.826  0.2253 -0.3292 -0.2568
 8705SOL    HW128653   5.107   5.006   5.807 -0.4799 -0.6003 -1.1094
 8705SOL    HW228654   5.159   4.878   5.746 -0.1182 -0.9023 -0.1701
 8706SOL     OW28655   0.237   6.029   3.019 -0.1493 -0.3650 -0.6885
 8706SOL    HW128656   0.327   6.060   3.004 -0.4535  0.7601 -0.2191
 8706SOL    HW228657   0.215   5.980   2.940  0.3751  0.5397 -1.4045
 8707SOL     OW28658   4.287  10.147   5.324 -0.0406  0.2958 -0.5442
 8707SOL    HW128659   4.193  10.156   5.342  0.2941  2.3224  0.3263
 8707SOL    HW228660   4.323  10.112   5.405  0.0020 -0.2845 -0.8092
 8708SOL     OW28661   3.156   2.360   2.698  0.1517 -0.5052  0.3797
 8708SOL    HW128662   3.135   2.438   2.648  1.1867 -1.7595 -2.0640
 8708SOL    HW228663   3.192   2.393   2.781 -0.8665  1.5761  0.0091
 8709SOL     OW28664   5.050   8.718   5.030  0.2192 -0.0863 -0.2507
 8709SOL    HW128665   5.062   8.652   4.961  1.5483 -0.2333  0.1106
 8709SOL    HW228666   5.137   8.755   5.043 -0.4860  1.6398 -0.3215
 8710SOL     OW28667   6.836   7.169   0.411  0.2988 -0.1084 -0.2133
 8710SOL    HW128668   6.800   7.184   0.324  0.6351 -1.8155 -0.6607
 8710SOL    HW228669   6.927   7.201   0.405  0.5297 -0.8559 -0.6857
 8711SOL     OW28670   8.161   3.203   7.508 -0.3243 -0.7391  0.3512
 8711SOL    HW128671   8.113   3.167   7.582  0.9274 -2.0766  0.5423
 8711SOL    HW228672   8.246   3.158   7.510  0.6805  1.0483 -0.3779
 8712SOL     OW28673   1.285   4.105   5.538 -0.0944 -0.2959 -0.0509
 8712SOL    HW128674   1.241   4.189   5.545 -0.8734 -0.6808 -0.2625
 8712SOL    HW228675   1.215   4.040   5.549  0.6094 -0.9159  0.8817
 8713SOL     OW28676   0.392   8.206   6.444  0.1472  0.5084  0.2357
 8713SOL    HW128677   0.316   8.210   6.385  0.6017 -0.7783 -0.4581
 8713SOL    HW228678   0.424   8.295   6.447 -1.9419  1.2613  1.2533
 8714SOL     OW28679   7.345   5.500   1.009  0.1589  0.1624  0.0953
 8714SOL    HW128680   7.371   5.591   0.991 -0.3731  0.4443  0.7395
 8714SOL    HW228681   7.402   5.473   1.080 -1.1776  0.7238  1.3924
 8715SOL     OW28682   0.878   3.587   3.250  0.2388 -0.3515  0.1346
 8715SOL    HW128683   0.818   3.655   3.279 -1.3144 -1.1106 -1.2725
 8715SOL    HW228684   0.962   3.632   3.241 -0.8716  1.4868 -1.2645
 8716SOL     OW28685   9.671   6.824  10.096  0.0816 -0.8707  0.0187
 8716SOL    HW128686   9.634   6.781  10.173  1.1036 -0.6132  0.6610
 8716SOL    HW228687   9.634   6.912  10.097  0.4999 -0.6974  0.5168
 8717SOL     OW28688   9.984   2.312   7.979  0.5743 -0.2720  0.3329
 8717SOL    HW128689  10.060   2.284   8.030  2.1304  0.6429 -1.4180
 8717SOL    HW228690   9.999   2.276   7.892 -1.6398 -1.1251  0.2830
 8718SOL     OW28691   3.180   3.011   2.612  0.3147  0.0037 -0.7326
 8718SOL    HW128692   3.175   3.106   2.601  0.1227  0.0495 -0.2463
 8718SOL    HW228693   3.104   2.977   2.564 -0.0252  0.1447 -0.2986
 8719SOL     OW28694   9.332   7.000   2.589 -0.0059  0.5390  0.3471
 8719SOL    HW128695   9.326   7.071   2.524  1.3516  1.3131  1.0401
 8719SOL    HW228696   9.340   6.920   2.536  0.7941  1.1347 -0.4510
 8720SOL     OW28697   1.531   9.782   1.890 -0.5690 -0.2146  0.3027
 8720SOL    HW128698   1.567   9.752   1.806 -1.4887 -1.2351  0.2628
 8720SOL    HW228699   1.449   9.734   1.899 -1.4475  1.3471  0.8648
 8721SOL     OW28700   2.897   0.913   0.055 -0.1741 -0.0079 -0.1848
 8721SOL    HW128701   2.825   0.895   0.116 -1.3869 -0.5343 -1.7464
 8721SOL    HW228702   2.869   0.874  -0.028  2.0749 -0.5051 -0.7338
 8722SOL     OW28703   9.114   8.465   8.895  0.3497 -0.5482 -0.4330
 8722SOL    HW128704   9.104   8.559   8.882  0.0924 -0.7078 -1.3688
 8722SOL    HW228705   9.181   8.438   8.833  0.1505 -1.0520 -0.4366
 8723SOL     OW28706   0.177   8.132   4.500 -0.0978  0.1207 -0.6190
 8723SOL    HW128707   0.086   8.102   4.504 -0.2075  0.3415 -1.3757
 8723SOL    HW228708   0.227   8.062   4.543 -0.6394  0.0861 -0.0371
 8724SOL     OW28709   5.205   5.322   6.067  0.6772 -0.2309  0.5420
 8724SOL    HW128710   5.205   5.417   6.082  0.1049 -0.1553  0.1089
 8724SOL    HW228711   5.239   5.311   5.978 -2.8206 -0.1318 -0.9262
 8725SOL     OW28712   1.140   6.846   2.135  0.1708 -0.9615  0.2916
 8725SOL    HW128713   1.105   6.912   2.194 -0.2821  0.9389 -2.0068
 8725SOL    HW228714   1.150   6.767   2.189 -0.3186  0.6628  2.8164
 8726SOL     OW28715   1.858   8.098   1.097 -0.1117 -0.7004 -0.0163
 8726SOL    HW128716   1.891   8.181   1.131 -1.4530 -0.4433  0.7173
 8726SOL    HW228717   1.936   8.049   1.072  0.6636  1.0892 -1.1737
 8727SOL     OW28718   6.099   5.087   2.202  0.0498  0.0028 -0.1096
 8727SOL    HW128719   6.146   5.127   2.276  0.7033 -1.6429  0.4016
 8727SOL    HW228720   6.162   5.086   2.131  0.1657 -0.4774 -0.0007
 8728SOL     OW28721   6.509   1.514   4.974  0.1563  0.0011  0.2251
 8728SOL    HW128722   6.521   1.583   5.040  1.4372 -0.9445  1.0122
 8728SOL    HW228723   6.544   1.552   4.893 -0.6214  0.8573  0.2862
 8729SOL     OW28724   6.368   2.716   2.572 -0.3999 -0.3330  0.3084
 8729SOL    HW128725   6.304   2.649   2.595  0.0372 -0.5161  1.0012
 8729SOL    HW228726   6.328   2.798   2.603 -0.2952 -0.4508  0.7705
 8730SOL     OW28727   5.507   5.789   9.206 -1.0204  0.3975 -0.4240
 8730SOL    HW128728   5.446   5.839   9.260 -1.3194 -1.2750  0.8282
 8730SOL    HW228729   5.536   5.851   9.140 -1.4556  2.1977  1.0212
 8731SOL     OW28730   5.636   2.253   7.231 -0.2018 -0.1011 -0.3912
 8731SOL    HW128731   5.588   2.288   7.156 -1.1744 -2.1231 -0.7283
 8731SOL    HW228732   5.679   2.330   7.269  1.7728  0.7357 -4.0259
 8732SOL     OW28733   3.395   3.271   4.784  0.1138  0.2004  0.0294
 8732SOL    HW128734   3.354   3.335   4.727  0.1396  0.7326  0.5977
 8732SOL    HW228735   3.322   3.232   4.833  0.0053 -0.8794 -0.9957
 8733SOL     OW28736   9.146   1.459   8.008  0.0267 -0.0171  0.1684
 8733SOL    HW128737   9.064   1.475   7.961  0.2611 -0.7724 -0.5161
 8733SOL    HW228738   9.189   1.545   8.011 -0.6357  0.3157  0.2408
 8734SOL     OW28739   2.124   3.448   6.202 -0.1421  0.3621 -0.1562
 8734SOL    HW128740   2.073   3.376   6.164 -0.0164  1.7420 -3.1019
 8734SOL    HW228741   2.169   3.487   6.127  0.1246  3.2340  1.4318
 8735SOL     OW28742   5.185   5.523   1.569  0.1321  0.4719 -0.0887
 8735SOL    HW128743   5.122   5.499   1.637  0.3308  0.1814 -0.0059
 8735SOL    HW228744   5.154   5.607   1.537 -0.2911  0.3381 -0.0382
 8736SOL     OW28745   1.583   3.768   8.479 -0.1874  0.7323  0.3633
 8736SOL    HW128746   1.667   3.814   8.472  0.5813 -0.5740  0.8273
 8736SOL    HW228747   1.520   3.827   8.437  0.5214  2.8380  2.1730
 8737SOL     OW28748   9.974   8.334   0.326  0.1163 -0.9276  0.1418
 8737SOL    HW128749   9.885   8.303   0.310 -0.4742 -0.1319  1.8179
 8737SOL    HW228750  10.011   8.271   0.387  0.5260 -0.9819 -0.1678
 8738SOL     OW28751   8.848   9.414   3.140 -0.3757  0.2388 -0.4972
 8738SOL    HW128752   8.810   9.412   3.052 -1.0938  0.0215 -0.1833
 8738SOL    HW228753   8.832   9.502   3.172 -0.1361  0.3099 -0.5716
 8739SOL     OW28754   9.885   9.117   2.269  0.8471 -0.2228 -0.3474
 8739SOL    HW128755   9.795   9.113   2.238  1.3430 -1.3812 -1.6731
 8739SOL    HW228756   9.920   9.198   2.232  0.3460  0.2516  0.2081
 8740SOL     OW28757   5.587   3.003   0.604  0.0076  0.4221  0.5901
 8740SOL    HW128758   5.656   2.969   0.660  0.8629  0.3694 -0.4702
 8740SOL    HW228759   5.512   2.946   0.621  0.7422 -0.5847  0.5023
 8741SOL     OW28760   9.269   0.967   0.661 -0.6855  0.1881 -0.0158
 8741SOL    HW128761   9.304   1.051   0.635 -1.7106  0.2739 -1.1306
 8741SOL    HW228762   9.235   0.982   0.750 -2.4503  1.4093 -0.8813
 8742SOL     OW28763   5.019   3.347   4.967 -0.1090  0.2691  0.7938
 8742SOL    HW128764   5.062   3.261   4.957  0.6904  0.4790  2.2155
 8742SOL    HW228765   5.081   3.398   5.019 -0.6379  1.6870  0.0491
 8743SOL     OW28766   7.726   1.294   4.074  0.9116  0.1303 -0.1960
 8743SOL    HW128767   7.639   1.257   4.089  0.2998  1.4293 -0.4692
 8743SOL    HW228768   7.778   1.221   4.041 -0.6248 -0.1681 -1.9828
 8744SOL     OW28769   3.175   2.765   1.116 -0.0672  0.1119  0.0756
 8744SOL    HW128770   3.171   2.825   1.190  1.4966  0.2728  0.0638
 8744SOL    HW228771   3.227   2.812   1.050 -1.4066 -0.0386 -1.1218
 8745SOL     OW28772   9.764   8.940   7.277 -0.3448  0.0884  0.1424
 8745SOL    HW128773   9.844   8.942   7.225  0.6992  0.1999  1.7236
 8745SOL    HW228774   9.706   8.882   7.228  0.6423  0.0905 -1.0829
 8746SOL     OW28775   7.216   6.315   6.892 -0.2933 -0.0229  0.0460
 8746SOL    HW128776   7.259   6.379   6.949  0.3740 -0.2658 -0.1800
 8746SOL    HW228777   7.186   6.365   6.817 -2.3518  0.5429  1.2060
 8747SOL     OW28778   2.559   6.637   7.036 -0.3935 -0.4054 -0.1755
 8747SOL    HW128779   2.501   6.571   7.075  0.5787 -0.7018  0.7859
 8747SOL    HW228780   2.646   6.614   7.067  0.1540  0.4690 -1.0316
 8748SOL     OW28781   8.567   5.457   6.232 -0.4289  0.0880 -1.0693
 8748SOL    HW128782   8.657   5.432   6.253 -0.8944 -0.1791  0.6868
 8748SOL    HW228783   8.524   5.375   6.208 -0.2114  0.2159 -1.9109
 8749SOL     OW28784   8.421   9.414   7.764 -0.6248 -0.4549 -0.0818
 8749SOL    HW128785   8.506   9.444   7.796 -0.7106 -1.7102  1.3728
 8749SOL    HW228786   8.358   9.459   7.820 -0.8176 -1.6679  0.6865
 8750SOL     OW28787   1.660   1.574   3.441  0.3401  0.2905 -0.3765
 8750SOL    HW128788   1.652   1.492   3.491  0.8716  0.6057  0.2409
 8750SOL    HW228789   1.579   1.580   3.391  0.3699 -0.6998 -0.5530
 8751SOL     OW28790   2.970   3.321   8.412  0.0667 -0.0896  0.6218
 8751SOL    HW128791   2.922   3.378   8.353  0.4666 -0.6003 -0.2121
 8751SOL    HW228792   2.904   3.287   8.472 -0.5005 -0.2385 -0.0763
 8752SOL     OW28793   5.562   6.487   8.866  0.5441 -0.3292 -0.4348
 8752SOL    HW128794   5.544   6.550   8.936 -0.8071  1.1089 -2.0462
 8752SOL    HW228795   5.651   6.507   8.838  0.2396  0.6196 -0.7073
 8753SOL     OW28796   2.049   0.394   2.828 -0.0035 -0.1700 -0.4656
 8753SOL    HW128797   2.034   0.445   2.907  0.6625  2.1151 -1.7637
 8753SOL    HW228798   2.092   0.314   2.859 -1.2276 -0.0487  1.6202
 8754SOL     OW28799   7.055   9.782   6.677 -0.0593  0.1958  0.1900
 8754SOL    HW128800   7.132   9.787   6.620 -1.7934 -0.9245 -2.3357
 8754SOL    HW228801   7.041   9.873   6.705  2.6062  0.3140  1.3586
 8755SOL     OW28802   1.227   2.077   4.022 -0.0667 -0.1600 -0.3107
 8755SOL    HW128803   1.291   2.093   3.952  0.2335 -0.1201 -0.0262
 8755SOL    HW228804   1.151   2.129   3.996  0.7534  1.4527  0.3931
 8756SOL     OW28805   9.369   5.652   6.802 -0.7318  0.3102  0.0644
 8756SOL    HW128806   9.417   5.727   6.766  0.2986 -0.6560 -0.6480
 8756SOL    HW228807   9.278   5.667   6.778 -0.2518  0.3752 -1.7836
 8757SOL     OW28808   3.632   0.182   2.789 -0.1081  0.1044  0.0740
 8757SOL    HW128809   3.671   0.097   2.812 -1.1647 -0.5191 -0.3984
 8757SOL    HW228810   3.672   0.205   2.706  0.0739 -0.0054  0.1318
 8758SOL     OW28811   2.767   9.484   6.390 -0.6356 -0.2191  0.3187
 8758SOL    HW128812   2.677   9.494   6.421 -0.7271 -0.8482  0.2722
 8758SOL    HW228813   2.796   9.573   6.371 -0.3834  0.2258  2.7484
 8759SOL     OW28814   2.901   0.047   4.770  0.1761  0.1064  0.0441
 8759SOL    HW128815   2.875  -0.033   4.723  1.5726  0.3808 -1.2195
 8759SOL    HW228816   2.979   0.077   4.725 -0.2030  2.0806  0.6704
 8760SOL     OW28817  10.009   8.560   2.225 -0.1479 -0.4288  0.1838
 8760SOL    HW128818   9.939   8.585   2.285  0.0402  2.4509 -0.7140
 8760SOL    HW228819   9.972   8.572   2.137  0.7071 -1.1625 -0.2883
 8761SOL     OW28820   7.454   3.793   6.073 -0.1360  0.2726  0.3563
 8761SOL    HW128821   7.497   3.747   6.002  0.4634 -0.2023  1.0243
 8761SOL    HW228822   7.467   3.886   6.053 -0.2999  0.1504 -0.3426
 8762SOL     OW28823   7.849   3.349   0.705 -0.4827 -0.0354  0.0533
 8762SOL    HW128824   7.893   3.431   0.683 -0.4016 -0.2830 -0.7494
 8762SOL    HW228825   7.842   3.349   0.800  1.2465 -0.0021  0.1870
 8763SOL     OW28826   7.825   5.751   9.201  0.3372 -0.1890 -0.1148
 8763SOL    HW128827   7.744   5.799   9.212  0.6039  0.3293 -0.4309
 8763SOL    HW228828   7.799   5.659   9.208 -0.0765  0.0127  1.0895
 8764SOL     OW28829   8.520   5.975   3.894  0.4876 -0.5502  0.0797
 8764SOL    HW128830   8.600   5.922   3.893  1.0152  0.2455 -1.6546
 8764SOL    HW228831   8.499   5.988   3.801 -0.1199  1.5106  0.4823
 8765SOL     OW28832   2.559   7.673   6.554  0.2137 -0.2468 -0.5514
 8765SOL    HW128833   2.540   7.697   6.464 -0.0533  0.5874 -0.2799
 8765SOL    HW228834   2.605   7.749   6.590  0.5452 -0.6747 -0.0547
 8766SOL     OW28835   2.152   6.041   5.606  0.2098  0.0760  0.3992
 8766SOL    HW128836   2.154   6.021   5.700 -1.2981 -0.9741  0.2180
 8766SOL    HW228837   2.173   6.135   5.602 -1.1080  0.4669  1.9061
 8767SOL     OW28838   8.839   4.825   2.989 -0.1467 -0.2461  0.1176
 8767SOL    HW128839   8.915   4.879   3.011  0.4082 -1.3000  0.8769
 8767SOL    HW228840   8.876   4.749   2.944 -0.7632 -0.7316  0.4233
 8768SOL     OW28841   5.440   8.238   6.791  0.0054  0.0717 -0.0643
 8768SOL    HW128842   5.402   8.325   6.807  0.4056  0.7313 -2.5046
 8768SOL    HW228843   5.481   8.214   6.875 -1.4185  1.5541  1.0955
 8769SOL     OW28844   6.467   6.487   9.673 -0.0305  0.3866  0.4750
 8769SOL    HW128845   6.383   6.447   9.652  0.5244  0.2634 -1.6533
 8769SOL    HW228846   6.472   6.564   9.616  0.6805  1.1836  1.6045
 8770SOL     OW28847   7.849   0.457   8.539  0.0257 -0.1540  0.4914
 8770SOL    HW128848   7.839   0.547   8.509  1.5706 -0.5334 -1.2419
 8770SOL    HW228849   7.838   0.462   8.634 -0.8293  1.7003  0.3280
 8771SOL     OW28850   3.692   8.490   7.231  0.3841  0.4184  0.2236
 8771SOL    HW128851   3.693   8.465   7.323 -1.4871  2.6090  0.9107
 8771SOL    HW228852   3.599   8.503   7.211  0.6977 -0.7748 -2.2012
 8772SOL     OW28853   3.791   8.168   0.005  0.1564  0.0716 -0.0336
 8772SOL    HW128854   3.737   8.189  -0.071 -1.0086  1.0387  1.0319
 8772SOL    HW228855   3.729   8.130   0.068  0.5124  2.0579  1.5508
 8773SOL     OW28856   6.762   6.475   6.117 -0.0000  0.1334 -0.0829
 8773SOL    HW128857   6.696   6.515   6.173 -0.8229 -0.6517 -0.4851
 8773SOL    HW228858   6.753   6.520   6.033  1.2953  1.3750  0.4214
 8774SOL     OW28859   7.473   6.142   4.115  0.2804  0.3751 -0.1006
 8774SOL    HW128860   7.546   6.131   4.054 -0.9334 -0.7239 -1.4098
 8774SOL    HW228861   7.514   6.166   4.198  1.9930  1.5842 -1.2679
 8775SOL     OW28862   5.576   9.060   0.029  0.5088  0.1170 -0.4071
 8775SOL    HW128863   5.537   9.006  -0.039 -0.2757  1.1575 -0.7919
 8775SOL    HW228864   5.655   9.013   0.055  0.4462 -0.6255 -1.5467
 8776SOL     OW28865   6.534   1.697   1.891  0.2104 -0.1321  0.0759
 8776SOL    HW128866   6.589   1.752   1.835 -0.4242 -0.4229 -0.8284
 8776SOL    HW228867   6.546   1.608   1.857 -0.5912 -0.2378  0.0675
 8777SOL     OW28868   5.045   3.391   3.788 -0.3413  0.0008  0.1628
 8777SOL    HW128869   5.080   3.477   3.765 -1.8675  0.0589 -2.0312
 8777SOL    HW228870   5.063   3.336   3.712 -2.2740 -0.7581  0.2250
 8778SOL     OW28871  10.087   8.436   7.354 -0.2307  0.5962  0.3620
 8778SOL    HW128872  10.135   8.370   7.305 -0.5793 -0.0883  0.9240
 8778SOL    HW228873  10.137   8.447   7.435 -0.3588  0.7728  0.4174
 8779SOL     OW28874   1.845   0.062   4.274  0.2395 -0.0064  0.3302
 8779SOL    HW128875   1.820  -0.025   4.241 -1.7090  0.3525  0.8486
 8779SOL    HW228876   1.930   0.047   4.316  0.5652 -1.3905 -0.7610
 8780SOL     OW28877   1.169   6.658   1.640 -0.4742  0.2135 -0.5234
 8780SOL    HW128878   1.207   6.745   1.629 -0.0386  0.3004  1.5129
 8780SOL    HW228879   1.126   6.660   1.726  1.7106 -2.3144  0.7422
 8781SOL     OW28880   6.723   6.200   3.496  0.6722  0.2896  1.0620
 8781SOL    HW128881   6.707   6.121   3.548 -0.1106  0.8760  1.7296
 8781SOL    HW228882   6.818   6.211   3.497  0.6183  0.6295  2.8566
 8782SOL     OW28883   0.214   6.747   0.171  0.1438 -0.6496 -0.8363
 8782SOL    HW128884   0.200   6.702   0.254 -2.6246 -2.9669 -2.4716
 8782SOL    HW228885   0.130   6.787   0.151  1.3400  1.5389 -1.6120
 8783SOL     OW28886   5.386   4.291   5.304  0.0908 -0.5464  0.3050
 8783SOL    HW128887   5.379   4.379   5.341 -1.7231 -0.1837 -0.8216
 8783SOL    HW228888   5.452   4.299   5.235  0.4164 -0.2383  0.6495
 8784SOL     OW28889   3.063   2.520   3.210 -0.7171  0.0201 -0.0915
 8784SOL    HW128890   2.979   2.482   3.185 -0.5955 -1.0255  1.0428
 8784SOL    HW228891   3.124   2.492   3.141 -1.2922  0.8360 -0.9492
 8785SOL     OW28892   6.545   3.515   1.804 -0.1554  0.4362  0.2775
 8785SOL    HW128893   6.626   3.544   1.845 -0.5448  0.8643  0.7430
 8785SOL    HW228894   6.483   3.586   1.817  0.4020  1.7055 -3.2844
 8786SOL     OW28895   3.952   2.041   5.282  0.1887 -0.5273  0.2448
 8786SOL    HW128896   3.861   2.035   5.251  0.3690  0.9014 -0.5943
 8786SOL    HW228897   4.000   2.081   5.210  1.2866 -0.2930  1.0901
 8787SOL     OW28898   6.043   5.247   1.581  0.5787 -0.1444  0.1840
 8787SOL    HW128899   6.054   5.154   1.563 -0.1355 -0.1802 -0.0701
 8787SOL    HW228900   5.954   5.255   1.613  0.1127  0.6803 -1.2879
 8788SOL     OW28901   8.166   2.435   1.328  0.2089 -0.4486  0.4461
 8788SOL    HW128902   8.241   2.493   1.344  1.1243 -1.3237 -0.5475
 8788SOL    HW228903   8.141   2.404   1.414  0.4974  0.4759  0.8670
 8789SOL     OW28904   9.978   1.156   4.698 -0.5047 -0.3693  0.8782
 8789SOL    HW128905   9.995   1.127   4.609  0.5594 -0.1581  1.0075
 8789SOL    HW228906   9.903   1.215   4.690 -2.3295 -2.6565  0.5482
 8790SOL     OW28907   3.816   0.591   4.366  0.1437 -0.2064  0.1694
 8790SOL    HW128908   3.725   0.562   4.368 -0.0159  0.2934  0.2295
 8790SOL    HW228909   3.833   0.609   4.273 -0.1686  0.7893  0.3004
 8791SOL     OW28910   6.226   1.341   7.564  0.1241 -0.0849  0.1355
 8791SOL    HW128911   6.147   1.337   7.618 -0.0555 -1.4969 -0.2069
 8791SOL    HW228912   6.298   1.341   7.627 -0.1153  0.0932  0.4138
 8792SOL     OW28913   1.981   7.513   3.975 -0.1547 -0.0142 -0.3172
 8792SOL    HW128914   1.969   7.543   3.885  0.2323  0.0109 -0.3608
 8792SOL    HW228915   1.975   7.417   3.969 -1.3172  0.0352 -0.1886
 8793SOL     OW28916   2.652   3.502   5.021  0.2923 -0.1723 -0.1517
 8793SOL    HW128917   2.696   3.535   5.099 -0.7212 -0.6816  0.6541
 8793SOL    HW228918   2.677   3.563   4.952  1.3864  0.1530  0.5126
 8794SOL     OW28919   5.073   2.878  10.032  0.3715 -0.2026 -0.3723
 8794SOL    HW128920   5.105   2.934   9.962 -0.9092  0.2402 -0.6109
 8794SOL    HW228921   5.013   2.817   9.988 -0.1459 -0.1629  0.2733
 8795SOL     OW28922   8.954   9.180   4.075 -0.1609 -0.0139 -0.1666
 8795SOL    HW128923   8.951   9.273   4.053  1.8514 -0.3592 -2.0882
 8795SOL    HW228924   8.883   9.168   4.137 -1.4067  2.5170 -1.0249
 8796SOL     OW28925   4.240   4.610   7.885  0.4431 -0.0482  0.2941
 8796SOL    HW128926   4.298   4.561   7.828  0.8665 -1.7498  2.1206
 8796SOL    HW228927   4.198   4.543   7.940  0.6241  1.5791  2.4771
 8797SOL     OW28928   3.698   5.057   6.005 -0.3196  0.0259  0.4970
 8797SOL    HW128929   3.646   5.048   6.085 -1.5108  1.0736 -0.1392
 8797SOL    HW228930   3.768   5.119   6.028 -0.2627 -0.1895  0.9085
 8798SOL     OW28931   8.312   4.658   4.075 -0.2206 -0.3473 -0.3566
 8798SOL    HW128932   8.391   4.611   4.104  0.3665  1.3482  0.8268
 8798SOL    HW228933   8.263   4.676   4.155 -0.4657  1.0033 -0.7964
 8799SOL     OW28934   7.916   6.341   3.768  0.3065  0.2102  0.2813
 8799SOL    HW128935   7.947   6.426   3.736  0.4942 -0.5163 -1.5433
 8799SOL    HW228936   7.872   6.361   3.850  0.5559  2.0408 -0.0017
 8800SOL     OW28937   4.116   0.780   8.007 -0.3362 -0.2307 -0.6451
 8800SOL    HW128938   4.109   0.691   7.971  1.9343 -0.9874  0.6580
 8800SOL    HW228939   4.080   0.836   7.939 -0.7138 -2.0459 -1.9961
 8801SOL     OW28940   0.744   9.153   4.525 -0.1134  0.4143 -0.1846
 8801SOL    HW128941   0.656   9.160   4.488 -0.0894 -0.2586 -0.3906
 8801SOL    HW228942   0.730   9.148   4.619 -0.3191  0.0098 -0.2352
 8802SOL     OW28943   3.014   7.812   2.661 -0.0891  0.2260  0.4972
 8802SOL    HW128944   3.006   7.874   2.733 -1.7599  0.9298 -0.2647
 8802SOL    HW228945   2.933   7.822   2.611  0.4299 -1.2384 -0.6991
 8803SOL     OW28946   1.785   8.487   5.674  0.1518  0.4540  0.6992
 8803SOL    HW128947   1.725   8.557   5.646  1.1757  1.6738  1.5280
 8803SOL    HW228948   1.821   8.518   5.757  1.4750 -0.5500  0.5132
 8804SOL     OW28949   9.968   3.147   0.240 -0.5673  0.3805 -0.0185
 8804SOL    HW128950   9.897   3.101   0.284 -0.9612  0.8958 -0.1199
 8804SOL    HW228951   9.995   3.215   0.302 -1.0687  1.0554 -0.5336
 8805SOL     OW28952   9.572   7.603   5.455 -0.3929 -0.2996 -0.4988
 8805SOL    HW128953   9.625   7.629   5.379 -0.1860 -0.9351 -0.5728
 8805SOL    HW228954   9.636   7.578   5.521 -0.5624  0.8347  0.0984
 8806SOL     OW28955   5.566   5.637   2.711  0.1172  0.0537 -0.2179
 8806SOL    HW128956   5.494   5.681   2.665 -1.1216  0.1588  1.7830
 8806SOL    HW228957   5.525   5.562   2.754  1.4509 -0.6191 -0.0984
 8807SOL     OW28958   7.815   5.207   1.747 -0.1507  0.5162 -0.1334
 8807SOL    HW128959   7.772   5.209   1.833  1.1497  1.8456  0.5247
 8807SOL    HW228960   7.780   5.129   1.704 -0.8608 -0.1458  1.5940
 8808SOL     OW28961   4.937   7.539   8.584 -0.8019 -0.0559 -0.8157
 8808SOL    HW128962   4.864   7.587   8.544 -0.3496  0.0123 -1.5668
 8808SOL    HW228963   4.905   7.515   8.671 -1.7543 -0.1044 -1.1745
 8809SOL     OW28964   7.160   8.967   4.728 -0.1480  0.0289  0.0576
 8809SOL    HW128965   7.132   9.050   4.690 -0.8000  0.0555  0.6021
 8809SOL    HW228966   7.208   8.924   4.657 -0.6313  0.4475 -0.5322
 8810SOL     OW28967   2.219   2.859   3.611  0.1537  0.0984  0.2257
 8810SOL    HW128968   2.138   2.865   3.660 -0.1849  1.9731 -0.5269
 8810SOL    HW228969   2.194   2.818   3.528 -0.0598  0.8106 -0.0650
 8811SOL     OW28970   7.977   1.055   0.063 -0.3851 -0.1839  0.3187
 8811SOL    HW128971   8.037   1.101   0.121  2.7131 -1.9544 -1.3207
 8811SOL    HW228972   7.912   1.121   0.039  0.4938  1.6354  2.6897
 8812SOL     OW28973   6.617   4.599   6.295 -0.2333  0.4434  0.4134
 8812SOL    HW128974   6.540   4.544   6.311 -0.1297  0.0551 -0.3896
 8812SOL    HW228975   6.583   4.672   6.242  0.2589 -0.6274 -1.4259
 8813SOL     OW28976   0.279   1.725   8.391  0.1663 -0.1776 -0.3624
 8813SOL    HW128977   0.285   1.743   8.297  0.2153  0.4495 -0.2482
 8813SOL    HW228978   0.275   1.630   8.398  1.1276 -0.2667 -0.9534
 8814SOL     OW28979   4.528   6.304   2.455  0.1086 -0.3183 -0.4542
 8814SOL    HW128980   4.538   6.272   2.365 -0.1500  0.2650 -0.6964
 8814SOL    HW228981   4.570   6.238   2.509  1.0485 -0.2488 -1.0816
 8815SOL     OW28982   8.419   1.310   8.696 -0.0272  0.7694 -0.4566
 8815SOL    HW128983   8.469   1.387   8.670  0.9148  0.4478  0.3610
 8815SOL    HW228984   8.463   1.278   8.775 -1.1529  0.1164 -0.0814
 8816SOL     OW28985   1.519   4.341   1.656 -0.7529  0.4287  0.2147
 8816SOL    HW128986   1.518   4.331   1.560 -1.9638 -1.4159  0.4096
 8816SOL    HW228987   1.575   4.270   1.686 -0.9443  0.5867  0.9361
 8817SOL     OW28988  10.080   7.057   2.886 -0.1754 -1.4026  0.2656
 8817SOL    HW128989  10.082   7.001   2.964 -0.0620 -1.8314 -0.0430
 8817SOL    HW228990  10.042   7.001   2.818  1.5071 -1.6618 -0.4780
 8818SOL     OW28991   6.000   4.313   5.102  0.2966  0.1979  0.5712
 8818SOL    HW128992   5.910   4.297   5.075 -0.3266 -1.5630  3.5169
 8818SOL    HW228993   5.994   4.386   5.165  1.0402  0.6269  0.1568
 8819SOL     OW28994   2.741   8.859   5.790 -0.1192 -0.1826  0.2944
 8819SOL    HW128995   2.825   8.813   5.780 -0.9761 -1.6414 -0.3723
 8819SOL    HW228996   2.707   8.827   5.874  0.3420  0.9940  0.9327
 8820SOL     OW28997   2.780   3.352   2.939  0.5757  0.1656  0.0911
 8820SOL    HW128998   2.838   3.396   2.877  2.4293 -0.1502  1.5704
 8820SOL    HW228999   2.821   3.365   3.024 -1.3358 -0.3932  1.1347
 8821SOL     OW29000   5.396   8.841   4.741  0.9391 -0.0602 -0.6248
 8821SOL    HW129001   5.455   8.846   4.666  1.5219 -1.3111 -0.2616
 8821SOL    HW229002   5.449   8.869   4.815  0.3775  1.1317 -0.6687
 8822SOL     OW29003   3.528   6.434   0.401 -0.3477 -0.6490  0.0638
 8822SOL    HW129004   3.557   6.523   0.421 -0.1772 -0.5694 -0.5274
 8822SOL    HW229005   3.526   6.431   0.306  0.3073 -1.4931  0.0785
 8823SOL     OW29006   2.180   8.494   7.645  0.2968  0.3875 -0.0139
 8823SOL    HW129007   2.166   8.524   7.735  0.0388 -0.3083  0.1789
 8823SOL    HW229008   2.160   8.571   7.591  0.3836  0.7858  0.5150
 8824SOL     OW29009   2.843   5.572   1.160  0.1797 -0.0352 -0.2223
 8824SOL    HW129010   2.832   5.563   1.065 -0.3348 -0.4840 -0.1231
 8824SOL    HW229011   2.836   5.666   1.176  0.0475  0.0195 -0.6070
 8825SOL     OW29012   1.728   4.931   7.564  0.1376  0.6974  0.2654
 8825SOL    HW129013   1.747   5.019   7.597  1.9011  0.4916 -0.1476
 8825SOL    HW229014   1.812   4.885   7.569 -0.7938 -1.0143  0.6195
 8826SOL     OW29015   0.347   0.894   2.447 -1.0077  1.0040  0.7726
 8826SOL    HW129016   0.347   0.962   2.379  1.0241  0.6099  0.3378
 8826SOL    HW229017   0.343   0.944   2.529 -0.9185  1.5962  0.4246
 8827SOL     OW29018   6.326   3.160   6.495 -0.3224 -0.3086  0.0848
 8827SOL    HW129019   6.281   3.110   6.427  0.3393 -0.4491 -0.2474
 8827SOL    HW229020   6.366   3.094   6.552 -0.2453 -0.1730  0.1896
 8828SOL     OW29021   5.102   5.125   7.671  0.0251 -0.3198 -0.0180
 8828SOL    HW129022   5.102   5.082   7.756  0.6730  0.3879  0.3455
 8828SOL    HW229023   5.195   5.138   7.651 -0.1076 -0.9526 -1.0697
 8829SOL     OW29024   9.390   8.013   3.373  0.1819 -0.5962  0.1510
 8829SOL    HW129025   9.399   8.049   3.285 -3.4475  0.4464  0.0893
 8829SOL    HW229026   9.446   8.068   3.428  1.8039 -0.7215 -1.3530
 8830SOL     OW29027   7.696   5.144   9.764  0.5631 -0.1972 -0.1747
 8830SOL    HW129028   7.765   5.131   9.699 -0.0004  0.1109 -0.8417
 8830SOL    HW229029   7.639   5.211   9.726 -0.2288 -0.6118  0.2573
 8831SOL     OW29030   7.539   5.559   1.212  0.1778 -0.3221 -0.3316
 8831SOL    HW129031   7.609   5.608   1.169 -0.3180  0.2887 -0.4638
 8831SOL    HW229032   7.537   5.594   1.301 -0.8129  0.6017 -0.7021
 8832SOL     OW29033   0.364   9.969   6.594  0.2944 -0.0008  0.1219
 8832SOL    HW129034   0.341   9.980   6.687 -2.6020 -3.0943 -0.1187
 8832SOL    HW229035   0.312  10.036   6.549 -0.2152 -0.1293  0.5118
 8833SOL     OW29036   5.297   2.918   1.407  0.1027  0.2281  0.0556
 8833SOL    HW129037   5.248   2.952   1.332  0.4557 -0.3850 -0.4600
 8833SOL    HW229038   5.381   2.964   1.403  0.6874 -0.8777 -0.8064
 8834SOL     OW29039   8.580   1.465   0.709 -0.1798  0.3606  0.0544
 8834SOL    HW129040   8.610   1.541   0.759  0.5616  0.2278 -0.1757
 8834SOL    HW229041   8.504   1.497   0.660  0.5541  1.1654 -0.5852
 8835SOL     OW29042   1.179   2.076   0.664 -0.2451  0.4479 -0.2348
 8835SOL    HW129043   1.113   2.142   0.642 -0.9186  0.6963  2.3856
 8835SOL    HW229044   1.244   2.124   0.715 -0.4202 -0.7624  1.1598
 8836SOL     OW29045   9.680  10.054   5.778 -0.6758  0.3419 -0.0536
 8836SOL    HW129046   9.732   9.985   5.821 -1.2811  0.9102  1.6385
 8836SOL    HW229047   9.737  10.086   5.708 -0.0556 -1.3000 -0.3344
 8837SOL     OW29048   3.858   3.005   3.652 -0.0913 -0.7167  0.6151
 8837SOL    HW129049   3.945   3.040   3.672 -0.8756  1.9567 -0.3605
 8837SOL    HW229050   3.866   2.971   3.563 -0.3794  0.8413 -0.0250
 8838SOL     OW29051   3.196   1.803   3.336 -0.1219 -0.3583 -0.3643
 8838SOL    HW129052   3.287   1.786   3.359 -0.1896 -1.1529 -0.6659
 8838SOL    HW229053   3.187   1.771   3.247 -0.1876  1.5502 -1.0729
 8839SOL     OW29054  10.083   3.235   0.634 -0.0730  0.0101 -0.4498
 8839SOL    HW129055  10.092   3.281   0.550  1.8985  0.9869  0.2733
 8839SOL    HW229056  10.125   3.151   0.620 -0.4863 -0.1549 -0.6957
 8840SOL     OW29057   9.516   8.232   0.588 -0.0711  0.4110  0.2480
 8840SOL    HW129058   9.486   8.283   0.513  2.3692  1.2127 -0.2411
 8840SOL    HW229059   9.437   8.191   0.623 -1.3239  0.3481 -2.5000
 8841SOL     OW29060   1.133   4.931   8.057  0.3326  0.1244  0.3453
 8841SOL    HW129061   1.145   5.026   8.049  1.6558 -0.2318 -2.2155
 8841SOL    HW229062   1.189   4.894   7.990  0.2573 -2.5328  1.7024
 8842SOL     OW29063   6.738   4.380   2.626 -0.1024 -0.1645 -0.1176
 8842SOL    HW129064   6.667   4.399   2.565  0.3000 -0.4063 -0.6668
 8842SOL    HW229065   6.815   4.367   2.570  0.4733  0.5488  0.4878
 8843SOL     OW29066   3.242   2.391   8.237  0.5127  0.1003  0.1995
 8843SOL    HW129067   3.212   2.320   8.179  2.4714  0.4156 -1.2979
 8843SOL    HW229068   3.320   2.354   8.280  1.5329  1.3092 -0.5776
 8844SOL     OW29069   8.552   7.060   0.583 -0.0340  0.5478  0.1907
 8844SOL    HW129070   8.534   7.091   0.672 -2.0103 -0.7708  0.2604
 8844SOL    HW229071   8.467   7.035   0.548  0.6637  1.4052 -2.2386
 8845SOL     OW29072   2.737   9.371   0.449  0.0687  0.0720 -0.2098
 8845SOL    HW129073   2.746   9.442   0.386  0.3343 -1.0223 -1.4376
 8845SOL    HW229074   2.645   9.347   0.446 -0.0105  0.3440  0.1605
 8846SOL     OW29075   7.032   9.195   6.482  0.5118 -0.0825  0.0174
 8846SOL    HW129076   7.069   9.110   6.461 -0.3424 -0.1922 -1.0990
 8846SOL    HW229077   6.962   9.176   6.545 -0.1516 -0.2937 -0.7750
 8847SOL     OW29078   8.454   3.438   4.646 -0.2311 -0.2356  0.4766
 8847SOL    HW129079   8.438   3.378   4.718 -0.2084  0.5007  1.0978
 8847SOL    HW229080   8.505   3.509   4.684  0.2084 -0.0873 -0.3741
 8848SOL     OW29081  10.036   2.826   0.141  0.6634 -0.3454  0.1724
 8848SOL    HW129082   9.944   2.837   0.164  0.8014  2.1035 -0.3193
 8848SOL    HW229083  10.041   2.737   0.105 -1.7588 -0.0985 -0.9193
 8849SOL     OW29084   4.158   3.909   5.140  0.0433  0.2758  0.9150
 8849SOL    HW129085   4.105   3.842   5.185  0.8100  0.5502  2.2540
 8849SOL    HW229086   4.247   3.892   5.170  0.8312 -0.6064 -1.8598
 8850SOL     OW29087   5.561   0.733   7.438 -0.3127 -0.1047  0.2246
 8850SOL    HW129088   5.480   0.688   7.416 -0.5330  0.4987 -0.2231
 8850SOL    HW229089   5.627   0.664   7.446 -0.8953 -0.6088  0.7111
 8851SOL     OW29090   0.525   5.611   5.255  0.3467 -0.1617  0.6038
 8851SOL    HW129091   0.567   5.569   5.179 -0.7876 -1.1388  0.4970
 8851SOL    HW229092   0.594   5.618   5.320  1.3694  0.7833 -0.5470
 8852SOL     OW29093   5.337   5.320   3.643  0.5182  0.0368  0.0756
 8852SOL    HW129094   5.341   5.388   3.710 -1.5020  1.0450 -0.7842
 8852SOL    HW229095   5.428   5.293   3.630  1.0732  0.8304  2.1890
 8853SOL     OW29096   4.810   3.964   2.456  0.0461  0.1855  0.2375
 8853SOL    HW129097   4.749   4.032   2.484  0.2007  0.3678  0.1326
 8853SOL    HW229098   4.757   3.885   2.451 -0.1583  0.3218  0.2502
 8854SOL     OW29099   2.138   0.249   7.545  0.3833 -0.3831  0.7001
 8854SOL    HW129100   2.131   0.337   7.508 -1.0243 -1.1754 -1.0158
 8854SOL    HW229101   2.087   0.253   7.626  1.4949  0.7333  1.3621
 8855SOL     OW29102   6.811   9.856   9.856  0.1824  0.0368 -0.8481
 8855SOL    HW129103   6.756   9.782   9.835  2.1605 -1.7982  0.2053
 8855SOL    HW229104   6.834   9.894   9.771 -0.5933 -0.7288 -1.4054
 8856SOL     OW29105   2.333   0.882   4.782  0.5158 -0.0214  0.0712
 8856SOL    HW129106   2.391   0.898   4.707  0.6762 -0.1669  0.1643
 8856SOL    HW229107   2.247   0.908   4.750  0.6070  0.0575 -0.1177
 8857SOL     OW29108   3.898   2.508   0.741 -0.1748  0.3436 -0.4210
 8857SOL    HW129109   3.936   2.499   0.653 -0.5254  0.1306 -0.5524
 8857SOL    HW229110   3.860   2.422   0.759  0.4563  0.1964  0.2005
 8858SOL     OW29111   5.551   7.017   2.277  0.6857 -0.0628  0.0228
 8858SOL    HW129112   5.575   7.054   2.192  0.4551  0.2150  0.0752
 8858SOL    HW229113   5.546   6.923   2.262  1.5736 -0.1036 -0.0382
 8859SOL     OW29114   9.587   5.256   3.133  0.4874  1.2480 -0.1244
 8859SOL    HW129115   9.593   5.198   3.208 -1.3641 -0.0376 -0.9290
 8859SOL    HW229116   9.664   5.312   3.139  1.0023  0.3315  2.0245
 8860SOL     OW29117   5.801   0.512   7.160 -0.4735  0.7084 -0.2015
 8860SOL    HW129118   5.779   0.485   7.071  2.0198  1.4333 -1.0718
 8860SOL    HW229119   5.791   0.607   7.160  0.0797  0.7709  0.1235
 8861SOL     OW29120   1.760   6.547  10.168  0.2716 -0.2991  0.1195
 8861SOL    HW129121   1.831   6.600  10.204  0.1372 -1.4615  2.1838
 8861SOL    HW229122   1.758   6.469  10.224 -1.8664 -0.8331 -0.6563
 8862SOL     OW29123   1.249   6.929   2.909  0.3766 -0.2441  0.4569
 8862SOL    HW129124   1.261   6.852   2.853  0.3121 -0.4909  0.7851
 8862SOL    HW229125   1.337   6.949   2.942  0.6491  0.6988 -0.7791
 8863SOL     OW29126   7.128   1.090   6.984 -0.1750 -0.0553  0.2828
 8863SOL    HW129127   7.173   1.144   6.919 -1.4728  1.3598  0.5300
 8863SOL    HW229128   7.078   1.027   6.932  1.5065 -1.1692 -0.0050
 8864SOL     OW29129   7.451   9.419   3.659  0.3790 -0.7191 -0.6158
 8864SOL    HW129130   7.372   9.373   3.630 -0.6072  0.9800 -0.6910
 8864SOL    HW229131   7.520   9.386   3.601 -0.3718 -1.8314 -0.9014
 8865SOL     OW29132   9.685   3.428   6.427 -0.1322  0.4717  0.7475
 8865SOL    HW129133   9.627   3.402   6.499  0.2981 -1.3853  0.4416
 8865SOL    HW229134   9.627   3.435   6.351  0.0873 -1.6938  0.3729
 8866SOL     OW29135   4.384   7.535   6.606 -0.3958 -0.6397  0.3248
 8866SOL    HW129136   4.478   7.551   6.601 -0.6022  0.2800 -0.8853
 8866SOL    HW229137   4.344   7.614   6.569 -1.5367 -2.6587 -2.9852
 8867SOL     OW29138  10.143   5.038   3.107 -0.6623 -0.1934 -0.2896
 8867SOL    HW129139  10.057   5.006   3.133 -0.2584 -0.6347  0.5108
 8867SOL    HW229140  10.148   5.018   3.013 -1.4773 -0.0386 -0.3730
 8868SOL     OW29141   1.723   7.099   4.720  0.2487 -0.1508 -0.2443
 8868SOL    HW129142   1.770   7.148   4.787  1.2448  1.3515 -1.9815
 8868SOL    HW229143   1.752   7.009   4.731  0.9674  0.2123  0.8607
 8869SOL     OW29144   1.017   5.273   2.891  0.1813  0.7541 -0.1506
 8869SOL    HW129145   1.083   5.310   2.951 -0.9542  1.2834  0.7856
 8869SOL    HW229146   0.966   5.214   2.947  0.0178  0.1482 -0.9416
 8870SOL     OW29147   7.205   6.280   0.918 -0.1740  0.5681 -0.0052
 8870SOL    HW129148   7.273   6.340   0.888  0.0477 -0.4855 -1.6462
 8870SOL    HW229149   7.214   6.203   0.862 -2.8393  0.4781 -0.3866
 8871SOL     OW29150   7.782   6.595   8.880  0.4555 -0.6577 -0.8060
 8871SOL    HW129151   7.837   6.658   8.833  1.2547 -1.2959 -0.7452
 8871SOL    HW229152   7.817   6.594   8.969 -0.7175  0.1524 -0.3254
 8872SOL     OW29153   3.792   9.828   1.519  0.0040 -0.1295 -0.0773
 8872SOL    HW129154   3.716   9.862   1.473  0.4779  0.1547 -0.6577
 8872SOL    HW229155   3.769   9.737   1.541 -1.2460  0.5432  1.4633
 8873SOL     OW29156   0.948   0.590   6.891 -0.2403  0.6418 -0.3286
 8873SOL    HW129157   0.876   0.646   6.920 -0.2879 -0.3133  1.4499
 8873SOL    HW229158   0.916   0.501   6.901  0.4174  0.2565 -1.5972
 8874SOL     OW29159   1.137   8.976   8.495  0.3074 -0.0284  0.0429
 8874SOL    HW129160   1.155   9.010   8.583  1.2918  2.8230 -1.1897
 8874SOL    HW229161   1.218   8.994   8.446 -1.0628  0.5543 -2.0546
 8875SOL     OW29162   8.320   2.678   0.941  0.0077  0.0797  0.1481
 8875SOL    HW129163   8.406   2.677   0.898  0.1131  2.2113  0.2472
 8875SOL    HW229164   8.289   2.768   0.931 -3.2574 -1.1743 -1.8428
 8876SOL     OW29165   9.672   0.711   2.750  0.0947  0.4950 -0.3535
 8876SOL    HW129166   9.587   0.736   2.786 -1.2585 -3.4461 -0.5327
 8876SOL    HW229167   9.730   0.707   2.826 -0.3369  1.4727  0.0294
 8877SOL     OW29168   5.192   4.150   3.091 -0.1123  0.7524  0.4352
 8877SOL    HW129169   5.244   4.153   3.011 -0.3081  0.8491  0.3113
 8877SOL    HW229170   5.165   4.241   3.105 -0.6148  0.6290  0.2588
 8878SOL     OW29171   3.960   1.349   6.378  0.1221  1.0796 -0.0011
 8878SOL    HW129172   3.949   1.299   6.459 -1.1166  0.8130 -0.3230
 8878SOL    HW229173   3.983   1.284   6.312 -2.8887  0.6842 -0.7302
 8879SOL     OW29174   6.077   6.281   7.863  0.1489 -0.3909  0.3686
 8879SOL    HW129175   6.010   6.217   7.838 -1.2873  1.5987 -1.0280
 8879SOL    HW229176   6.080   6.276   7.958 -0.0497 -2.4015  0.3004
 8880SOL     OW29177  10.048   0.714   3.882  0.1396 -0.9218 -0.4542
 8880SOL    HW129178  10.107   0.768   3.935  0.3189 -1.2809 -0.2894
 8880SOL    HW229179  10.001   0.660   3.945 -0.3742 -0.6274 -0.5859
 8881SOL     OW29180   8.230  10.188   0.255 -0.3687  0.6867 -0.1596
 8881SOL    HW129181   8.203  10.113   0.309  0.1915  0.1646 -0.5842
 8881SOL    HW229182   8.287  10.149   0.188 -1.8979  1.1567 -1.7870
 8882SOL     OW29183   9.629   8.055   5.593  0.1794  0.2422 -0.5580
 8882SOL    HW129184   9.604   7.996   5.522  2.8730  0.2550 -1.5792
 8882SOL    HW229185   9.570   8.130   5.584 -0.2291 -0.2515 -2.0932
 8883SOL     OW29186   9.586   4.289   5.292  0.5584 -0.2601  0.3391
 8883SOL    HW129187   9.611   4.335   5.373 -0.3203  1.3378 -0.2822
 8883SOL    HW229188   9.496   4.261   5.308  0.2381  0.4233 -0.2349
 8884SOL     OW29189   6.477   8.508   6.314 -0.6871  0.0283 -0.0079
 8884SOL    HW129190   6.427   8.474   6.240  0.8088 -0.0250 -1.0057
 8884SOL    HW229191   6.460   8.603   6.312 -1.5456 -0.1114  0.2796
 8885SOL     OW29192   3.021   8.610   8.724 -0.7215 -0.0070 -0.2043
 8885SOL    HW129193   3.026   8.526   8.679 -1.8788 -0.8445  1.1992
 8885SOL    HW229194   2.928   8.623   8.742 -0.1657 -0.5655  3.5115
 8886SOL     OW29195  10.063   6.519   5.871 -0.4271  0.0768  0.6897
 8886SOL    HW129196  10.090   6.541   5.960 -2.7454 -1.2234  1.7524
 8886SOL    HW229197  10.114   6.441   5.850  0.7456  0.8701  0.5283
 8887SOL     OW29198   6.053   1.557   2.234 -0.8165 -0.0944  0.0679
 8887SOL    HW129199   6.057   1.475   2.282  2.4769  0.5809  1.0589
 8887SOL    HW229200   6.107   1.543   2.157  0.7557  1.4718  0.8399
 8888SOL     OW29201   6.344   7.062   4.789 -0.5615  0.1422 -0.2486
 8888SOL    HW129202   6.418   7.097   4.837  0.7488 -0.2685 -1.9080
 8888SOL    HW229203   6.331   6.974   4.824 -1.5298  0.9246  1.3924
 8889SOL     OW29204   2.614   3.195   4.090  0.0114  0.5750 -0.7320
 8889SOL    HW129205   2.522   3.224   4.093 -0.4405 -0.9945  0.8328
 8889SOL    HW229206   2.626   3.144   4.169  2.9917  2.8382  0.3572
 8890SOL     OW29207   3.645   0.710   1.490 -0.5532 -0.2413 -0.2052
 8890SOL    HW129208   3.701   0.732   1.416  1.9765  0.2502  1.7836
 8890SOL    HW229209   3.606   0.793   1.517  0.0228 -0.0860  0.1698
 8891SOL     OW29210   5.433   6.273   0.495 -0.2170 -0.1491  0.0538
 8891SOL    HW129211   5.518   6.247   0.462 -0.1493  0.3609 -0.1687
 8891SOL    HW229212   5.432   6.241   0.586  0.5115  0.5385  0.3022
 8892SOL     OW29213   1.399   3.672   6.656  0.0451 -0.0739  0.0975
 8892SOL    HW129214   1.311   3.677   6.618  0.6071 -1.1946 -1.4047
 8892SOL    HW229215   1.413   3.758   6.695 -1.4056  0.3895 -0.3705
 8893SOL     OW29216   2.534   9.353   6.246  0.0915 -0.0986  0.2474
 8893SOL    HW129217   2.471   9.307   6.301 -1.0628 -0.6164 -1.4732
 8893SOL    HW229218   2.543   9.439   6.287  1.4255 -1.4138  2.8460
 8894SOL     OW29219   8.010   7.495   9.362  0.3286  1.3561  0.0751
 8894SOL    HW129220   7.973   7.424   9.309  1.9581  1.1596 -0.8271
 8894SOL    HW229221   7.963   7.489   9.445  0.1235 -0.5121 -0.1428
 8895SOL     OW29222   3.334   5.648   9.987  0.0510  0.1195  0.1149
 8895SOL    HW129223   3.379   5.643  10.071 -0.6695  0.7249  0.5491
 8895SOL    HW229224   3.288   5.565   9.980  0.1601  0.0436  0.2953
 8896SOL     OW29225   6.625   1.277   2.483 -1.0476  0.3845 -0.1328
 8896SOL    HW129226   6.642   1.279   2.389 -0.6338  3.9617 -0.0369
 8896SOL    HW229227   6.704   1.237   2.521 -1.1349 -0.8894 -1.2707
 8897SOL     OW29228   2.332   3.560   1.068  0.0662 -0.2886  0.8367
 8897SOL    HW129229   2.323   3.647   1.108  1.5844 -0.7717  2.2569
 8897SOL    HW229230   2.269   3.505   1.115  0.8782 -0.5349  1.6440
 8898SOL     OW29231   5.725   3.533   6.367 -0.3667  0.5156  0.1162
 8898SOL    HW129232   5.802   3.476   6.374 -0.1182  0.8639  0.2254
 8898SOL    HW229233   5.714   3.548   6.273  0.6980  1.8222  0.1920
 8899SOL     OW29234   5.141   0.531   0.707  0.8034 -0.2000  0.4107
 8899SOL    HW129235   5.060   0.569   0.741  1.3161  2.0360 -0.7327
 8899SOL    HW229236   5.121   0.508   0.616  1.1398 -0.6477  0.4486
 8900SOL     OW29237   1.732   0.641   6.036  0.0785 -0.1424 -0.4745
 8900SOL    HW129238   1.666   0.679   5.978 -0.9588  0.8654  1.3101
 8900SOL    HW229239   1.805   0.703   6.033 -0.6204  0.7549  0.5080
 8901SOL     OW29240   8.644   7.898   2.590  0.3118 -0.4337 -0.1011
 8901SOL    HW129241   8.588   7.886   2.666  0.4836 -1.8162 -0.1796
 8901SOL    HW229242   8.695   7.817   2.585  1.9719  0.6066 -0.3133
 8902SOL     OW29243   7.624   2.608   6.182  0.1306  0.2352  0.4889
 8902SOL    HW129244   7.559   2.572   6.121 -0.2858 -0.8424  1.5306
 8902SOL    HW229245   7.585   2.690   6.213  0.7594  1.2590 -1.3697
 8903SOL     OW29246  10.191   4.625   8.488 -0.2381  0.1456 -0.6351
 8903SOL    HW129247  10.128   4.661   8.425 -0.3041 -1.5519 -1.5901
 8903SOL    HW229248  10.167   4.664   8.572 -1.0506  1.3511 -1.4112
 8904SOL     OW29249   4.017   3.585   4.261  0.3676  0.0824 -0.3244
 8904SOL    HW129250   4.091   3.530   4.236 -1.1571 -2.2352  0.0915
 8904SOL    HW229251   3.954   3.575   4.189 -0.0558  1.0609 -0.1045
 8905SOL     OW29252   6.473   7.290   7.796  0.2303  0.5960 -0.0636
 8905SOL    HW129253   6.534   7.310   7.867  1.5985  1.9514 -1.5714
 8905SOL    HW229254   6.519   7.225   7.742  0.6260  2.0454 -1.5211
 8906SOL     OW29255   6.371   9.518   8.926  0.2098 -0.2529  0.3845
 8906SOL    HW129256   6.278   9.515   8.949 -0.6473  1.8932 -2.5434
 8906SOL    HW229257   6.416   9.524   9.011 -2.3820  0.0434  1.7922
 8907SOL     OW29258  10.173   5.813   6.634  0.3442 -0.0015 -0.0002
 8907SOL    HW129259  10.233   5.880   6.667  1.6527 -0.5744 -1.1541
 8907SOL    HW229260  10.127   5.782   6.711  1.1125  0.8844  0.8246
 8908SOL     OW29261   9.582   6.732   6.833 -0.6906  0.2532 -0.3339
 8908SOL    HW129262   9.544   6.665   6.776  1.7706  1.3695 -3.3697
 8908SOL    HW229263   9.643   6.779   6.778 -1.4994  4.3038  2.0468
 8909SOL     OW29264   6.106  10.156   4.398 -0.0842 -0.0255 -0.4516
 8909SOL    HW129265   6.087  10.070   4.362 -0.0558  0.4100 -1.5414
 8909SOL    HW229266   6.194  10.177   4.366 -0.7698  1.1248 -1.6514
 8910SOL     OW29267  10.152   8.216   8.653 -0.5342  0.3003 -0.1604
 8910SOL    HW129268  10.096   8.206   8.576 -0.7127 -0.5530  0.0762
 8910SOL    HW229269  10.232   8.168   8.631 -1.0809 -1.0187  0.6694
 8911SOL     OW29270   2.260   2.849   8.340 -0.7392 -0.0001 -0.1417
 8911SOL    HW129271   2.331   2.809   8.289 -1.4110 -3.2772  1.3715
 8911SOL    HW229272   2.304   2.906   8.403  0.3541  0.2081 -1.0777
 8912SOL     OW29273   6.025  10.192   1.358 -0.0256 -0.6001 -0.2058
 8912SOL    HW129274   6.090  10.142   1.309  0.2795  0.8879 -1.3493
 8912SOL    HW229275   6.070  10.216   1.439 -0.3277 -2.5414  0.5559
 8913SOL     OW29276   7.066   0.463   4.368  0.3973 -0.4672 -0.0749
 8913SOL    HW129277   7.064   0.403   4.294 -0.6599  0.8093 -1.0982
 8913SOL    HW229278   7.081   0.407   4.444 -2.8701 -2.3061 -0.7216
 8914SOL     OW29279   4.156   1.110   5.103 -0.0255  0.0609  0.2364
 8914SOL    HW129280   4.252   1.108   5.099 -0.0743 -0.2017 -1.3854
 8914SOL    HW229281   4.133   1.203   5.095  0.0669  0.0345 -0.3412
 8915SOL     OW29282   3.572   0.422   3.502  0.8047  0.3172 -0.0433
 8915SOL    HW129283   3.508   0.418   3.573  0.0605  0.2141 -0.7083
 8915SOL    HW229284   3.551   0.347   3.447  0.5931  1.0706 -1.0160
 8916SOL     OW29285   6.508   8.630   9.184 -0.3149  0.6980  0.7575
 8916SOL    HW129286   6.568   8.587   9.245  0.2576  0.0743 -0.2315
 8916SOL    HW229287   6.491   8.564   9.117 -0.8869  1.4045  0.1998
 8917SOL     OW29288   0.353   1.844   9.202  0.5452  0.1117 -0.0084
 8917SOL    HW129289   0.381   1.925   9.160  0.5960  0.4500  0.6554
 8917SOL    HW229290   0.432   1.790   9.206  0.8442  0.5870  0.7814
 8918SOL     OW29291   2.767   0.818   3.913  0.7127  0.0866  0.5422
 8918SOL    HW129292   2.775   0.913   3.912  2.2241 -0.0225 -1.0819
 8918SOL    HW229293   2.839   0.789   3.970 -0.0434 -0.0758  1.4268
 8919SOL     OW29294   7.154   5.739   1.820  0.0226 -0.1392  0.2333
 8919SOL    HW129295   7.165   5.721   1.913  0.0527 -1.9666 -0.0919
 8919SOL    HW229296   7.077   5.795   1.814 -0.4531 -0.6750  1.2890
 8920SOL     OW29297   6.353   9.452   9.361  0.2637 -0.6639  0.1994
 8920SOL    HW129298   6.434   9.472   9.313  0.1303  0.3177  0.3855
 8920SOL    HW229299   6.374   9.470   9.452 -0.2233 -0.2230  0.2255
 8921SOL     OW29300   7.257   1.302   7.831  0.6808  0.0507 -0.6683
 8921SOL    HW129301   7.290   1.218   7.800  1.1300 -0.1412  0.3142
 8921SOL    HW229302   7.216   1.342   7.754  0.4879 -1.0542 -1.1403
 8922SOL     OW29303   8.084   6.125   5.902  0.2436 -0.3435  0.3115
 8922SOL    HW129304   8.134   6.123   5.984 -0.6447 -1.7831  0.8304
 8922SOL    HW229305   8.122   6.198   5.853  1.7186 -0.3425  1.4131
 8923SOL     OW29306   0.464   3.196   7.284  0.2439 -0.3027  0.1547
 8923SOL    HW129307   0.445   3.256   7.212 -1.9839 -2.0105 -0.7223
 8923SOL    HW229308   0.395   3.211   7.347  0.2451 -1.2214  0.3854
 8924SOL     OW29309   6.043   2.740   2.584 -0.2915  0.2482 -0.0511
 8924SOL    HW129310   5.950   2.740   2.608 -0.9545 -1.0773 -2.4039
 8924SOL    HW229311   6.086   2.789   2.654 -2.5012 -0.6942  2.0577
 8925SOL     OW29312   1.857   7.367   5.157 -0.0912  0.5322  0.2267
 8925SOL    HW129313   1.809   7.368   5.239 -1.3144  1.4309 -0.4854
 8925SOL    HW229314   1.947   7.343   5.182 -0.5115  0.5206  1.7731
 8926SOL     OW29315   8.751   0.719   7.815 -0.5751  0.0354  0.2522
 8926SOL    HW129316   8.725   0.629   7.835  0.5121 -0.4607 -0.5093
 8926SOL    HW229317   8.846   0.714   7.803 -0.7442  0.9085 -1.7097
 8927SOL     OW29318   7.734   8.537   4.900 -0.1812 -0.5001  0.4012
 8927SOL    HW129319   7.658   8.568   4.950 -0.7928 -1.8627  0.3335
 8927SOL    HW229320   7.783   8.483   4.962 -0.6545 -1.7512 -0.3039
 8928SOL     OW29321   3.607   1.657   3.774  0.0328  0.0645 -0.0752
 8928SOL    HW129322   3.522   1.614   3.773  0.1249 -0.2164  2.0314
 8928SOL    HW229323   3.651   1.622   3.852  0.2465  3.6905  1.5424
 8929SOL     OW29324   6.619   8.439   3.043 -0.0223 -0.1723  0.2714
 8929SOL    HW129325   6.621   8.461   2.950  1.1617  2.0848  0.7738
 8929SOL    HW229326   6.711   8.441   3.070 -0.3302 -1.1034  1.4160
 8930SOL     OW29327   4.339   5.072   4.366 -0.0572 -0.4508 -0.2636
 8930SOL    HW129328   4.421   5.076   4.415 -0.8490 -0.1804  1.0330
 8930SOL    HW229329   4.339   4.984   4.328 -0.4594 -1.4521  1.9922
 8931SOL     OW29330   5.117   4.983   4.177 -0.4911  0.2628  0.2258
 8931SOL    HW129331   5.200   5.019   4.147  0.6287 -3.1973 -1.0368
 8931SOL    HW229332   5.134   4.956   4.268 -0.4638  0.2302  0.2107
 8932SOL     OW29333   9.508   6.183   5.691  0.8221  0.2509 -0.0363
 8932SOL    HW129334   9.513   6.194   5.786  0.3490 -0.0059  0.0217
 8932SOL    HW229335   9.585   6.130   5.669 -0.2860 -1.6518  0.5156
 8933SOL     OW29336   3.486   1.138   5.138  0.1499  0.6131 -0.4883
 8933SOL    HW129337   3.520   1.213   5.088 -1.2884  0.8492 -1.1394
 8933SOL    HW229338   3.398   1.124   5.102  0.5426 -1.6192 -0.6129
 8934SOL     OW29339   4.547   2.480   7.986  0.2418  0.1219 -0.3916
 8934SOL    HW129340   4.562   2.565   7.945 -1.3112  0.6681  0.1473
 8934SOL    HW229341   4.578   2.490   8.076  1.4683 -0.3579 -0.7530
 8935SOL     OW29342   4.928   7.812   6.574  0.2034 -0.1999 -0.7483
 8935SOL    HW129343   5.001   7.846   6.521  0.1692 -0.1681 -0.7748
 8935SOL    HW229344   4.850   7.842   6.528  0.1734  0.1970 -0.4381
 8936SOL     OW29345   0.163   4.639   9.171 -0.0698 -0.2592  0.3497
 8936SOL    HW129346   0.176   4.658   9.264 -0.4127 -1.9621  0.7755
 8936SOL    HW229347   0.251   4.624   9.137  0.0849  0.6920  0.3135
 8937SOL     OW29348   7.393   9.147   6.637  0.9042  0.3442 -0.1252
 8937SOL    HW129349   7.367   9.237   6.621  0.1649  0.1104 -0.2454
 8937SOL    HW229350   7.452   9.126   6.564 -1.0818 -0.1449 -1.6184
 8938SOL     OW29351   9.050   8.186   9.078 -0.0761 -0.0118 -0.3712
 8938SOL    HW129352   8.959   8.177   9.052  0.3512  1.0387 -2.3333
 8938SOL    HW229353   9.100   8.166   8.999  1.4110 -0.8084  0.7346
 8939SOL     OW29354   1.553  10.108   1.920 -0.5301  0.4163  0.6393
 8939SOL    HW129355   1.581  10.021   1.947 -0.1939  0.4294  0.3346
 8939SOL    HW229356   1.611  10.168   1.967 -0.1866  0.4485  0.1872
 8940SOL     OW29357   3.926   1.229   6.617  0.2736  0.6150  0.0474
 8940SOL    HW129358   3.850   1.250   6.672  0.8051  0.2992  0.9216
 8940SOL    HW229359   3.937   1.134   6.627  0.2897  0.5339 -0.7208
 8941SOL     OW29360   4.865   5.109   3.793 -0.0547 -0.4049  0.1712
 8941SOL    HW129361   4.928   5.179   3.775 -1.0311  0.7871  1.1962
 8941SOL    HW229362   4.911   5.051   3.853  0.8109 -0.7038 -0.7783
 8942SOL     OW29363   1.870   5.319   0.310  0.5624 -0.1522  0.1727
 8942SOL    HW129364   1.802   5.334   0.244  0.7612 -0.7392 -0.1655
 8942SOL    HW229365   1.850   5.233   0.347  1.2395 -0.4207 -0.0744
 8943SOL     OW29366   5.414   0.254   0.501  0.4485 -0.2570  0.2529
 8943SOL    HW129367   5.471   0.208   0.439 -1.1629  0.2535 -1.6667
 8943SOL    HW229368   5.346   0.293   0.446  0.0180  1.7660  2.1789
 8944SOL     OW29369   3.248   2.527   1.569 -0.5495  0.3140 -0.7089
 8944SOL    HW129370   3.259   2.489   1.656 -0.7118 -0.5739 -1.0723
 8944SOL    HW229371   3.313   2.482   1.515  1.5978  2.9232 -0.4328
 8945SOL     OW29372   3.024   2.749   6.561  0.1612  0.6491  0.6623
 8945SOL    HW129373   3.053   2.829   6.603 -0.2925  0.9227  0.4651
 8945SOL    HW229374   2.956   2.715   6.619 -0.1065  0.7565  0.4146
 8946SOL     OW29375   3.413   9.136   5.443  0.3947 -0.0313 -0.1082
 8946SOL    HW129376   3.438   9.131   5.351 -0.9500 -0.1494 -0.4631
 8946SOL    HW229377   3.331   9.184   5.444  0.8352  0.7500  1.1129
 8947SOL     OW29378   9.140   4.899   1.200  0.6841  0.3350  0.1582
 8947SOL    HW129379   9.207   4.934   1.141 -0.3345  0.3977 -0.9655
 8947SOL    HW229380   9.189   4.843   1.260  1.6388 -0.3542 -1.2258
 8948SOL     OW29381   8.827   6.372   9.097 -0.6120 -0.0341 -0.3616
 8948SOL    HW129382   8.749   6.406   9.055 -1.5995 -0.9552  0.7029
 8948SOL    HW229383   8.829   6.279   9.073 -0.8655 -0.4337  1.1380
 8949SOL     OW29384   1.374   0.148   3.268 -0.0519  0.0471  0.2902
 8949SOL    HW129385   1.439   0.195   3.320 -0.1634  1.1435 -0.5654
 8949SOL    HW229386   1.350   0.073   3.323  2.3129 -0.6620  0.3858
 8950SOL     OW29387   3.762   0.728   2.026 -0.4645 -0.1028 -0.5749
 8950SOL    HW129388   3.768   0.700   1.935  0.7151 -0.4714 -0.3992
 8950SOL    HW229389   3.670   0.717   2.049 -0.4818 -1.4782 -1.2649
 8951SOL     OW29390   5.788   8.524   9.459  0.3527  0.2292  0.4812
 8951SOL    HW129391   5.809   8.440   9.499  0.4291 -0.0139 -0.0759
 8951SOL    HW229392   5.874   8.567   9.447  0.2720  0.6287  1.2928
 8952SOL     OW29393   1.334   7.184   9.603  0.0420  0.3413  0.9386
 8952SOL    HW129394   1.378   7.128   9.667 -1.2049 -0.2181  1.3150
 8952SOL    HW229395   1.368   7.272   9.621  0.9932 -0.0823  1.2333
 8953SOL     OW29396   3.756   8.085   6.200  0.2690  0.1293 -0.2832
 8953SOL    HW129397   3.713   8.158   6.156  0.4668  0.2069 -0.3457
 8953SOL    HW229398   3.706   8.008   6.172 -0.7421  0.3687  0.7699
 8954SOL     OW29399   8.751   4.080   0.260 -0.2287  0.0967  0.5077
 8954SOL    HW129400   8.774   4.162   0.218 -1.5785  0.2528  0.0416
 8954SOL    HW229401   8.813   4.016   0.224  1.9093  1.1951  2.1290
 8955SOL     OW29402  10.112   4.503   3.385 -0.4432  0.2204 -0.7949
 8955SOL    HW129403  10.195   4.543   3.411 -0.3316  0.5155 -1.5920
 8955SOL    HW229404  10.090   4.545   3.302 -0.3757 -1.2838 -1.6104
 8956SOL     OW29405   5.830   0.467   8.561 -0.1090 -0.0088 -0.2648
 8956SOL    HW129406   5.782   0.549   8.575  1.5514  1.2327 -1.6873
 8956SOL    HW229407   5.769   0.412   8.512 -1.1052  0.4763  0.4048
 8957SOL     OW29408   0.590   2.552   7.263  0.2628 -0.2577  0.2981
 8957SOL    HW129409   0.673   2.566   7.308  0.8089 -1.5021 -0.2940
 8957SOL    HW229410   0.611   2.559   7.170 -0.1187 -1.4211  0.1142
 8958SOL     OW29411   2.873   7.667   5.272  0.4046 -0.4181  0.7274
 8958SOL    HW129412   2.850   7.739   5.330 -1.3711 -0.2660 -0.1485
 8958SOL    HW229413   2.902   7.598   5.330 -0.7864 -0.0598  1.7665
 8959SOL     OW29414   6.230   1.027   0.207 -0.2766 -0.2024  0.2737
 8959SOL    HW129415   6.204   1.066   0.291 -2.3078 -1.1983  0.1454
 8959SOL    HW229416   6.160   1.050   0.147  0.7786 -0.1705 -0.9632
 8960SOL     OW29417   9.535   6.319   9.378 -0.2247  0.0454  0.0358
 8960SOL    HW129418   9.442   6.295   9.380  0.1668 -1.9985 -2.7466
 8960SOL    HW229419   9.575   6.264   9.445 -0.9085  0.3666  0.7138
 8961SOL     OW29420   2.395   0.369   2.480 -0.1904  0.1009  0.1837
 8961SOL    HW129421   2.461   0.349   2.413 -1.0654 -0.2782 -0.5649
 8961SOL    HW229422   2.446   0.373   2.562  0.8342  0.2629 -0.4484
 8962SOL     OW29423   6.959   4.391   9.621 -0.4948  0.2051 -0.4276
 8962SOL    HW129424   6.877   4.433   9.646 -0.3329 -0.5304  1.3552
 8962SOL    HW229425   7.013   4.463   9.586 -1.3883  0.9147 -0.3634
 8963SOL     OW29426   2.358   3.640   2.805  0.8932 -0.8711  0.4608
 8963SOL    HW129427   2.340   3.732   2.787  1.3309 -1.1317 -1.4889
 8963SOL    HW229428   2.317   3.623   2.890  1.8322  1.4001  1.4048
 8964SOL     OW29429   2.243   9.509   2.136  0.0086 -0.0900  0.4891
 8964SOL    HW129430   2.310   9.452   2.174 -1.3192 -1.4401  0.8372
 8964SOL    HW229431   2.228   9.576   2.202  1.3665  0.5218  0.1983
 8965SOL     OW29432   8.703   3.945   1.330 -0.2063 -0.0015  0.0024
 8965SOL    HW129433   8.736   3.922   1.244  0.0080  0.5053 -0.0578
 8965SOL    HW229434   8.671   3.863   1.367  0.2404 -0.3238 -0.3227
 8966SOL     OW29435   0.786   4.329   1.849  0.0543 -0.1145 -0.3178
 8966SOL    HW129436   0.752   4.418   1.845  2.1991  0.7302 -0.1987
 8966SOL    HW229437   0.857   4.327   1.785 -0.1040 -1.8029 -0.4650
 8967SOL     OW29438   6.836   3.185  10.077 -0.2547 -0.2323  0.2246
 8967SOL    HW129439   6.898   3.224  10.138 -0.8109 -0.3003  0.8313
 8967SOL    HW229440   6.887   3.174   9.996 -0.1018  1.8074  0.0086
 8968SOL     OW29441   8.171   1.878   4.938 -0.4799  0.2081  0.0729
 8968SOL    HW129442   8.235   1.851   4.872  0.5915  0.5329  0.9638
 8968SOL    HW229443   8.108   1.930   4.889 -0.9133 -1.3645 -1.0981
 8969SOL     OW29444   9.395   6.669   3.146  0.3566 -0.4183  0.3128
 8969SOL    HW129445   9.386   6.604   3.077 -1.2678  0.2126 -0.1074
 8969SOL    HW229446   9.319   6.654   3.203  0.0224  1.0353  0.2639
 8970SOL     OW29447   5.980   5.494   8.427  0.0337 -0.2427  0.0554
 8970SOL    HW129448   6.009   5.452   8.346  2.0169 -1.4949  1.3832
 8970SOL    HW229449   5.886   5.477   8.431 -0.2252  0.4767 -2.3403
 8971SOL     OW29450   0.553   2.798   5.612  0.5760 -0.4384 -0.1999
 8971SOL    HW129451   0.597   2.862   5.556  0.2200 -0.2762 -0.2948
 8971SOL    HW229452   0.599   2.716   5.595  1.0993 -0.1899 -0.0014
 8972SOL     OW29453   0.684   7.605   8.052  0.0038 -0.1151  0.1741
 8972SOL    HW129454   0.753   7.671   8.066  1.0829 -1.5750  2.1602
 8972SOL    HW229455   0.619   7.624   8.120  1.3118 -2.2791  2.1201
 8973SOL     OW29456   2.897   7.789   8.113  0.0578  0.2128 -0.4261
 8973SOL    HW129457   2.984   7.752   8.131 -0.8691 -1.6574  0.3209
 8973SOL    HW229458   2.915   7.876   8.079  2.3746 -1.1576 -2.9824
 8974SOL     OW29459   3.179   6.703   3.274  0.1389 -0.2605 -0.5123
 8974SOL    HW129460   3.162   6.610   3.289  0.7701 -0.2594  0.2591
 8974SOL    HW229461   3.251   6.705   3.211 -0.4285 -0.2861 -1.1641
 8975SOL     OW29462   1.900   4.841   2.146 -0.0278 -0.3692  0.0695
 8975SOL    HW129463   1.866   4.760   2.107 -0.5115 -0.3935  0.5301
 8975SOL    HW229464   1.847   4.910   2.106  1.5750 -0.0987 -1.6819
 8976SOL     OW29465   9.706   4.559   8.423  0.3803 -0.0248  0.3944
 8976SOL    HW129466   9.700   4.607   8.340 -0.2744  0.7423  0.8706
 8976SOL    HW229467   9.624   4.510   8.427  0.8974 -0.9261  0.0743
 8977SOL     OW29468   7.775   0.929   9.598  0.1607 -0.7856 -0.8008
 8977SOL    HW129469   7.806   0.915   9.688  0.8975 -2.4654 -1.2932
 8977SOL    HW229470   7.855   0.925   9.545 -0.1922  0.8082 -1.4839
 8978SOL     OW29471   1.933   5.163   7.366 -0.7514 -0.2600  0.1707
 8978SOL    HW129472   2.013   5.161   7.418 -2.2382 -1.6213  2.5354
 8978SOL    HW229473   1.900   5.252   7.376 -0.2704 -0.1081  0.4021
 8979SOL     OW29474   1.373   8.060   3.474 -0.3587 -0.1651 -0.2034
 8979SOL    HW129475   1.382   7.971   3.508  0.7853  0.5148  1.3374
 8979SOL    HW229476   1.335   8.110   3.546  0.6909  0.9881 -0.4228
 8980SOL     OW29477   5.873   3.272   9.603  0.0319 -0.2510  0.7964
 8980SOL    HW129478   5.843   3.292   9.692 -0.4858 -0.4769  0.6701
 8980SOL    HW229479   5.840   3.184   9.586 -1.8379  0.6954 -0.5082
 8981SOL     OW29480   9.727   2.465   7.087  0.0160 -0.3096 -0.2139
 8981SOL    HW129481   9.793   2.530   7.111 -0.7118  0.5340 -0.4698
 8981SOL    HW229482   9.734   2.397   7.154 -0.0197  0.6077  0.7240
 8982SOL     OW29483   1.373   0.450   4.336  0.4451  0.0878 -0.2271
 8982SOL    HW129484   1.361   0.539   4.302 -2.1348  0.6559  1.9190
 8982SOL    HW229485   1.318   0.395   4.280  0.9364  0.0849 -0.6990
 8983SOL     OW29486  10.148   2.334   1.180  0.5018  0.1881 -0.4356
 8983SOL    HW129487  10.202   2.256   1.191  1.4447  0.7732 -0.8025
 8983SOL    HW229488  10.190   2.382   1.108 -1.6444 -0.2966 -2.0601
 8984SOL     OW29489   1.872   0.563   8.181  0.2622  0.6201  0.2649
 8984SOL    HW129490   1.828   0.489   8.138  0.1441  0.3099  0.9204
 8984SOL    HW229491   1.952   0.525   8.218  0.1298  0.7904  0.7278
 8985SOL     OW29492   1.794   0.403   5.681  0.0386 -0.2957  0.0350
 8985SOL    HW129493   1.862   0.466   5.705  1.2175 -1.3966 -0.3820
 8985SOL    HW229494   1.730   0.456   5.633  0.3573  0.8395  0.8225
 8986SOL     OW29495   8.556   9.494   8.252  0.3325  0.2208 -0.7212
 8986SOL    HW129496   8.545   9.571   8.196 -1.2743  0.0719 -0.6190
 8986SOL    HW229497   8.571   9.530   8.339 -0.4346  0.4198 -0.6723
 8987SOL     OW29498   3.878   0.892   1.597 -0.2573  0.3532  0.2630
 8987SOL    HW129499   3.923   0.951   1.537 -0.2397 -0.6009 -0.6706
 8987SOL    HW229500   3.792   0.932   1.610 -0.6247  0.0426 -1.1903
 8988SOL     OW29501   9.190   2.886   4.205  0.8192 -1.0283 -0.4139
 8988SOL    HW129502   9.162   2.967   4.164  0.0653 -1.7762 -1.3920
 8988SOL    HW229503   9.270   2.910   4.253  0.8501  0.1817 -1.0479
 8989SOL     OW29504   9.532   8.057   2.228 -0.0132 -0.4990 -0.0702
 8989SOL    HW129505   9.542   8.087   2.138  2.8899 -0.4670  0.2404
 8989SOL    HW229506   9.439   8.036   2.236 -0.3396 -0.2867 -2.9911
 8990SOL     OW29507  10.097   4.221   1.646  0.3212  0.1899 -0.3180
 8990SOL    HW129508  10.163   4.237   1.578 -0.2682  2.8192 -0.3340
 8990SOL    HW229509  10.148   4.192   1.722  1.1351 -1.2138 -1.3656
 8991SOL     OW29510   3.358   3.100   3.800  0.2311 -0.3328  0.6975
 8991SOL    HW129511   3.339   3.145   3.883  0.9914 -0.3036  0.8601
 8991SOL    HW229512   3.452   3.086   3.802  0.2756 -0.1612 -0.2567
 8992SOL     OW29513   4.357   6.231   1.815 -0.2855  0.0870 -0.4440
 8992SOL    HW129514   4.354   6.193   1.902 -0.6726  3.1769  0.9548
 8992SOL    HW229515   4.446   6.211   1.784  0.4349  0.3876  1.3397
 8993SOL     OW29516   6.253   3.609   3.880 -0.2299 -0.3023  0.2597
 8993SOL    HW129517   6.227   3.600   3.972  1.1811  1.2750  0.8434
 8993SOL    HW229518   6.294   3.525   3.858 -1.3075 -0.9849  0.8175
 8994SOL     OW29519   4.422   1.919   5.192  0.2994  0.9034 -0.7145
 8994SOL    HW129520   4.359   1.909   5.121 -1.6195 -0.0264  1.0644
 8994SOL    HW229521   4.421   2.012   5.213 -0.4584  0.8954 -0.7119
 8995SOL     OW29522   9.302   9.872   2.663 -0.2304  0.3459 -0.0519
 8995SOL    HW129523   9.224   9.928   2.660  0.1905  0.8664 -2.3048
 8995SOL    HW229524   9.331   9.867   2.572  1.6707 -0.8412  0.5960
 8996SOL     OW29525   1.291   9.662   2.611  0.1631 -0.0068 -0.4335
 8996SOL    HW129526   1.338   9.580   2.627  0.0900  0.0310 -0.0230
 8996SOL    HW229527   1.265   9.657   2.519  0.0414 -0.5098 -0.3761
 8997SOL     OW29528   2.630   1.739   6.317 -0.3078  0.1613 -0.0364
 8997SOL    HW129529   2.557   1.757   6.376  0.8311 -1.3085  1.8728
 8997SOL    HW229530   2.674   1.824   6.307 -0.9179  0.5661  0.6748
 8998SOL     OW29531   8.223   0.445   1.002 -0.0462  0.0214 -0.4876
 8998SOL    HW129532   8.172   0.489   1.070 -0.7060 -0.5386 -0.6068
 8998SOL    HW229533   8.242   0.359   1.040 -2.5582 -1.2445 -1.9468
 8999SOL     OW29534   2.085   6.375   0.569 -0.1590 -0.2183  0.1334
 8999SOL    HW129535   2.120   6.460   0.541 -1.9113  0.4626 -0.0196
 8999SOL    HW229536   2.085   6.322   0.490  0.9873 -0.3834  0.2394
 9000SOL     OW29537   2.666   1.390   1.973  0.1647  0.0932 -0.4691
 9000SOL    HW129538   2.651   1.484   1.968  4.6191  1.0290  1.3805
 9000SOL    HW229539   2.630   1.365   2.058 -1.1369  0.0724 -1.0160
 9001SOL     OW29540   6.807   6.920   1.563 -0.7120  0.5665  0.0976
 9001SOL    HW129541   6.725   6.884   1.598 -0.6591 -0.2611 -0.6307
 9001SOL    HW229542   6.809   7.010   1.596 -2.4995  0.9792 -0.8735
 9002SOL     OW29543   3.722   5.268  10.187  0.3793  0.3528  0.3392
 9002SOL    HW129544   3.692   5.185  10.150  0.2513  1.2590 -1.6369
 9002SOL    HW229545   3.723   5.253  10.282 -0.4538 -1.6239  0.0568
 9003SOL     OW29546   6.255   5.426   1.607  0.2193  0.3867 -0.4274
 9003SOL    HW129547   6.178   5.372   1.621  0.8109 -0.0453  1.2906
 9003SOL    HW229548   6.327   5.363   1.596  0.4939  0.8001 -1.0725
 9004SOL     OW29549   1.496   0.421   7.631 -0.3184 -0.1165  0.1164
 9004SOL    HW129550   1.437   0.375   7.691 -1.1212  0.4709 -0.2113
 9004SOL    HW229551   1.454   0.506   7.617  0.2940  0.0663 -0.6102
 9005SOL     OW29552   3.884   5.693   4.809  0.0085  0.4230  0.3237
 9005SOL    HW129553   3.947   5.680   4.739  0.6725  0.0611  0.9791
 9005SOL    HW229554   3.891   5.614   4.863 -1.3359  0.1588  0.1525
 9006SOL     OW29555   7.829   2.839   2.614 -0.1936 -0.3085 -0.1025
 9006SOL    HW129556   7.771   2.795   2.676  0.7175 -2.8180 -0.9735
 9006SOL    HW229557   7.772   2.901   2.568 -1.0357  1.0508  2.6517
 9007SOL     OW29558   6.110   9.715   3.006 -0.2761 -0.8238 -0.5085
 9007SOL    HW129559   6.137   9.763   2.927 -0.7236  1.1441  0.5101
 9007SOL    HW229560   6.181   9.728   3.068 -0.7348 -0.8776  0.0313
 9008SOL     OW29561   7.595   7.495   4.175  0.2835 -0.7886 -0.3775
 9008SOL    HW129562   7.553   7.409   4.168 -0.5552 -0.3525 -0.7295
 9008SOL    HW229563   7.685   7.475   4.200 -0.3712 -1.6816  1.3216
 9009SOL     OW29564   6.119   7.686   2.399 -0.6564 -0.5234 -0.0784
 9009SOL    HW129565   6.207   7.685   2.437 -0.9360  1.3216  0.6849
 9009SOL    HW229566   6.087   7.597   2.410  1.2607 -1.3063 -0.6996
 9010SOL     OW29567   3.012   4.365   8.534 -0.0069  0.1918  0.0544
 9010SOL    HW129568   2.992   4.399   8.447 -1.3597  1.1885  0.7348
 9010SOL    HW229569   3.080   4.423   8.568  1.6438 -1.1221 -0.9094
 9011SOL     OW29570   3.094   4.431   2.607  0.1831 -0.1484  0.0036
 9011SOL    HW129571   3.077   4.455   2.516 -1.2723 -0.6137  0.1498
 9011SOL    HW229572   3.172   4.375   2.602  0.2782  0.0571 -0.9273
 9012SOL     OW29573   5.038   3.943   3.199 -0.1935  0.4691  0.1538
 9012SOL    HW129574   4.952   3.980   3.221 -0.3643  0.4914 -0.5286
 9012SOL    HW229575   5.088   4.017   3.166  0.3662  0.6187  1.3243
 9013SOL     OW29576   4.961   4.681   2.175 -0.2742  0.2675  0.0249
 9013SOL    HW129577   4.891   4.621   2.202  0.0647 -0.4870 -0.7167
 9013SOL    HW229578   5.040   4.627   2.174 -0.0864  0.5411 -1.3272
 9014SOL     OW29579   5.039   2.633   0.381  0.2318 -0.4361 -0.4410
 9014SOL    HW129580   4.949   2.624   0.348  0.3745  0.5199 -1.1351
 9014SOL    HW229581   5.032   2.616   0.475 -0.6084 -0.7672 -0.5536
 9015SOL     OW29582   1.282   5.914   1.273  0.1808  0.2214 -0.2602
 9015SOL    HW129583   1.255   5.974   1.343  0.3565  0.0782 -0.0688
 9015SOL    HW229584   1.363   5.875   1.305 -0.1594 -0.4301 -0.2015
 9016SOL     OW29585   9.820   8.842   2.787  0.0377 -0.2838 -0.8571
 9016SOL    HW129586   9.882   8.784   2.833  1.1773  0.8874 -0.8943
 9016SOL    HW229587   9.743   8.788   2.774  0.3247 -1.1768  0.9388
 9017SOL     OW29588   4.593   7.461   9.184  0.3316  0.0379 -0.0824
 9017SOL    HW129589   4.502   7.484   9.203  0.0703 -2.0712  1.3325
 9017SOL    HW229590   4.593   7.442   9.090 -0.7479 -0.2583 -0.0279
 9018SOL     OW29591   3.475   6.079   0.425  0.1675 -0.7889  0.1761
 9018SOL    HW129592   3.424   6.159   0.416 -2.0981 -2.2628 -0.5896
 9018SOL    HW229593   3.499   6.076   0.517  1.6099  1.5421 -0.1114
 9019SOL     OW29594   6.479   8.783   2.077 -0.0717  0.1916  0.0321
 9019SOL    HW129595   6.523   8.845   2.136  0.3459  1.0356 -1.1223
 9019SOL    HW229596   6.550   8.730   2.042  0.0455  1.3836 -1.6385
 9020SOL     OW29597   9.677   6.364   9.809  0.2823  0.2827 -0.2825
 9020SOL    HW129598   9.699   6.449   9.847 -1.7230  0.4675  0.5208
 9020SOL    HW229599   9.581   6.361   9.811  0.3086 -1.6631 -1.0390
 9021SOL     OW29600   9.090   5.608   8.045 -0.4531  0.1180 -0.0771
 9021SOL    HW129601   9.021   5.594   8.109 -1.1929 -0.6525 -1.0388
 9021SOL    HW229602   9.055   5.673   7.984  1.5008  3.4188  2.1451
 9022SOL     OW29603   0.967   3.574   1.098  0.4203  0.2543  0.4755
 9022SOL    HW129604   0.890   3.569   1.041  0.1660  1.5510  0.7063
 9022SOL    HW229605   1.009   3.488   1.088  0.2210  0.3426 -1.4374
 9023SOL     OW29606   7.163   9.328   6.841 -0.0753 -0.3424  0.2295
 9023SOL    HW129607   7.118   9.407   6.871  1.3661  0.5155  0.1969
 9023SOL    HW229608   7.141   9.321   6.749  0.8137  0.7597 -0.0797
 9024SOL     OW29609   2.454   7.219   8.380  0.4265  0.4618 -0.0263
 9024SOL    HW129610   2.362   7.191   8.382  0.2409  0.9231 -1.4518
 9024SOL    HW229611   2.488   7.180   8.300  1.2322  1.0630  0.0262
 9025SOL     OW29612   0.584   1.802   2.626  0.2699  0.6556  0.3102
 9025SOL    HW129613   0.600   1.862   2.699  1.7517  0.7531 -0.0814
 9025SOL    HW229614   0.649   1.733   2.636 -1.2563 -0.7621  0.6008
 9026SOL     OW29615   1.589   7.001   8.417  0.2102 -0.2907  0.5284
 9026SOL    HW129616   1.576   7.088   8.455  0.9819  0.6674 -1.3493
 9026SOL    HW229617   1.678   6.978   8.441  0.6063  0.2015 -0.4284
 9027SOL     OW29618   3.101   7.279   6.066 -0.0998  0.7603 -0.6236
 9027SOL    HW129619   3.042   7.231   6.008 -0.1279 -0.2240  0.1973
 9027SOL    HW229620   3.151   7.336   6.008 -0.7698  0.4672 -1.5035
 9028SOL     OW29621   3.634   6.887   0.331  0.8757 -0.2191  0.1799
 9028SOL    HW129622   3.621   6.830   0.255  1.2768  2.0219 -1.6459
 9028SOL    HW229623   3.713   6.937   0.310 -0.4519  2.2488  0.8827
 9029SOL     OW29624   0.453   4.916   5.272 -0.2368  0.8468  0.4710
 9029SOL    HW129625   0.394   4.842   5.278 -1.5784  1.9793  1.5784
 9029SOL    HW229626   0.457   4.951   5.361  1.7453  1.0618  0.3194
 9030SOL     OW29627   1.622   8.927  10.184  0.4772  0.1307  0.4024
 9030SOL    HW129628   1.677   8.849  10.193 -0.8513 -1.0621 -1.4756
 9030SOL    HW229629   1.683   8.997  10.163  1.6666 -0.4289  1.8984
 9031SOL     OW29630   3.597   8.836   7.048  0.2850 -1.1232  0.3188
 9031SOL    HW129631   3.667   8.815   6.986 -1.9715 -2.7274 -1.7709
 9031SOL    HW229632   3.610   8.929   7.068  2.5258 -1.2045 -0.6325
 9032SOL     OW29633   6.280   2.701   0.517  0.1360 -0.5195 -0.5940
 9032SOL    HW129634   6.240   2.786   0.502 -0.4877 -0.0921  2.9251
 9032SOL    HW229635   6.241   2.643   0.451 -1.9230  1.1795 -0.9059
 9033SOL     OW29636   4.091   4.409   7.261 -0.3811  0.0632 -0.4442
 9033SOL    HW129637   4.035   4.456   7.323 -0.9688 -1.3570  0.1209
 9033SOL    HW229638   4.174   4.400   7.308 -0.2088  0.6662 -0.6211
 9034SOL     OW29639   7.535   4.985   9.903 -0.1171 -0.1383  0.5307
 9034SOL    HW129640   7.458   5.038   9.881 -0.4020 -1.6571 -2.3891
 9034SOL    HW229641   7.606   5.024   9.851 -0.6355 -3.3864 -2.8047
 9035SOL     OW29642   0.540   8.628   2.253  0.2406  0.0527 -0.1342
 9035SOL    HW129643   0.623   8.654   2.293 -0.5648  1.5709  0.5914
 9035SOL    HW229644   0.489   8.593   2.326 -0.2147  0.3002 -0.3336
 9036SOL     OW29645   1.750   9.547   2.142  0.2137 -0.6097  0.0102
 9036SOL    HW129646   1.665   9.550   2.184 -0.2391 -2.0178 -0.7570
 9036SOL    HW229647   1.813   9.553   2.213 -0.5371 -1.8640  0.7881
 9037SOL     OW29648   5.389   5.541   9.091 -0.0450 -0.2255  0.3610
 9037SOL    HW129649   5.449   5.520   9.019 -1.6834 -1.3706 -0.6931
 9037SOL    HW229650   5.419   5.626   9.123 -0.2133  1.0625 -2.7126
 9038SOL     OW29651   0.977   8.437   5.539  0.3711  0.0378 -0.2824
 9038SOL    HW129652   0.954   8.480   5.457 -1.9152 -0.2876  0.1407
 9038SOL    HW229653   0.924   8.357   5.540 -0.6857  0.7117  2.1199
 9039SOL     OW29654   2.475   3.211  10.064 -0.7502  0.4218 -0.3503
 9039SOL    HW129655   2.420   3.244   9.994 -0.6759 -0.4510 -0.8302
 9039SOL    HW229656   2.534   3.149  10.022 -1.0271 -0.4783  0.5496
 9040SOL     OW29657   1.157   3.516   3.452  0.3075  0.4907 -0.1779
 9040SOL    HW129658   1.095   3.444   3.468  0.6409  0.1209 -0.5397
 9040SOL    HW229659   1.242   3.480   3.478  0.4702  0.7706 -0.3316
 9041SOL     OW29660   4.125   9.286   9.690  0.1322 -0.5823  0.1157
 9041SOL    HW129661   4.056   9.333   9.643  0.2083  0.0332  0.6120
 9041SOL    HW229662   4.079   9.222   9.744 -0.1238  0.4524  1.1531
 9042SOL     OW29663   5.765   9.390   6.684 -0.0104  0.3789 -0.1128
 9042SOL    HW129664   5.691   9.348   6.728 -0.0072  0.1359 -0.3450
 9042SOL    HW229665   5.788   9.331   6.613  0.6049  0.3066  0.1471
 9043SOL     OW29666   0.620   5.206   1.818  0.4139  0.0252  0.0725
 9043SOL    HW129667   0.713   5.214   1.797  0.2440  0.2053 -0.6060
 9043SOL    HW229668   0.578   5.278   1.771 -0.2211 -0.7438 -0.5459
 9044SOL     OW29669   2.338   8.013   6.842 -0.5836 -0.2628  0.4695
 9044SOL    HW129670   2.320   8.073   6.914 -0.5499  0.7666 -0.3585
 9044SOL    HW229671   2.285   8.046   6.769 -1.2557 -1.7837  0.2713
 9045SOL     OW29672   6.753   5.643   7.017  0.1445 -0.0607  0.1135
 9045SOL    HW129673   6.773   5.595   7.097 -0.7995  0.8432  0.9065
 9045SOL    HW229674   6.809   5.604   6.950  0.1971 -1.4989  0.9972
 9046SOL     OW29675   5.009   1.609   6.282  0.2526 -0.7475 -0.2450
 9046SOL    HW129676   5.090   1.626   6.234  1.1721 -1.2588  1.1068
 9046SOL    HW229677   4.950   1.679   6.254  1.4660  0.1773 -0.5413
 9047SOL     OW29678   6.150   6.338   0.405  0.3858  0.3793  0.0778
 9047SOL    HW129679   6.108   6.374   0.483  1.7057  1.5994  0.2437
 9047SOL    HW229680   6.177   6.414   0.354  2.2655 -0.3751 -0.0901
 9048SOL     OW29681   1.016   9.723   2.648 -0.1101  0.4010 -0.8209
 9048SOL    HW129682   1.051   9.773   2.574  0.1173 -0.2830 -1.1861
 9048SOL    HW229683   1.092   9.675   2.682 -0.7281 -1.3171 -1.8050
 9049SOL     OW29684   1.863   9.690   3.136 -0.0221 -0.1399 -0.4931
 9049SOL    HW129685   1.804   9.729   3.072 -0.5676  0.7065  0.5169
 9049SOL    HW229686   1.951   9.703   3.100 -0.3604 -0.1440 -1.3178
 9050SOL     OW29687   5.960   9.025   2.053 -0.4803  0.5961 -0.2299
 9050SOL    HW129688   5.994   8.939   2.076 -1.8613  0.2745  0.6664
 9050SOL    HW229689   5.870   9.025   2.085 -1.2390  1.5370 -2.2978
 9051SOL     OW29690   7.846   8.584   7.554 -0.0213  0.1969  0.0638
 9051SOL    HW129691   7.851   8.533   7.635 -0.9882  1.2541  0.8054
 9051SOL    HW229692   7.907   8.657   7.568  0.3935 -0.0450 -0.4715
 9052SOL     OW29693   7.534   7.050   6.592  0.3239  0.6512 -0.1668
 9052SOL    HW129694   7.442   7.060   6.567  0.0878  0.9807  0.7785
 9052SOL    HW229695   7.532   7.054   6.688  1.1996 -0.4505 -0.1043
 9053SOL     OW29696   3.904   7.062   0.787 -0.0741  0.0753  0.5108
 9053SOL    HW129697   3.830   7.017   0.827  0.8614 -1.0933  0.9518
 9053SOL    HW229698   3.896   7.044   0.693 -0.9959  0.9170  0.4293
 9054SOL     OW29699   7.516   4.649   9.231  0.1105 -0.2717 -0.0379
 9054SOL    HW129700   7.556   4.679   9.148  0.4040 -0.1018  0.1626
 9054SOL    HW229701   7.431   4.615   9.205  0.1549 -0.1187 -0.3990
 9055SOL     OW29702   7.711   7.213   6.438 -0.4372  0.2082  0.1646
 9055SOL    HW129703   7.673   7.224   6.351  0.7319  0.9750 -0.2717
 9055SOL    HW229704   7.654   7.150   6.482  1.0948 -3.0908 -2.4345
 9056SOL     OW29705   7.908   5.826   4.600  0.1395  0.2182  1.1339
 9056SOL    HW129706   7.843   5.771   4.557  0.2288  1.0518 -0.0982
 9056SOL    HW229707   7.993   5.792   4.571  0.2153  0.2496  1.3161
 9057SOL     OW29708   7.740   0.909   5.249  0.0754  0.0700 -0.3061
 9057SOL    HW129709   7.658   0.945   5.216 -0.0301  0.1227  0.0163
 9057SOL    HW229710   7.806   0.976   5.226 -0.2140  0.7642  0.8320
 9058SOL     OW29711   8.682   4.671   1.996  0.1158  0.2639 -0.4083
 9058SOL    HW129712   8.765   4.715   1.977  0.5811  1.2385  3.3143
 9058SOL    HW229713   8.704   4.610   2.067 -1.9851 -0.7837 -0.6405
 9059SOL     OW29714   7.197   4.367   1.796 -0.0192  0.5093  0.0565
 9059SOL    HW129715   7.167   4.386   1.885  0.7067  0.1884  0.3775
 9059SOL    HW229716   7.262   4.297   1.807  0.7045  1.0602 -0.6271
 9060SOL     OW29717   6.020   8.667   1.435  0.1820 -0.7564  0.0478
 9060SOL    HW129718   5.949   8.617   1.396 -0.5467  1.1136 -1.0776
 9060SOL    HW229719   5.979   8.717   1.505  0.1668  1.0299 -1.1933
 9061SOL     OW29720   9.224   7.257   5.631 -0.7442 -0.6665  0.0314
 9061SOL    HW129721   9.318   7.248   5.616 -0.4215  2.4457 -0.2766
 9061SOL    HW229722   9.203   7.344   5.597 -3.5978 -1.0055  0.7935
 9062SOL     OW29723   1.523  10.203   9.785  0.3413  0.2303  0.6247
 9062SOL    HW129724   1.483  10.247   9.710 -0.6364 -2.6088 -0.6027
 9062SOL    HW229725   1.613  10.236   9.787 -0.1481  1.7200 -0.6523
 9063SOL     OW29726   0.877   6.242   9.268 -0.3510 -0.0183  0.1276
 9063SOL    HW129727   0.931   6.320   9.275 -0.1414 -0.0383 -1.1252
 9063SOL    HW229728   0.800   6.270   9.218 -0.0707 -0.6966 -0.7150
 9064SOL     OW29729   6.594   7.667   5.935 -0.8146  0.0282 -0.1365
 9064SOL    HW129730   6.561   7.756   5.920 -0.0035  0.5179  0.8766
 9064SOL    HW229731   6.683   7.669   5.897 -0.1820  0.1452  1.3319
 9065SOL     OW29732   7.449   0.851   8.688  0.5967  0.3123  0.2964
 9065SOL    HW129733   7.501   0.777   8.659  2.8232  1.8305  0.2726
 9065SOL    HW229734   7.435   0.904   8.609  0.5619  0.8224  0.6377
 9066SOL     OW29735   5.565   1.128   1.326  0.0844 -0.0204 -0.1006
 9066SOL    HW129736   5.494   1.101   1.384  0.5218  0.2719  0.5805
 9066SOL    HW229737   5.594   1.047   1.284  0.1030 -0.3105  0.4747
 9067SOL     OW29738   2.716   3.759   9.388 -0.2007 -0.2967  0.1544
 9067SOL    HW129739   2.804   3.797   9.384 -0.0031 -0.7497  0.2258
 9067SOL    HW229740   2.667   3.818   9.445  0.2000 -0.3334  0.5405
 9068SOL     OW29741   8.384   6.157   7.056 -0.2427  0.3367 -0.1390
 9068SOL    HW129742   8.466   6.205   7.048  0.9613 -1.8783 -1.8799
 9068SOL    HW229743   8.327   6.194   6.988  0.0022  0.5838 -0.2111
 9069SOL     OW29744   0.240   4.840   6.336  0.1490  0.5651 -0.3211
 9069SOL    HW129745   0.170   4.788   6.296  0.7609  0.3491 -1.1296
 9069SOL    HW229746   0.206   4.929   6.337 -0.5805  0.2861  0.3157
 9070SOL     OW29747   2.889   6.354   5.873  0.2622  0.0687  0.0738
 9070SOL    HW129748   2.818   6.419   5.871  0.9999  0.8503 -0.9575
 9070SOL    HW229749   2.935   6.372   5.955 -1.3420 -1.1180  1.2704
 9071SOL     OW29750   6.735   8.588   9.364  0.1957  0.2030  0.5196
 9071SOL    HW129751   6.825   8.561   9.383  0.8031  1.6724 -0.2123
 9071SOL    HW229752   6.681   8.527   9.414  1.5768 -1.0664  0.5193
 9072SOL     OW29753   9.791   3.508   1.735 -0.1239 -0.4053 -0.4655
 9072SOL    HW129754   9.850   3.441   1.700 -0.0763 -2.3442  3.1084
 9072SOL    HW229755   9.842   3.551   1.804 -1.2699  1.1845 -0.5747
 9073SOL     OW29756   4.597   1.447   5.568  0.0362  0.1638 -0.5612
 9073SOL    HW129757   4.522   1.423   5.514 -1.0587  0.1299  0.9457
 9073SOL    HW229758   4.568   1.433   5.658  1.4668  1.2521  0.1001
 9074SOL     OW29759   2.421   7.322   9.165 -0.2004  0.4570 -0.0224
 9074SOL    HW129760   2.362   7.246   9.163 -0.2637  0.5196 -0.9632
 9074SOL    HW229761   2.442   7.333   9.257 -1.4254  0.2485  0.2962
 9075SOL     OW29762   8.661   8.237   5.423  0.5964 -0.3076 -0.2689
 9075SOL    HW129763   8.733   8.300   5.428 -0.9217  1.4202  0.1723
 9075SOL    HW229764   8.618   8.256   5.340 -0.7344  0.2109  0.5239
 9076SOL     OW29765   8.589   5.345   4.043 -0.1587 -0.2438  0.0216
 9076SOL    HW129766   8.543   5.276   4.091  0.0885 -0.4008  0.0340
 9076SOL    HW229767   8.664   5.367   4.097 -0.6564  0.5717  0.3751
 9077SOL     OW29768   1.765   8.567   3.527  0.2693  0.1079 -0.0550
 9077SOL    HW129769   1.784   8.473   3.520 -0.8163 -0.2631  1.7760
 9077SOL    HW229770   1.677   8.576   3.491 -0.7665 -0.0395  2.3803
 9078SOL     OW29771   7.889   6.850   3.128 -0.6941  0.5826  0.3024
 9078SOL    HW129772   7.981   6.827   3.138 -0.7196 -1.2784 -3.0017
 9078SOL    HW229773   7.888   6.946   3.124  0.9266  0.6719  1.4855
 9079SOL     OW29774   3.464   3.069   6.552  0.4603 -0.8117 -0.2393
 9079SOL    HW129775   3.424   3.103   6.632 -0.3418  0.2120 -1.0718
 9079SOL    HW229776   3.483   2.977   6.572  0.5419 -0.4876  1.2257
 9080SOL     OW29777   8.490   3.624   3.899 -0.3155 -0.3558  0.3878
 9080SOL    HW129778   8.414   3.568   3.920 -0.6257  0.2699  0.9635
 9080SOL    HW229779   8.532   3.639   3.984 -0.2046  0.2422  0.2242
 9081SOL     OW29780   7.330   9.588   6.366  0.1159 -0.7600 -0.2484
 9081SOL    HW129781   7.312   9.498   6.338  1.3066 -1.4196  1.0419
 9081SOL    HW229782   7.423   9.601   6.348 -0.0262  0.2057 -0.3428
 9082SOL     OW29783   2.356   2.951   0.058 -0.6529  0.0988 -0.5063
 9082SOL    HW129784   2.371   2.935   0.151  0.8034 -1.4851 -0.9826
 9082SOL    HW229785   2.320   3.039   0.054 -0.8692  0.1207  1.5703
 9083SOL     OW29786   4.096   0.717   6.980 -0.1885  0.1743 -0.3000
 9083SOL    HW129787   4.165   0.661   7.016  0.8824  0.8906 -1.1912
 9083SOL    HW229788   4.123   0.806   7.001 -0.0539  0.5481 -1.9499
 9084SOL     OW29789   0.689   5.394  10.134  0.4984 -0.4915  0.1502
 9084SOL    HW129790   0.673   5.406  10.040  0.3685 -0.3409  0.1911
 9084SOL    HW229791   0.773   5.349  10.138  1.1147  0.6211 -0.0016
 9085SOL     OW29792   9.329   7.150   2.363 -0.1464 -0.1868  0.0671
 9085SOL    HW129793   9.422   7.163   2.346 -0.0469 -1.9815 -0.8025
 9085SOL    HW229794   9.288   7.232   2.335  1.3998  1.5416  2.6709
 9086SOL     OW29795   0.876   7.213   2.639  0.4802  0.1668 -0.6451
 9086SOL    HW129796   0.960   7.167   2.650 -1.0938 -3.1656 -1.9933
 9086SOL    HW229797   0.850   7.236   2.728  1.5862 -1.0692  0.0187
 9087SOL     OW29798   0.487   5.890   7.381 -0.3585  0.8821  0.0790
 9087SOL    HW129799   0.556   5.948   7.349 -2.0233  1.3762 -2.7014
 9087SOL    HW229800   0.433   5.871   7.305 -3.3752  0.5428  2.1916
 9088SOL     OW29801   2.762   0.419   5.782  0.7116 -0.6787 -0.5432
 9088SOL    HW129802   2.700   0.443   5.712 -0.1371  1.1531  0.7911
 9088SOL    HW229803   2.828   0.365   5.738 -1.4620 -2.1493 -2.1446
 9089SOL     OW29804   2.588   5.280   6.544  0.0969  0.3295 -0.0764
 9089SOL    HW129805   2.560   5.329   6.466 -0.7360  1.3932  0.8789
 9089SOL    HW229806   2.510   5.276   6.599  1.0446  0.7307  1.3017
 9090SOL     OW29807   8.313   9.354   5.544  0.2276 -0.3529  0.4114
 9090SOL    HW129808   8.238   9.314   5.587 -0.0742 -0.6526 -0.3830
 9090SOL    HW229809   8.387   9.337   5.602 -0.1250 -0.9879  0.6721
 9091SOL     OW29810  10.038   2.968   2.922  0.2399 -0.2945 -0.2771
 9091SOL    HW129811  10.007   2.892   2.971  0.8385 -0.9805 -0.9536
 9091SOL    HW229812  10.120   2.992   2.964  0.5841 -0.6762 -0.7291
 9092SOL     OW29813   2.487   6.111   3.122  0.2273 -0.2060 -0.1439
 9092SOL    HW129814   2.502   6.016   3.128  2.1325  0.0581 -0.5826
 9092SOL    HW229815   2.520   6.146   3.205  1.7451  0.3364 -0.9601
 9093SOL     OW29816   4.538   9.600   8.020 -0.1167 -0.2338 -0.4706
 9093SOL    HW129817   4.622   9.600   7.975  0.1671  0.2369  0.0525
 9093SOL    HW229818   4.556   9.566   8.107 -0.7174 -1.4048 -0.7929
 9094SOL     OW29819   3.877   7.674   9.552 -0.1144 -0.5189 -0.2157
 9094SOL    HW129820   3.824   7.639   9.624  1.9167  0.8399  2.0370
 9094SOL    HW229821   3.928   7.598   9.522  1.9561 -0.3352  2.5430
 9095SOL     OW29822   6.429   5.401   9.784  0.2054 -0.1576 -0.3116
 9095SOL    HW129823   6.364   5.470   9.771  1.2961  1.1497  0.9539
 9095SOL    HW229824   6.479   5.399   9.703 -0.9349 -0.6809 -1.0208
 9096SOL     OW29825   5.521   9.934   8.662  0.2028  0.3833  0.2984
 9096SOL    HW129826   5.470   9.913   8.584  1.4178 -0.5003 -0.2837
 9096SOL    HW229827   5.611   9.912   8.637  0.2946 -2.3068  2.7900
 9097SOL     OW29828   5.403   3.964   9.592  0.1868 -0.3598 -0.1081
 9097SOL    HW129829   5.360   4.028   9.537  0.2592  0.1992  0.4760
 9097SOL    HW229830   5.332   3.925   9.644  0.1542 -0.6905 -0.3995
 9098SOL     OW29831   3.285   8.569   2.037 -0.3164 -0.3683  0.3339
 9098SOL    HW129832   3.353   8.605   2.094  1.1380  1.1926 -2.2697
 9098SOL    HW229833   3.236   8.509   2.093 -0.1092  2.4220  3.7321
 9099SOL     OW29834   1.945   8.692   3.252 -0.2907 -0.1685 -0.2884
 9099SOL    HW129835   1.986   8.717   3.334 -0.2274  0.7858 -0.6100
 9099SOL    HW229836   2.012   8.643   3.205 -0.5158 -1.2369  0.4658
 9100SOL     OW29837   3.134   1.532   9.926  0.0283 -0.5798 -0.7689
 9100SOL    HW129838   3.075   1.490   9.989  0.8607  1.2654  1.2905
 9100SOL    HW229839   3.076   1.561   9.856 -1.7439  2.0427  1.6592
 9101SOL     OW29840   5.232   6.597   2.101 -0.2767  0.0579 -0.0524
 9101SOL    HW129841   5.284   6.611   2.180 -1.0537 -3.4235  1.1876
 9101SOL    HW229842   5.171   6.527   2.125  0.8031 -2.5445 -4.3245
 9102SOL     OW29843   5.521   5.590   3.992 -0.0714 -0.1285  0.3754
 9102SOL    HW129844   5.614   5.604   3.973 -0.1073  0.5023  0.6484
 9102SOL    HW229845   5.475   5.655   3.940 -0.2135  1.1662  2.0716
 9103SOL     OW29846   7.903   3.585  10.054  0.5125  0.4606 -0.2503
 9103SOL    HW129847   7.953   3.657  10.093  0.5218 -0.3648  1.3064
 9103SOL    HW229848   7.815   3.595  10.091  0.0294  0.7319 -1.4387
 9104SOL     OW29849   1.135   7.267   0.746  0.0304  0.3100  0.2283
 9104SOL    HW129850   1.046   7.236   0.756 -0.2971 -0.0070 -3.0565
 9104SOL    HW229851   1.190   7.192   0.769 -0.5642  0.0379  0.7526
 9105SOL     OW29852   0.084   8.712   6.635  0.5224 -0.0631  0.2215
 9105SOL    HW129853   0.049   8.801   6.629  0.6049 -0.1064 -1.0436
 9105SOL    HW229854   0.080   8.691   6.728  1.8999  1.8269  0.7246
 9106SOL     OW29855   6.895   2.359   9.420  0.2012  0.5908 -0.1434
 9106SOL    HW129856   6.860   2.348   9.509 -0.2368 -0.4814 -0.4435
 9106SOL    HW229857   6.931   2.448   9.420 -0.7553  0.9966  0.7753
 9107SOL     OW29858   8.640   9.897   2.145 -0.2345 -0.1266  0.0390
 9107SOL    HW129859   8.624   9.819   2.198  0.1406  1.0637  1.9972
 9107SOL    HW229860   8.576   9.961   2.177 -0.4660  0.4076 -1.4487
 9108SOL     OW29861   4.618   2.468   2.682  0.5387 -0.3440 -0.2347
 9108SOL    HW129862   4.528   2.480   2.712  0.5346 -0.5224 -0.1770
 9108SOL    HW229863   4.611   2.469   2.586  0.5804  0.4167 -0.2326
 9109SOL     OW29864   0.587   4.884   5.580 -0.3405  0.5313  0.2374
 9109SOL    HW129865   0.584   4.799   5.625  0.4638 -0.2592 -1.1415
 9109SOL    HW229866   0.616   4.946   5.646  2.0204 -0.8181  0.5348
 9110SOL     OW29867   2.249   9.259   9.368 -0.9483 -0.1090 -0.3120
 9110SOL    HW129868   2.230   9.307   9.287  0.8660 -1.0150 -1.3120
 9110SOL    HW229869   2.254   9.327   9.435  2.1358  1.2595 -1.7937
 9111SOL     OW29870   9.590  10.053   3.013  0.2082 -0.3704 -0.3228
 9111SOL    HW129871   9.660  10.016   3.068  0.5790 -1.4448 -1.5154
 9111SOL    HW229872   9.546   9.978   2.975 -0.2528  0.3633 -1.2651
 9112SOL     OW29873   9.528   0.031   4.935 -0.2428  0.1157 -0.3282
 9112SOL    HW129874   9.452  -0.010   4.894 -1.1535 -1.1123  2.4869
 9112SOL    HW229875   9.603  -0.006   4.889 -1.2236 -1.4241 -0.7257
 9113SOL     OW29876   5.270   2.626   6.678  0.3511 -0.1595  0.0745
 9113SOL    HW129877   5.293   2.707   6.632  0.4592  0.2148  0.7811
 9113SOL    HW229878   5.354   2.583   6.694  0.2276 -0.8075 -1.0243
 9114SOL     OW29879   9.836   8.861   5.022  0.5978 -0.3705  0.3570
 9114SOL    HW129880   9.907   8.918   5.053 -1.1862  1.9527  0.3197
 9114SOL    HW229881   9.757   8.897   5.063 -0.4645 -3.5195  1.2285
 9115SOL     OW29882   4.995   8.881   8.031  0.2880  0.2530  0.2508
 9115SOL    HW129883   5.010   8.965   8.074  1.4351  0.1966 -0.0370
 9115SOL    HW229884   4.901   8.882   8.009  0.0613  0.9906  1.2128
 9116SOL     OW29885   3.142   6.006   3.164  0.1536  0.5946 -0.3585
 9116SOL    HW129886   3.073   5.987   3.227 -0.3891  1.1425 -0.7887
 9116SOL    HW229887   3.194   6.075   3.205 -1.1777  2.1486 -1.2020
 9117SOL     OW29888   0.569   8.319   5.675 -0.0413 -0.1198 -0.0736
 9117SOL    HW129889   0.624   8.391   5.705  1.3162  0.0557 -2.8259
 9117SOL    HW229890   0.618   8.240   5.697  1.1295  0.0206 -2.0761
 9118SOL     OW29891   3.476   2.778   7.500  0.0454 -0.1598 -0.2076
 9118SOL    HW129892   3.515   2.751   7.416  0.5066 -3.0084  0.8536
 9118SOL    HW229893   3.458   2.695   7.545 -1.7097  1.2957  1.8410
 9119SOL     OW29894   5.192   3.506   4.533 -0.1197 -0.0992 -0.4253
 9119SOL    HW129895   5.248   3.535   4.605  2.9652 -3.5523 -1.3277
 9119SOL    HW229896   5.178   3.413   4.549 -2.4455 -0.1412 -2.3840
 9120SOL     OW29897   2.175   8.917   4.945  0.8670  0.2768 -0.1288
 9120SOL    HW129898   2.145   8.835   4.986 -0.9419  1.0668  0.1802
 9120SOL    HW229899   2.260   8.934   4.985  0.5900 -0.6752  0.9047
 9121SOL     OW29900   2.330   3.702   3.334  0.0528  0.1740 -0.1470
 9121SOL    HW129901   2.417   3.743   3.332  0.4610 -0.5759  1.9003
 9121SOL    HW229902   2.344   3.615   3.296  0.4128 -0.3470  1.1767
 9122SOL     OW29903   3.907   0.655   4.129  0.3487 -0.0384 -0.5073
 9122SOL    HW129904   3.848   0.665   4.054  0.8695  0.4332 -0.8596
 9122SOL    HW229905   3.983   0.608   4.093  0.4974 -0.0193 -0.2161
 9123SOL     OW29906  10.088   9.240   0.511 -0.0946  0.1623 -0.4452
 9123SOL    HW129907  10.018   9.305   0.504 -0.2346 -0.1880 -2.4482
 9123SOL    HW229908  10.138   9.250   0.430  0.3797 -1.6565 -0.3857
 9124SOL     OW29909   8.419  10.004   5.457 -0.0679 -0.5367 -0.3422
 9124SOL    HW129910   8.348  10.008   5.394 -0.4291 -1.2597  0.0179
 9124SOL    HW229911   8.444   9.912   5.461  1.4758 -0.1594 -1.1047
 9125SOL     OW29912   6.284   7.148   9.131 -0.4099  0.0514 -0.1057
 9125SOL    HW129913   6.338   7.109   9.199 -0.7668  0.6207  0.5133
 9125SOL    HW229914   6.341   7.152   9.055  0.4478  0.7308  0.5623
 9126SOL     OW29915   3.250   7.594   1.953 -0.3845 -0.2534 -0.1101
 9126SOL    HW129916   3.168   7.570   1.996 -0.6579  0.1991 -0.3810
 9126SOL    HW229917   3.254   7.539   1.875  0.3305 -1.4039  0.7215
 9127SOL     OW29918   1.854   2.728   7.008  0.4066 -0.1329  0.0820
 9127SOL    HW129919   1.798   2.650   7.016 -0.4552  0.5061  0.3223
 9127SOL    HW229920   1.834   2.763   6.921 -0.0341  0.4541  0.4172
 9128SOL     OW29921   3.472   7.899   6.924 -0.2504  0.2840 -0.2061
 9128SOL    HW129922   3.496   7.981   6.967  0.4735 -0.8153  1.5426
 9128SOL    HW229923   3.409   7.859   6.984 -0.9838 -0.2201 -1.2988
 9129SOL     OW29924   0.214   7.135   6.992 -0.0945  0.0790  0.1788
 9129SOL    HW129925   0.262   7.210   7.027  1.5582 -1.7323  1.9206
 9129SOL    HW229926   0.257   7.116   6.908  1.9293 -1.1687  1.4576
 9130SOL     OW29927   0.224   3.658   5.934  0.5667 -0.1615  0.0687
 9130SOL    HW129928   0.245   3.625   6.021  1.5024  0.3494  0.0490
 9130SOL    HW229929   0.212   3.752   5.946 -0.6101 -0.2872 -0.1275
 9131SOL     OW29930   0.589   4.863   8.091 -0.0131  1.3451 -0.0571
 9131SOL    HW129931   0.666   4.807   8.087 -1.3879 -0.6220  0.1366
 9131SOL    HW229932   0.592   4.902   8.178  0.2843  0.5527  0.2970
 9132SOL     OW29933   8.278   9.795   5.859  0.2256 -0.4937 -0.2662
 9132SOL    HW129934   8.281   9.889   5.840 -0.6378 -0.5735 -0.8566
 9132SOL    HW229935   8.248   9.789   5.950 -1.5250 -0.2363 -0.8165
 9133SOL     OW29936   2.957   7.791   2.134  0.0119 -0.5662 -0.2587
 9133SOL    HW129937   3.011   7.858   2.092  0.2150 -0.2602  0.4720
 9133SOL    HW229938   2.992   7.708   2.102 -0.1480 -0.3316 -1.0581
 9134SOL     OW29939   0.267   0.526   2.992  0.6317 -0.2754 -0.7109
 9134SOL    HW129940   0.283   0.620   2.991  0.9457 -0.3272 -0.5923
 9134SOL    HW229941   0.181   0.516   2.951  0.3591  0.1082 -0.2453
 9135SOL     OW29942   2.302   5.594   9.011  0.5590 -0.0615  0.3146
 9135SOL    HW129943   2.214   5.613   8.977  0.3839  0.3645  0.9906
 9135SOL    HW229944   2.360   5.647   8.958  0.3448  0.1341  0.2711
 9136SOL     OW29945   6.410   8.963   4.587  0.3826 -0.0828 -0.0579
 9136SOL    HW129946   6.495   8.990   4.552  0.3736 -1.1600 -0.9362
 9136SOL    HW229947   6.354   8.954   4.509 -0.2545 -0.3724  0.4310
 9137SOL     OW29948   1.919   4.326   0.392 -0.5856 -0.1801  0.5783
 9137SOL    HW129949   1.835   4.284   0.414 -0.6685 -0.3368 -0.0042
 9137SOL    HW229950   1.905   4.361   0.304  0.6335 -2.0581 -0.4017
 9138SOL     OW29951   9.053   6.990   6.228 -0.1991 -0.5973 -0.5516
 9138SOL    HW129952   8.975   7.042   6.242  0.0534 -0.2157 -0.5545
 9138SOL    HW229953   9.105   7.041   6.165  0.7595 -0.0986  0.6395
 9139SOL     OW29954   7.867   7.255   4.614 -0.6676 -0.0345 -0.0737
 9139SOL    HW129955   7.906   7.181   4.568 -0.2707  0.5086 -0.6260
 9139SOL    HW229956   7.868   7.230   4.706  0.7696 -0.1386 -0.1048
 9140SOL     OW29957   8.050   3.619   3.302  0.1873  0.3283 -0.5889
 9140SOL    HW129958   8.140   3.648   3.318 -0.3630  1.1868  1.0843
 9140SOL    HW229959   8.002   3.700   3.285 -0.5385  0.0181 -0.0347
 9141SOL     OW29960   3.362   1.568   9.799 -0.0318 -0.4220 -0.5373
 9141SOL    HW129961   3.390   1.637   9.859 -1.4779 -0.3505  0.0756
 9141SOL    HW229962   3.278   1.538   9.834 -0.2270 -1.3331 -1.7458
 9142SOL     OW29963   1.130   5.440   7.042  0.3452 -0.8057  0.5165
 9142SOL    HW129964   1.181   5.517   7.068 -0.9734  0.6460 -1.1427
 9142SOL    HW229965   1.196   5.372   7.028  1.6895  0.5477  0.1453
 9143SOL     OW29966   2.139   8.258  10.082 -0.7427  0.4253 -0.2141
 9143SOL    HW129967   2.139   8.322  10.153  0.9507  1.6826 -1.3089
 9143SOL    HW229968   2.145   8.310  10.003 -0.7509 -1.0452 -1.1983
 9144SOL     OW29969   6.414   5.958   5.137  0.1767 -0.0382 -0.6677
 9144SOL    HW129970   6.434   6.018   5.210 -0.6929  0.4298 -0.8073
 9144SOL    HW229971   6.441   5.872   5.169  0.3017  0.2438  0.0089
 9145SOL     OW29972   7.318   0.497   4.268 -0.4208  0.0850 -0.4940
 9145SOL    HW129973   7.351   0.576   4.310 -0.8400  1.0627 -1.9309
 9145SOL    HW229974   7.223   0.502   4.279 -0.3857 -0.6865  0.1935
 9146SOL     OW29975   0.326   8.613   0.280  0.7198  0.2559 -0.3935
 9146SOL    HW129976   0.274   8.541   0.317 -0.7701  1.8299  0.6560
 9146SOL    HW229977   0.408   8.611   0.328  0.7211 -0.8109 -0.4347
 9147SOL     OW29978   8.823   7.702   3.029 -0.2858  0.0147  0.4551
 9147SOL    HW129979   8.878   7.685   2.952  1.2908  0.3070  1.4847
 9147SOL    HW229980   8.830   7.797   3.042  0.0487 -0.1303  1.3765
 9148SOL     OW29981   9.342   1.398   3.040 -0.3722  0.1819 -0.2162
 9148SOL    HW129982   9.384   1.317   3.010  0.1899  0.4066 -0.0430
 9148SOL    HW229983   9.289   1.371   3.115  0.7438  0.1729  0.5832
 9149SOL     OW29984   2.147   5.400   8.638  0.0317 -0.3458 -0.5520
 9149SOL    HW129985   2.065   5.441   8.663  0.0740 -0.1166 -0.7819
 9149SOL    HW229986   2.204   5.411   8.714  0.7388  1.8994 -1.3654
 9150SOL     OW29987   5.353   3.768   2.899 -0.7429  0.3510  0.5209
 9150SOL    HW129988   5.295   3.768   2.823 -1.0066 -1.4970  0.7045
 9150SOL    HW229989   5.295   3.747   2.973 -0.2936  1.0271  1.0718
 9151SOL     OW29990   8.798   7.591   5.065  0.2697 -0.6043 -0.2479
 9151SOL    HW129991   8.893   7.596   5.076  0.1396  2.6262 -0.2551
 9151SOL    HW229992   8.786   7.563   4.974  1.1810 -1.6930 -0.0525
 9152SOL     OW29993   5.071   0.109   8.333  0.2032  0.1635  0.2017
 9152SOL    HW129994   5.107   0.021   8.347  0.3915  0.4506  1.5669
 9152SOL    HW229995   4.978   0.100   8.353  0.1177  0.1629 -0.1846
 9153SOL     OW29996   7.077   7.270   7.682 -0.2204 -0.2064  0.3980
 9153SOL    HW129997   7.092   7.350   7.733 -0.1523 -0.6464  1.0816
 9153SOL    HW229998   7.039   7.209   7.745  0.7784 -1.0784  0.1638
 9154SOL     OW29999   2.759   9.745   3.434 -0.2235  0.3044  0.4051
 9154SOL    HW130000   2.758   9.698   3.350  0.2374 -2.1269  1.7113
 9154SOL    HW230001   2.695   9.815   3.423 -1.6695 -1.2136 -1.3189
 9155SOL     OW30002   8.723   2.097   5.413 -0.4354  0.3327 -0.4767
 9155SOL    HW130003   8.632   2.085   5.439 -0.3632 -1.6103 -0.9841
 9155SOL    HW230004   8.762   2.010   5.424  0.8472  0.6643 -2.1713
 9156SOL     OW30005   7.505   6.919   4.512  0.5368  0.0729 -0.0344
 9156SOL    HW130006   7.451   6.912   4.433  0.0768  0.1642  0.2695
 9156SOL    HW230007   7.508   7.013   4.530 -0.0150 -0.0093  0.5037
 9157SOL     OW30008   6.979   8.485   9.435 -0.4840 -0.2729  0.0189
 9157SOL    HW130009   7.039   8.519   9.501 -0.0388  1.7402 -1.3464
 9157SOL    HW230010   7.031   8.422   9.385  0.5123  1.3774 -1.0847
 9158SOL     OW30011   7.873   2.919   5.274  0.2508  0.5445 -0.3249
 9158SOL    HW130012   7.912   2.885   5.354  0.3805 -0.1142 -0.6633
 9158SOL    HW230013   7.880   3.014   5.282  2.1664  0.4361 -0.4946
 9159SOL     OW30014   6.362   9.796   8.530 -0.0773 -0.0446  0.2778
 9159SOL    HW130015   6.302   9.750   8.589  0.5284 -0.9071  0.2308
 9159SOL    HW230016   6.440   9.741   8.527  0.9267  1.3259  0.7206
 9160SOL     OW30017   8.299   9.115   2.676 -0.0920  0.7738 -0.1898
 9160SOL    HW130018   8.355   9.161   2.613 -0.1598  1.7726  0.4657
 9160SOL    HW230019   8.345   9.033   2.694 -0.6594 -0.0455 -2.4216
 9161SOL     OW30020   8.176   5.274   9.711  0.3653 -0.1824 -0.2194
 9161SOL    HW130021   8.156   5.197   9.658 -1.1345 -0.2237  0.3704
 9161SOL    HW230022   8.174   5.241   9.801 -1.3710  0.7479  0.1072
 9162SOL     OW30023   7.083  10.086   7.648  0.3572  0.4637 -0.8055
 9162SOL    HW130024   7.087   9.992   7.662 -0.2993  0.6841  1.0203
 9162SOL    HW230025   7.021  10.098   7.576 -0.5604 -0.4210 -0.1736
 9163SOL     OW30026   9.655   5.763   4.175 -0.7078  0.3890  0.1010
 9163SOL    HW130027   9.667   5.729   4.264  1.6291  0.0814 -0.2755
 9163SOL    HW230028   9.660   5.858   4.185  1.5615  0.2976  0.0775
 9164SOL     OW30029   8.813   6.509  10.021 -0.0714  0.2697  0.2097
 9164SOL    HW130030   8.810   6.415  10.004  1.6579  0.3692 -0.6951
 9164SOL    HW230031   8.832   6.515  10.115  1.6455 -0.2961 -0.0889
 9165SOL     OW30032   8.024   3.127   6.015 -0.0474 -0.0772 -0.0033
 9165SOL    HW130033   8.067   3.107   6.098  1.7053 -0.8110 -1.0675
 9165SOL    HW230034   7.939   3.084   6.021  0.8226 -1.7206  0.6499
 9166SOL     OW30035   3.488   8.302   5.848  0.7252  0.2337 -0.2301
 9166SOL    HW130036   3.440   8.221   5.864 -0.4016  0.9912  0.2946
 9166SOL    HW230037   3.566   8.275   5.800 -0.5922 -0.9334 -1.7635
 9167SOL     OW30038   6.233   0.941   8.961  0.7273 -0.4454 -0.3239
 9167SOL    HW130039   6.294   0.925   9.033  1.6515 -1.1132 -1.2274
 9167SOL    HW230040   6.208   0.853   8.932 -1.0575 -0.1684  0.3531
 9168SOL     OW30041   4.329   1.571   3.450 -0.4425  0.2364 -0.2683
 9168SOL    HW130042   4.275   1.497   3.478  1.8066 -1.4480 -0.2936
 9168SOL    HW230043   4.353   1.550   3.360  0.0928  1.0694 -0.3250
 9169SOL     OW30044   3.593   7.881   6.117  0.4237  0.2220 -0.3254
 9169SOL    HW130045   3.520   7.909   6.061  0.3842 -1.0761 -0.9584
 9169SOL    HW230046   3.552   7.853   6.199  0.3055  0.4648 -0.3024
 9170SOL     OW30047   7.153   7.271   1.103  0.2046  0.1852 -0.2327
 9170SOL    HW130048   7.093   7.245   1.173  1.1097 -0.8343  0.1665
 9170SOL    HW230049   7.225   7.208   1.107  1.0524  1.0772 -1.0519
 9171SOL     OW30050   6.419   8.756   1.634 -0.2901  0.0006 -0.2544
 9171SOL    HW130051   6.504   8.717   1.609 -0.9940 -2.0430  0.4418
 9171SOL    HW230052   6.363   8.741   1.558 -0.3198  0.4648 -0.3260
 9172SOL     OW30053   5.045   6.962   8.397 -0.0685 -0.1616 -0.6414
 9172SOL    HW130054   4.995   6.895   8.350 -0.5898 -0.7074  0.6771
 9172SOL    HW230055   5.129   6.966   8.352 -0.2755 -1.2419 -1.1211
 9173SOL     OW30056   9.837   8.081   9.027  0.3522  0.4773 -0.1089
 9173SOL    HW130057   9.898   8.008   9.013 -0.3409 -0.3255  1.0426
 9173SOL    HW230058   9.835   8.093   9.122 -0.9004  0.8299 -0.1755
 9174SOL     OW30059   4.408   5.815   9.670  0.3382 -0.2816 -0.3402
 9174SOL    HW130060   4.361   5.801   9.588 -1.2373  0.2521  0.4472
 9174SOL    HW230061   4.393   5.907   9.691  1.4012 -0.2130  0.1437
 9175SOL     OW30062   9.186   8.615   1.395  0.8811 -0.1115 -0.4095
 9175SOL    HW130063   9.200   8.703   1.359  2.2723 -1.2238 -2.6713
 9175SOL    HW230064   9.267   8.596   1.443  0.8426 -0.4310 -0.4745
 9176SOL     OW30065   0.042  10.112  10.087 -0.0252 -0.3102  0.0769
 9176SOL    HW130066   0.031  10.204  10.062 -1.1375 -0.5419 -0.3276
 9176SOL    HW230067   0.078  10.070  10.008 -0.2860 -0.3806 -0.0031
 9177SOL     OW30068   8.892   7.687   7.201  0.5536  0.3164  0.7262
 9177SOL    HW130069   8.842   7.607   7.219 -0.7139  0.8735 -0.1814
 9177SOL    HW230070   8.830   7.758   7.218  1.1878  1.0459  0.0518
 9178SOL     OW30071   7.451   6.653   5.171  0.4432 -0.1726 -0.2026
 9178SOL    HW130072   7.482   6.650   5.261  0.5685  0.3885 -0.2227
 9178SOL    HW230073   7.504   6.588   5.125  1.1106  0.2728 -0.0858
 9179SOL     OW30074   0.080   5.466  10.121  0.4554 -0.0446 -0.5940
 9179SOL    HW130075   0.049   5.554  10.098  1.0498 -0.0460 -1.4250
 9179SOL    HW230076   0.083   5.466  10.217 -0.5067  0.5029 -0.5598
 9180SOL     OW30077   9.273   7.995   8.509 -0.2889 -0.3363 -0.0773
 9180SOL    HW130078   9.350   7.938   8.499 -0.2823 -0.4772  0.7339
 9180SOL    HW230079   9.300   8.078   8.469  0.5617 -0.1425  0.8899
 9181SOL     OW30080   5.659   0.792   0.075 -0.0835 -0.0960  0.1793
 9181SOL    HW130081   5.578   0.809   0.026 -1.0061 -2.5313  0.8201
 9181SOL    HW230082   5.677   0.699   0.062  2.1940  0.2352  0.7139
 9182SOL     OW30083   1.488   2.761   1.592  0.4034  0.0776  0.8533
 9182SOL    HW130084   1.480   2.724   1.505 -0.8483 -0.7759  1.3069
 9182SOL    HW230085   1.576   2.738   1.621  1.0020  0.8200 -0.3870
 9183SOL     OW30086   8.078   8.738   2.163 -0.0898 -0.2710 -0.1468
 9183SOL    HW130087   8.046   8.798   2.095  1.2732 -0.7365 -1.2500
 9183SOL    HW230088   8.156   8.698   2.123  1.0525 -0.1493  1.9175
 9184SOL     OW30089   4.822   9.521   3.860  0.8491  0.1462 -0.0722
 9184SOL    HW130090   4.797   9.461   3.931  1.5498 -0.4385 -0.3055
 9184SOL    HW230091   4.901   9.481   3.823 -0.1374 -0.1346 -1.8957
 9185SOL     OW30092   3.179   8.011   2.507  0.5059  0.5992 -0.4927
 9185SOL    HW130093   3.139   7.942   2.560  1.7457  0.5673  0.4403
 9185SOL    HW230094   3.261   7.972   2.476 -0.0009  0.7754 -2.0894
 9186SOL     OW30095   7.565   6.960   8.152  0.0814  0.1226 -0.7265
 9186SOL    HW130096   7.578   6.874   8.194  1.4157  0.3523 -0.6263
 9186SOL    HW230097   7.568   6.941   8.058 -1.6948 -0.2216 -0.7250
 9187SOL     OW30098   9.455   0.745   3.392 -0.5175 -0.2944  0.0821
 9187SOL    HW130099   9.506   0.789   3.460  0.1469 -3.1202  1.4723
 9187SOL    HW230100   9.435   0.814   3.329  1.9139  1.6532  1.3473
 9188SOL     OW30101   6.900   5.792   1.257 -0.5181 -0.5735 -0.5699
 9188SOL    HW130102   6.877   5.883   1.273 -2.1139 -0.7647 -1.6771
 9188SOL    HW230103   6.964   5.795   1.186 -0.8680 -0.3443 -0.8728
 9189SOL     OW30104   7.348   2.202   2.847 -0.1951 -0.2640  0.0746
 9189SOL    HW130105   7.381   2.180   2.934  0.5697 -0.2658 -0.2206
 9189SOL    HW230106   7.392   2.142   2.788 -1.1517 -0.6545 -0.2562
 9190SOL     OW30107   0.472   8.521   2.794  0.0316  0.0174  0.0645
 9190SOL    HW130108   0.434   8.512   2.881 -0.4916  1.0330 -0.0556
 9190SOL    HW230109   0.436   8.603   2.760  0.1734 -0.4031 -1.1323
 9191SOL     OW30110   5.999   6.434   4.104 -0.2908 -0.4447  0.4653
 9191SOL    HW130111   5.921   6.465   4.151  0.6597  0.6445  1.3597
 9191SOL    HW230112   6.056   6.401   4.174  0.6534  0.1164 -0.0350
 9192SOL     OW30113   4.658   3.639   1.348  0.5854  0.3558  0.5620
 9192SOL    HW130114   4.619   3.706   1.404 -0.5285  1.5649 -1.5812
 9192SOL    HW230115   4.583   3.588   1.316  1.3743 -1.5662  1.6951
 9193SOL     OW30116   5.184   7.450   3.189  0.5906  0.4803  0.1003
 9193SOL    HW130117   5.205   7.466   3.281  0.4248 -0.1850  0.2513
 9193SOL    HW230118   5.130   7.372   3.190 -0.1535  0.9830 -0.4840
 9194SOL     OW30119   3.727   7.826   6.482 -0.1590  0.5400 -0.5732
 9194SOL    HW130120   3.714   7.767   6.557 -0.2504  1.2225 -0.0485
 9194SOL    HW230121   3.656   7.805   6.422  0.3909 -0.5891 -0.8503
 9195SOL     OW30122   7.294   9.448   8.536  0.1983  1.1314 -0.6971
 9195SOL    HW130123   7.352   9.372   8.538 -1.1470  0.0747 -1.3700
 9195SOL    HW230124   7.248   9.445   8.620  0.6819  1.6420 -0.4087
 9196SOL     OW30125   7.715   5.879   3.635  0.0678 -0.4258 -0.1649
 9196SOL    HW130126   7.717   5.835   3.719  1.1737  0.3552  0.2323
 9196SOL    HW230127   7.764   5.821   3.576 -0.0301 -0.5949 -0.0783
 9197SOL     OW30128   8.194   7.683   0.750 -0.1679 -0.0586  0.4066
 9197SOL    HW130129   8.281   7.709   0.783  0.3213  0.4065 -1.2129
 9197SOL    HW230130   8.140   7.761   0.762 -0.5445 -0.5549  2.0175
 9198SOL     OW30131   8.921   0.165   2.217 -0.3992 -0.8828  0.3529
 9198SOL    HW130132   8.837   0.120   2.212 -0.0643 -1.4090 -0.7494
 9198SOL    HW230133   8.985   0.098   2.190  0.4529 -0.7236  1.9624
 9199SOL     OW30134   7.102   3.012   4.976  0.0527  0.4266 -0.0639
 9199SOL    HW130135   7.057   2.929   4.959 -0.8431  0.9647 -0.3589
 9199SOL    HW230136   7.118   3.012   5.070  1.6800 -0.8892 -0.3122
 9200SOL     OW30137   1.629   2.781   3.980 -0.4109  0.6890  0.3610
 9200SOL    HW130138   1.540   2.748   3.967 -0.0241 -0.0368 -0.5186
 9200SOL    HW230139   1.667   2.722   4.046  0.1599 -0.4283 -0.9425
 9201SOL     OW30140   2.121   6.646   0.108  0.0284 -0.5344  0.1513
 9201SOL    HW130141   2.171   6.607   0.036 -0.1135  0.2112 -0.3615
 9201SOL    HW230142   2.188   6.688   0.163  0.1805 -1.4897  0.7049
 9202SOL     OW30143   4.680   3.487   3.832 -0.1675  0.8109  0.1484
 9202SOL    HW130144   4.651   3.502   3.922  0.1302  1.3285  0.1658
 9202SOL    HW230145   4.700   3.575   3.799 -1.6414  0.7562 -0.9016
 9203SOL     OW30146   6.065   6.503   7.435  0.3019 -0.1386  0.0346
 9203SOL    HW130147   5.994   6.440   7.448 -0.6208  0.4423 -1.9593
 9203SOL    HW230148   6.143   6.449   7.427 -0.6197 -1.1645 -2.6679
 9204SOL     OW30149   8.652   4.967   2.824  0.6412  0.1682  0.2248
 9204SOL    HW130150   8.704   4.903   2.872  2.3940  0.5174 -1.1631
 9204SOL    HW230151   8.663   5.049   2.872 -0.6451 -0.2808  1.3240
 9205SOL     OW30152   4.615   6.440   1.575  0.4254  0.3429  0.3456
 9205SOL    HW130153   4.614   6.386   1.496  0.6056  1.3311 -0.3494
 9205SOL    HW230154   4.702   6.425   1.613 -0.0338 -0.9241  0.9273
 9206SOL     OW30155   0.471   6.646   9.715 -0.6700 -0.2280  0.0597
 9206SOL    HW130156   0.514   6.728   9.689  0.0374 -0.3026  0.9759
 9206SOL    HW230157   0.443   6.661   9.805  0.7454 -1.4759  0.7375
 9207SOL     OW30158   3.074   8.093   6.595 -0.2523  0.1388 -0.3436
 9207SOL    HW130159   3.141   8.152   6.632 -1.6028  0.7250  1.2254
 9207SOL    HW230160   3.124   8.018   6.563  1.1439  0.4262  1.0716
 9208SOL     OW30161   2.061   4.497   6.783  0.3521  0.4669 -0.2569
 9208SOL    HW130162   2.021   4.515   6.868  1.0521 -1.0003  0.4016
 9208SOL    HW230163   2.155   4.504   6.799  0.5838 -2.0481 -0.3525
 9209SOL     OW30164   0.156   5.449   6.554 -0.7106  0.3603 -0.2670
 9209SOL    HW130165   0.247   5.424   6.564 -0.4098  0.6239 -2.1077
 9209SOL    HW230166   0.107   5.383   6.604  0.4608  0.0615  0.4986
 9210SOL     OW30167   9.688   4.925   9.610 -0.0986 -0.0852 -0.5118
 9210SOL    HW130168   9.709   4.832   9.614 -1.6416 -0.4304  0.1707
 9210SOL    HW230169   9.655   4.945   9.698  0.7534  1.2455 -0.4800
 9211SOL     OW30170   9.836   6.253   9.330 -0.1116  0.5427 -0.3307
 9211SOL    HW130171   9.885   6.189   9.278  1.7154  1.6959 -0.0445
 9211SOL    HW230172   9.759   6.271   9.277 -1.9822 -3.7212  0.6760
 9212SOL     OW30173   0.578   3.102   6.979  0.2751  0.6560 -0.1737
 9212SOL    HW130174   0.502   3.157   6.996 -0.1280  0.1000 -0.1421
 9212SOL    HW230175   0.541   3.014   6.966  0.7722  0.6591 -1.6970
 9213SOL     OW30176   9.912   9.527   4.710 -0.1540  0.3802 -0.4037
 9213SOL    HW130177   9.947   9.615   4.722 -0.1630  0.2729  0.4427
 9213SOL    HW230178   9.960   9.473   4.772 -1.0431  0.0316 -0.0032
 9214SOL     OW30179   8.471   1.758   1.578  0.1059 -0.3137 -0.3848
 9214SOL    HW130180   8.407   1.691   1.555  0.5023 -0.0386 -2.3250
 9214SOL    HW230181   8.420   1.827   1.620 -0.9403  0.0515 -2.2239
 9215SOL     OW30182   2.505   0.282   4.847 -0.3298  0.5837  0.1075
 9215SOL    HW130183   2.516   0.347   4.916 -0.8781  2.3017 -1.4072
 9215SOL    HW230184   2.460   0.209   4.890 -0.8188  1.7050  1.5102
 9216SOL     OW30185   5.875   6.284   9.154 -0.0288  0.2554 -0.2554
 9216SOL    HW130186   5.823   6.360   9.127 -0.1007  0.2116 -0.2409
 9216SOL    HW230187   5.944   6.277   9.089 -0.9106 -0.5797 -1.1054
 9217SOL     OW30188   8.008   3.895   1.117  0.8283  0.0658  0.4745
 9217SOL    HW130189   7.956   3.938   1.185 -0.5604  0.9358 -1.1035
 9217SOL    HW230190   7.944   3.868   1.052  2.2301 -0.0355 -0.8748
 9218SOL     OW30191   2.719   7.740   5.542 -0.2337 -0.0446  0.0855
 9218SOL    HW130192   2.714   7.645   5.550  1.2484 -0.1366 -0.0069
 9218SOL    HW230193   2.629   7.767   5.521 -0.3993 -1.5572 -1.2776
 9219SOL     OW30194   9.143   5.668   5.530 -0.0299 -0.1536 -0.2457
 9219SOL    HW130195   9.165   5.582   5.494 -0.3960  0.0190 -0.8753
 9219SOL    HW230196   9.069   5.698   5.478 -0.6960  0.0047  0.7843
 9220SOL     OW30197   8.285   2.398   9.660  0.2648  0.1757  0.1446
 9220SOL    HW130198   8.362   2.342   9.657  0.1953  0.1321 -1.0109
 9220SOL    HW230199   8.216   2.347   9.617  0.1429  1.0358 -0.7130
 9221SOL     OW30200   7.329   9.944   0.108  0.0802 -0.4076 -0.1107
 9221SOL    HW130201   7.316   9.859   0.066  0.2625 -1.5694  2.0785
 9221SOL    HW230202   7.407   9.932   0.162  0.0962  1.1395  0.2294
 9222SOL     OW30203   5.100   7.678   3.050  0.0518 -0.5177 -0.2954
 9222SOL    HW130204   5.175   7.643   3.097 -0.9385 -1.4024  0.6697
 9222SOL    HW230205   5.027   7.623   3.078 -1.0238  0.5717 -0.9174
 9223SOL     OW30206   3.452   8.230   4.020 -0.1876  0.0729 -0.5196
 9223SOL    HW130207   3.487   8.180   4.094 -3.9154  2.8230  3.3456
 9223SOL    HW230208   3.518   8.298   4.003  0.6641 -0.5438  0.3059
 9224SOL     OW30209   6.811  10.045   5.716 -0.0881  0.7163  0.5066
 9224SOL    HW130210   6.755   9.982   5.761 -0.1758 -0.0045 -0.5857
 9224SOL    HW230211   6.884   9.993   5.683 -0.0491  1.2189 -0.2129
 9225SOL     OW30212   6.049   6.585   2.245 -0.1690  0.0392  0.3353
 9225SOL    HW130213   6.092   6.625   2.320  0.4087 -0.2402  0.1566
 9225SOL    HW230214   6.026   6.658   2.188 -2.0458  0.3938  1.5154
 9226SOL     OW30215   0.751   6.978   7.150  0.1499  0.2119  0.1779
 9226SOL    HW130216   0.664   6.939   7.154  0.7729 -1.5097 -1.9679
 9226SOL    HW230217   0.748   7.036   7.074  0.9063  0.1225  0.0807
 9227SOL     OW30218   3.916   0.852  10.057  0.5877 -0.2578  0.7720
 9227SOL    HW130219   3.962   0.892  10.131  0.1734 -0.5221  1.1807
 9227SOL    HW230220   3.823   0.860  10.080  0.4449 -0.0731  0.1379
 9228SOL     OW30221   3.442   9.710   0.636 -0.3937 -0.1448 -0.0690
 9228SOL    HW130222   3.406   9.667   0.713 -1.0277 -1.0079 -0.8374
 9228SOL    HW230223   3.371   9.767   0.606 -0.1271  0.2349  0.0211
 9229SOL     OW30224   1.462   0.419   1.359  0.0620  0.4605  0.1323
 9229SOL    HW130225   1.523   0.345   1.362  1.7844  1.8502 -0.0104
 9229SOL    HW230226   1.425   0.416   1.271  0.3835 -0.0263  0.0091
 9230SOL     OW30227   4.336   6.309   3.270 -0.0764 -0.7226  0.4448
 9230SOL    HW130228   4.365   6.234   3.322 -2.4392 -1.3215  0.9682
 9230SOL    HW230229   4.326   6.274   3.181 -2.1486 -1.3472  0.8813
 9231SOL     OW30230   7.426   2.715   8.958 -0.1329  0.7342  0.5482
 9231SOL    HW130231   7.364   2.735   9.028  0.1313 -0.6670  1.1994
 9231SOL    HW230232   7.387   2.641   8.911 -0.0265  1.2858 -0.4324
 9232SOL     OW30233   9.607   2.004   8.726 -0.1545  0.1228  0.6288
 9232SOL    HW130234   9.532   2.000   8.786 -1.6782 -0.2455 -1.2279
 9232SOL    HW230235   9.611   2.095   8.699  0.9202  0.4159  1.7491
 9233SOL     OW30236   2.856   0.824   8.427  0.3013  0.5789 -0.2863
 9233SOL    HW130237   2.855   0.919   8.413  4.3232  0.8512  0.4183
 9233SOL    HW230238   2.902   0.813   8.510 -0.1274 -2.0086 -0.3557
 9234SOL     OW30239   8.148   8.067   3.483  0.4287 -0.6311  0.8745
 9234SOL    HW130240   8.099   8.148   3.470 -0.4784 -1.2226  0.5267
 9234SOL    HW230241   8.130   8.016   3.403  1.4624 -0.9234  0.8308
 9235SOL     OW30242   1.943   5.775   5.070  0.3492 -0.0461 -0.6162
 9235SOL    HW130243   1.966   5.682   5.077  1.5146  0.4058  2.2243
 9235SOL    HW230244   1.878   5.789   5.138  1.2217  1.5145 -0.0830
 9236SOL     OW30245   5.378   0.561   9.959  0.2968  0.0558  0.5958
 9236SOL    HW130246   5.429   0.638   9.986 -0.8723  0.7239  0.9460
 9236SOL    HW230247   5.381   0.503  10.035  1.4341 -0.3833  0.2221
 9237SOL     OW30248   3.759   1.818   6.276  0.2297  0.2573  0.1127
 9237SOL    HW130249   3.688   1.877   6.252  2.5458  3.7720  1.4323
 9237SOL    HW230250   3.755   1.813   6.372  1.6931  0.4761  0.1978
 9238SOL     OW30251   7.501   5.733   3.186  0.4881 -0.0986 -0.0020
 9238SOL    HW130252   7.515   5.806   3.127  2.8159 -0.9679 -0.5637
 9238SOL    HW230253   7.501   5.656   3.130  2.2475 -0.8894  1.0233
 9239SOL     OW30254   8.697   3.345   0.821  0.5318 -0.2029 -0.1913
 9239SOL    HW130255   8.757   3.311   0.755  0.9985 -1.2927  0.7637
 9239SOL    HW230256   8.732   3.313   0.904 -0.7008  0.1448  0.4819
 9240SOL     OW30257   4.265   8.108   5.408  0.0396  0.0698  0.5535
 9240SOL    HW130258   4.216   8.079   5.331 -0.3576  0.8285  0.5117
 9240SOL    HW230259   4.206   8.170   5.452  0.5829  0.2587  1.0245
 9241SOL     OW30260   2.314   5.685   9.277 -0.2870 -0.0416  0.2784
 9241SOL    HW130261   2.323   5.620   9.208  0.6974  0.2235  0.1463
 9241SOL    HW230262   2.320   5.635   9.359 -1.5306 -0.3647  0.1930
 9242SOL     OW30263   3.392   2.232   6.655  0.5612 -0.4697 -0.3693
 9242SOL    HW130264   3.360   2.154   6.701 -0.2547  0.3593  0.5095
 9242SOL    HW230265   3.487   2.230   6.668  0.5300 -1.2308 -0.2150
 9243SOL     OW30266   9.955   7.671   0.317  0.0719 -0.2006  0.0149
 9243SOL    HW130267   9.966   7.601   0.252 -0.1107 -1.3692  1.2005
 9243SOL    HW230268   9.959   7.625   0.401  2.1268  1.5004  0.9018
 9244SOL     OW30269   1.365   8.871   5.764  0.3756 -0.3471 -1.1756
 9244SOL    HW130270   1.334   8.816   5.692  0.3750  0.9375 -2.1830
 9244SOL    HW230271   1.286   8.898   5.810  0.4095 -1.6086 -0.3374
 9245SOL     OW30272   8.125   7.220   5.719 -0.1898  0.0222 -0.2850
 9245SOL    HW130273   8.060   7.193   5.784 -0.8826  0.4004 -0.8166
 9245SOL    HW230274   8.102   7.311   5.699  2.2211  1.1303  1.6201
 9246SOL     OW30275   4.446   5.710   8.065 -0.3652  0.0177  0.1473
 9246SOL    HW130276   4.484   5.758   8.138  2.8467 -2.0093 -0.0977
 9246SOL    HW230277   4.414   5.778   8.006  0.8599  1.7777  1.4520
 9247SOL     OW30278   5.307   0.806   8.909  0.1489 -0.2359  0.1646
 9247SOL    HW130279   5.368   0.870   8.945 -0.1794 -0.1958  0.6543
 9247SOL    HW230280   5.346   0.721   8.930 -0.9189 -0.2538  2.2106
 9248SOL     OW30281   1.720   0.112   2.031 -0.0754  0.4230  0.4188
 9248SOL    HW130282   1.810   0.106   2.063  0.1415  0.0594 -0.2619
 9248SOL    HW230283   1.668   0.124   2.110  0.2319 -2.6876  1.1540
 9249SOL     OW30284   2.052   4.033   3.719  0.1233 -0.0422  0.2949
 9249SOL    HW130285   2.022   4.095   3.785 -1.1298 -0.2652 -0.0536
 9249SOL    HW230286   2.071   4.087   3.642 -1.6031 -0.1493 -0.2227
 9250SOL     OW30287   3.126   0.856   5.759  0.4338  0.1132  1.0853
 9250SOL    HW130288   3.188   0.900   5.817  0.2558 -0.6134  1.8385
 9250SOL    HW230289   3.082   0.792   5.815 -1.1905  0.8105  0.6228
 9251SOL     OW30290   7.912   9.532   6.113 -0.6290 -0.1282 -0.2029
 9251SOL    HW130291   7.845   9.600   6.111 -1.8356 -1.2761  0.3215
 9251SOL    HW230292   7.972   9.560   6.184  0.1411  1.5023 -1.4574
 9252SOL     OW30293   3.078   6.016   0.583  0.2711 -0.6995 -0.3292
 9252SOL    HW130294   2.990   6.048   0.562  0.3924  0.3604  0.6772
 9252SOL    HW230295   3.072   5.921   0.576 -1.1772 -0.6907  0.5165
 9253SOL     OW30296   7.456   6.569   4.306 -0.5129  0.2122  0.9702
 9253SOL    HW130297   7.528   6.632   4.312 -0.8476  0.6598  0.3578
 9253SOL    HW230298   7.377   6.623   4.310 -0.7960 -0.1130 -0.2093
 9254SOL     OW30299  10.041   5.432   2.471  0.2894 -0.4912  0.2488
 9254SOL    HW130300  10.043   5.360   2.534  1.7096 -0.2098  0.5283
 9254SOL    HW230301  10.017   5.509   2.522 -0.2118 -0.5619  0.1298
 9255SOL     OW30302   1.584   4.525   6.066 -0.8050 -0.3294  0.1623
 9255SOL    HW130303   1.493   4.547   6.045 -0.2413  1.8846 -0.1616
 9255SOL    HW230304   1.599   4.562   6.153  0.2589  0.8559 -0.4961
 9256SOL     OW30305   1.330   5.966   5.533 -0.6356  0.2269 -0.4427
 9256SOL    HW130306   1.387   6.038   5.559  0.7042 -1.4340  1.4270
 9256SOL    HW230307   1.305   5.985   5.443  1.3247  1.9816 -0.6330
 9257SOL     OW30308   4.822   8.169   2.410  0.7074 -0.6829  0.1473
 9257SOL    HW130309   4.905   8.197   2.449  0.8741 -0.3591 -0.4369
 9257SOL    HW230310   4.771   8.249   2.403  1.1479 -0.5142 -1.4331
 9258SOL     OW30311   4.244   7.853   3.261 -0.0383 -0.0892 -0.5950
 9258SOL    HW130312   4.225   7.804   3.341  0.9395 -0.9041 -0.8523
 9258SOL    HW230313   4.286   7.934   3.291  0.1012 -0.2854 -0.2645
 9259SOL     OW30314   4.554   9.715   0.786 -0.0208 -0.3988 -0.1145
 9259SOL    HW130315   4.494   9.790   0.784  0.8154  0.2708  0.0572
 9259SOL    HW230316   4.573   9.698   0.693  0.8215  0.4224 -0.0913
 9260SOL     OW30317   3.006   6.202   4.337  0.6557 -0.5225  0.1107
 9260SOL    HW130318   3.053   6.165   4.263  0.9754 -1.0956  0.5941
 9260SOL    HW230319   3.021   6.140   4.408 -0.7052 -0.6485  0.3113
 9261SOL     OW30320   3.412   1.931   5.647  0.3635 -0.1793  0.2848
 9261SOL    HW130321   3.384   2.017   5.678  1.9579  0.1867  0.7286
 9261SOL    HW230322   3.348   1.908   5.579 -1.1121  0.5531  1.3906
 9262SOL     OW30323   3.205   9.296   7.762  0.4054  0.2203 -0.2988
 9262SOL    HW130324   3.199   9.377   7.813  0.6363 -0.0218  0.1252
 9262SOL    HW230325   3.206   9.324   7.671  0.6652  0.7049 -0.1482
 9263SOL     OW30326   6.898   9.828   1.884  0.2068 -0.0722  0.4694
 9263SOL    HW130327   6.849   9.768   1.941  0.3624 -1.3422 -0.7280
 9263SOL    HW230328   6.852   9.912   1.893  0.1382 -0.2924  2.3432
 9264SOL     OW30329   9.394   5.961   2.004 -0.5562  0.1202  0.5334
 9264SOL    HW130330   9.436   6.044   1.981  0.4952 -0.3584  0.6738
 9264SOL    HW230331   9.417   5.947   2.096  0.4922 -1.0251  0.1119
 9265SOL     OW30332   7.458   5.317   5.642  0.1353 -0.3167  0.2435
 9265SOL    HW130333   7.451   5.289   5.733 -0.8532  0.5261  0.4355
 9265SOL    HW230334   7.426   5.242   5.592 -1.9290  0.2084  0.7259
 9266SOL     OW30335   5.759   8.116   7.797 -0.3432  0.1166 -0.4865
 9266SOL    HW130336   5.688   8.166   7.837 -0.0783  0.6553 -0.6872
 9266SOL    HW230337   5.716   8.058   7.735 -0.5042  1.4629 -1.6756
 9267SOL     OW30338   9.780   0.820   7.882  0.2270 -0.3974  0.6568
 9267SOL    HW130339   9.856   0.878   7.885  1.0170 -1.2798 -1.3430
 9267SOL    HW230340   9.808   0.740   7.925  0.3964 -0.6776  0.0295
 9268SOL     OW30341   5.466   4.501   6.486 -0.1902  0.9525 -0.1573
 9268SOL    HW130342   5.400   4.552   6.533  0.8499  1.4823  0.7651
 9268SOL    HW230343   5.462   4.414   6.526  0.8018  1.4450  1.0728
 9269SOL     OW30344   2.729   0.101   5.834 -0.2567  0.2274 -0.2577
 9269SOL    HW130345   2.639   0.097   5.801 -0.4969  2.1233  0.0734
 9269SOL    HW230346   2.776   0.154   5.769  0.0379  1.2308  0.7507
 9270SOL     OW30347   1.398   0.470   8.478 -0.1438 -0.3586 -0.0387
 9270SOL    HW130348   1.383   0.408   8.549  0.9928  0.3596  0.8366
 9270SOL    HW230349   1.489   0.456   8.453  0.4498  1.6923  0.9017
 9271SOL     OW30350   5.566   4.131  10.147 -0.5538 -0.4467 -0.3542
 9271SOL    HW130351   5.550   4.038  10.133 -1.3745 -0.4249  0.3999
 9271SOL    HW230352   5.599   4.162  10.063 -2.5204 -0.9456 -1.3558
 9272SOL     OW30353   8.167   0.136   5.219  0.5392 -0.1110 -0.1442
 9272SOL    HW130354   8.166   0.159   5.127  1.3748 -0.2416 -0.1903
 9272SOL    HW230355   8.232   0.194   5.258 -0.9057  1.0075  0.6548
 9273SOL     OW30356   1.308   7.324   3.271 -0.6922 -0.0096  0.8005
 9273SOL    HW130357   1.231   7.356   3.318 -0.3714 -0.3063  1.5434
 9273SOL    HW230358   1.381   7.344   3.330 -0.1726  0.4590  0.0152
 9274SOL     OW30359   8.144   7.901   3.733  0.0824  0.2723  0.5754
 9274SOL    HW130360   8.230   7.867   3.710  1.2176  3.3259  0.0788
 9274SOL    HW230361   8.118   7.955   3.658 -1.3690  0.9850  1.5628
 9275SOL     OW30362   5.752   1.003   4.921  0.6699  0.0290 -0.2153
 9275SOL    HW130363   5.717   0.983   5.009 -2.3845  1.2299 -1.1010
 9275SOL    HW230364   5.841   1.034   4.937  0.2173  0.0683  2.4656
 9276SOL     OW30365   9.321   5.048   6.825  0.4314 -0.3258  0.4946
 9276SOL    HW130366   9.271   5.016   6.900  0.5989 -0.3332  0.6019
 9276SOL    HW230367   9.407   5.009   6.835  0.2015 -1.0093 -0.1611
 9277SOL     OW30368  10.108   9.251   2.039 -0.5871  0.5389 -0.1468
 9277SOL    HW130369  10.134   9.343   2.046 -0.8393  0.5109  1.3488
 9277SOL    HW230370  10.104   9.220   2.129 -0.0174 -1.0896 -0.6610
 9278SOL     OW30371   5.108   3.498   4.187  0.0399  0.5384  0.0263
 9278SOL    HW130372   5.118   3.583   4.231  1.9366  0.0203  0.6405
 9278SOL    HW230373   5.124   3.434   4.256  1.0095 -0.2940 -0.9635
 9279SOL     OW30374   1.112   6.877   5.136  0.3889  0.3149  0.0046
 9279SOL    HW130375   1.165   6.955   5.118  0.7201  0.0380 -0.2240
 9279SOL    HW230376   1.168   6.822   5.190 -0.1063  0.5463  0.7637
 9280SOL     OW30377   8.220   0.853   6.379  0.4753  0.0283 -0.0209
 9280SOL    HW130378   8.214   0.916   6.308  1.0592  0.5834  0.4215
 9280SOL    HW230379   8.311   0.858   6.408  0.1745 -0.0134  0.9338
 9281SOL     OW30380   0.696   4.045   5.208  0.0761 -0.5517 -0.1930
 9281SOL    HW130381   0.750   4.116   5.173  0.8686 -0.6988  0.7452
 9281SOL    HW230382   0.753   3.998   5.268 -0.8642 -1.1631  0.2297
 9282SOL     OW30383   2.988   6.628   4.308  0.4826  0.0437 -0.3485
 9282SOL    HW130384   3.064   6.643   4.364 -0.3400 -0.1326  0.8216
 9282SOL    HW230385   2.930   6.702   4.325 -0.0121 -0.2848 -0.5756
 9283SOL     OW30386   1.660   9.111   6.088 -0.6102  0.2027  0.4756
 9283SOL    HW130387   1.615   9.151   6.014  0.0658 -0.0901 -0.0969
 9283SOL    HW230388   1.712   9.181   6.126  1.4177 -0.3736 -1.1829
 9284SOL     OW30389   9.192   6.696   7.464  0.2516  0.1223 -0.1823
 9284SOL    HW130390   9.236   6.621   7.424 -0.7784 -0.2086 -0.6969
 9284SOL    HW230391   9.109   6.704   7.417  0.1796  1.3460  0.1236
 9285SOL     OW30392   9.779   4.951   4.480  0.1416  0.1676 -0.2622
 9285SOL    HW130393   9.713   4.891   4.513  0.0300  0.8378  0.7470
 9285SOL    HW230394   9.862   4.919   4.516  0.0063  0.9655  0.7785
 9286SOL     OW30395   9.257   5.799   0.397  0.1835  0.1187 -0.9245
 9286SOL    HW130396   9.303   5.882   0.400  0.8843 -0.2663 -1.0462
 9286SOL    HW230397   9.193   5.809   0.327  0.0050  0.6846 -0.6867
 9287SOL     OW30398   9.515  10.096  10.131 -0.0320  0.0183 -0.5537
 9287SOL    HW130399   9.500  10.014  10.178  1.3177  0.1589  0.1491
 9287SOL    HW230400   9.519  10.071  10.039  0.3152 -0.6993 -0.3427
 9288SOL     OW30401   9.262   0.834   7.827  0.4407  0.0363 -0.3837
 9288SOL    HW130402   9.207   0.757   7.818 -1.7164  1.6365 -1.1833
 9288SOL    HW230403   9.348   0.807   7.793  0.1014 -2.3736  0.5834
 9289SOL     OW30404   9.441   6.867   2.965  0.4202 -0.2390 -0.5673
 9289SOL    HW130405   9.418   6.806   2.894  1.2249 -1.6746  0.3821
 9289SOL    HW230406   9.427   6.816   3.045  0.3612  1.0872  0.2729
 9290SOL     OW30407   7.363   1.929   6.430 -0.5251 -0.0991  0.6687
 9290SOL    HW130408   7.404   1.940   6.516 -0.5041 -0.5738  0.7196
 9290SOL    HW230409   7.269   1.931   6.448 -0.5318  1.0338  0.5472
 9291SOL     OW30410   6.339   6.358   6.125  0.7463 -0.6036 -0.3891
 9291SOL    HW130411   6.345   6.334   6.033  1.7235  1.6707 -0.9473
 9291SOL    HW230412   6.284   6.290   6.164  0.2812 -1.5620 -2.6530
 9292SOL     OW30413   7.679   7.986   1.921  0.5402  0.0857  1.1692
 9292SOL    HW130414   7.680   7.964   2.014 -0.1147 -1.1011  0.9136
 9292SOL    HW230415   7.692   7.902   1.877  0.0959  0.5272  0.1831
 9293SOL     OW30416   6.173   8.663   7.991 -0.5342  0.0463  0.0638
 9293SOL    HW130417   6.244   8.617   8.034 -0.3820  1.2718  1.1554
 9293SOL    HW230418   6.174   8.630   7.901  1.8466  0.5545 -0.1257
 9294SOL     OW30419   4.286   7.893   2.016  0.1895 -0.3013 -0.1989
 9294SOL    HW130420   4.304   7.935   2.101 -0.5262 -0.8836  0.2428
 9294SOL    HW230421   4.282   7.966   1.954 -0.0294  0.1990  0.3988
 9295SOL     OW30422   6.273   6.794   8.810  0.5211  0.4650 -0.1374
 9295SOL    HW130423   6.319   6.764   8.888 -1.3060 -0.1802  0.7377
 9295SOL    HW230424   6.335   6.783   8.738  1.2548 -1.6443  0.7945
 9296SOL     OW30425   4.149   1.298   7.629 -0.3137 -0.1454  0.1636
 9296SOL    HW130426   4.080   1.279   7.692  0.2265  1.8964  1.4006
 9296SOL    HW230427   4.228   1.308   7.682  0.1200  1.7019 -0.8044
 9297SOL     OW30428   4.150   6.787   9.658  0.4370 -0.9096 -0.2513
 9297SOL    HW130429   4.079   6.744   9.610  0.4034 -2.3659  1.0636
 9297SOL    HW230430   4.225   6.780   9.600 -0.2738 -0.1464 -1.2796
 9298SOL     OW30431   2.557   2.479   2.321  0.0820 -0.1976 -0.4294
 9298SOL    HW130432   2.498   2.415   2.360  0.1994  0.2018  0.4176
 9298SOL    HW230433   2.622   2.497   2.389 -0.5913  1.6416 -0.2487
 9299SOL     OW30434   8.869   9.458   6.790 -0.2892  0.7653 -0.0622
 9299SOL    HW130435   8.938   9.399   6.761  1.0297  3.1472 -1.9521
 9299SOL    HW230436   8.802   9.452   6.722 -0.5030  0.8538  0.1395
 9300SOL     OW30437   3.792   6.408   8.126  1.1297  0.1384 -0.0710
 9300SOL    HW130438   3.727   6.474   8.147  1.5344  0.3187  0.6182
 9300SOL    HW230439   3.861   6.456   8.079  0.7822 -0.0466 -0.7785
 9301SOL     OW30440  10.114   4.408   4.174  0.7358  0.5017 -0.4859
 9301SOL    HW130441  10.144   4.385   4.086  0.1044 -0.6497 -0.4076
 9301SOL    HW230442  10.193   4.438   4.219  1.1913  0.4281 -1.2362
 9302SOL     OW30443  10.064   4.152   6.084  0.0750 -0.0768  0.4237
 9302SOL    HW130444  10.128   4.144   6.014  0.1000 -0.8330  0.5379
 9302SOL    HW230445   9.979   4.143   6.040  0.1087 -1.1181  0.5757
 9303SOL     OW30446   2.717   3.315   4.409  0.3350 -0.4987  0.5562
 9303SOL    HW130447   2.748   3.371   4.339 -0.1239 -1.0341 -0.0821
 9303SOL    HW230448   2.729   3.366   4.489  0.8305  0.1206  0.0810
 9304SOL     OW30449   3.251   7.878   5.500  0.9418 -0.3555 -0.0043
 9304SOL    HW130450   3.163   7.844   5.486  1.0392 -0.2645 -0.8553
 9304SOL    HW230451   3.298   7.859   5.418  1.5946 -0.0461  0.2915
 9305SOL     OW30452   6.361   0.874   7.157 -0.1806 -0.2281  0.0917
 9305SOL    HW130453   6.372   0.864   7.062 -2.8551  0.7394 -0.3552
 9305SOL    HW230454   6.401   0.959   7.177 -0.7269  0.1336 -0.3597
 9306SOL     OW30455   7.782   3.991   9.057 -0.1380 -0.3849 -0.6119
 9306SOL    HW130456   7.706   4.049   9.058  0.1304 -0.0322 -0.3714
 9306SOL    HW230457   7.828   4.012   9.138 -1.0992 -2.3451  0.4781
 9307SOL     OW30458   4.271   8.190   7.054  0.3170 -0.3843 -0.4579
 9307SOL    HW130459   4.347   8.133   7.069  0.8828  0.5316  0.2053
 9307SOL    HW230460   4.268   8.200   6.959  1.8853  0.6993 -0.4167
 9308SOL     OW30461   6.446   4.181   2.283  0.1542  0.1045 -0.4417
 9308SOL    HW130462   6.516   4.126   2.320 -0.2446  0.3160  0.6274
 9308SOL    HW230463   6.365   4.137   2.308 -0.1424  0.7405 -0.2773
 9309SOL     OW30464   2.434   7.618  10.197  0.1539 -0.2828  0.1281
 9309SOL    HW130465   2.469   7.663  10.120 -0.1290 -1.4036 -0.6698
 9309SOL    HW230466   2.339   7.626  10.188  0.1305  1.0229  1.2510
 9310SOL     OW30467   9.877   2.918   6.418 -0.6198 -0.1032 -0.3551
 9310SOL    HW130468   9.836   2.914   6.504  1.2543  0.9945  0.6191
 9310SOL    HW230469   9.910   2.829   6.403 -2.2731 -0.6946 -0.6482
 9311SOL     OW30470   4.887   6.427   4.250 -0.5335 -0.3617 -0.0615
 9311SOL    HW130471   4.814   6.371   4.222 -0.5669 -0.0800 -0.5395
 9311SOL    HW230472   4.942   6.435   4.172 -0.3065 -0.0803  0.1295
 9312SOL     OW30473   9.727   2.318   0.851 -0.8347  0.0316  0.5729
 9312SOL    HW130474   9.701   2.264   0.925  1.9059 -3.1675 -0.6578
 9312SOL    HW230475   9.814   2.352   0.875 -1.0524  1.1119 -0.1135
 9313SOL     OW30476   1.799   5.542   3.030  0.2097  0.3757 -0.4089
 9313SOL    HW130477   1.839   5.623   2.997  1.9404 -0.1909  0.1974
 9313SOL    HW230478   1.871   5.497   3.075 -0.7893 -1.3761 -0.5150
 9314SOL     OW30479   9.782   1.950   5.298  0.2267  0.3500 -0.0390
 9314SOL    HW130480   9.766   1.964   5.391 -1.7284  1.9183 -0.5866
 9314SOL    HW230481   9.766   2.035   5.257 -2.1618 -1.0623 -2.1886
 9315SOL     OW30482   9.501   2.102   5.495 -0.4269 -0.1163 -0.1539
 9315SOL    HW130483   9.419   2.126   5.453 -0.0516 -0.7703 -1.2925
 9315SOL    HW230484   9.480   2.027   5.550 -0.6014 -0.2723 -0.4327
 9316SOL     OW30485   5.000   1.744   5.087  0.1480  0.3708 -0.1992
 9316SOL    HW130486   5.042   1.666   5.125 -0.8856  0.2253  0.6557
 9316SOL    HW230487   5.071   1.807   5.078  0.9643 -0.5983 -0.7079
 9317SOL     OW30488   1.255   0.808  10.043  0.2736  0.0857 -0.1214
 9317SOL    HW130489   1.298   0.868   9.981  1.5134  1.2326  1.8106
 9317SOL    HW230490   1.228   0.864  10.116  0.9338 -1.6218  1.4624
 9318SOL     OW30491   0.716   2.511   4.340 -0.8683 -0.3927  0.2347
 9318SOL    HW130492   0.678   2.593   4.370  0.4412 -0.1003  1.1143
 9318SOL    HW230493   0.755   2.533   4.255 -0.1329 -0.0026  0.6742
 9319SOL     OW30494   5.099   9.754   4.285 -0.0029 -0.4287 -0.1731
 9319SOL    HW130495   5.151   9.819   4.238 -0.8965 -0.2486 -0.9140
 9319SOL    HW230496   5.030   9.804   4.328  0.6827 -0.6167  1.1669
 9320SOL     OW30497   8.821   1.687   3.853  0.0286  0.1089  0.3348
 9320SOL    HW130498   8.767   1.749   3.901  0.4864  0.4088  0.4668
 9320SOL    HW230499   8.901   1.736   3.833  0.4498 -0.4848  0.5727
 9321SOL     OW30500   4.396   2.618   4.049 -0.1173 -0.1404 -0.2130
 9321SOL    HW130501   4.341   2.663   4.113  0.2995  2.0477 -1.3395
 9321SOL    HW230502   4.473   2.590   4.100 -0.5532  0.1099  0.5935
 9322SOL     OW30503   4.641   2.947   1.809 -0.0492  0.0672 -0.1785
 9322SOL    HW130504   4.674   3.021   1.860 -1.2014  0.4190  0.0829
 9322SOL    HW230505   4.579   2.986   1.747  0.0840 -0.5612 -0.7140
 9323SOL     OW30506   5.081   3.877   2.461  0.1147  0.0166 -0.0180
 9323SOL    HW130507   5.134   3.956   2.460 -1.0711  0.8124 -0.9254
 9323SOL    HW230508   4.995   3.906   2.492  0.4796 -1.4392  2.5071
 9324SOL     OW30509   6.802   8.281   2.484  0.4499 -0.4436 -0.3996
 9324SOL    HW130510   6.893   8.299   2.507  0.8186 -0.8830 -1.4866
 9324SOL    HW230511   6.789   8.189   2.505 -0.0255 -0.1584  0.6163
 9325SOL     OW30512   2.823   5.079   6.728  0.4562  0.3454 -0.1125
 9325SOL    HW130513   2.883   5.146   6.760  0.8546 -0.1974  0.3039
 9325SOL    HW230514   2.767   5.060   6.804  1.8933 -1.4932  0.5299
 9326SOL     OW30515   5.670   6.026   0.806  0.3243  0.7755 -0.0129
 9326SOL    HW130516   5.671   6.057   0.896 -1.4184  0.4893  0.1279
 9326SOL    HW230517   5.593   6.069   0.767 -1.1965 -2.0289 -0.2688
 9327SOL     OW30518   9.925   6.680   0.326 -0.0711  0.1879 -0.4104
 9327SOL    HW130519   9.999   6.728   0.288 -0.2214  0.9332  0.2389
 9327SOL    HW230520   9.873   6.747   0.371 -1.4293 -0.2500 -1.3073
 9328SOL     OW30521   3.739   9.309   6.662 -0.2825  0.0890 -0.8508
 9328SOL    HW130522   3.826   9.335   6.692 -0.1757 -0.1929 -0.9104
 9328SOL    HW230523   3.721   9.227   6.709  0.0057 -0.5006 -1.7587
 9329SOL     OW30524   0.569   3.089   6.179  0.2275  0.1190  0.2694
 9329SOL    HW130525   0.531   3.013   6.224  2.4317  0.0639  2.1711
 9329SOL    HW230526   0.577   3.062   6.088 -1.1431 -1.0775  0.4826
 9330SOL     OW30527   6.202   0.179   1.651  0.1582 -1.3074  0.3314
 9330SOL    HW130528   6.252   0.106   1.615  0.2619 -0.4050 -1.3874
 9330SOL    HW230529   6.195   0.241   1.579  0.1594  0.4336  1.8062
 9331SOL     OW30530   4.918   6.763   8.250 -0.3616 -0.4605  0.7498
 9331SOL    HW130531   4.965   6.710   8.186 -2.0175 -1.1169  0.0622
 9331SOL    HW230532   4.863   6.820   8.197 -1.0006 -0.3126  1.5754
 9332SOL     OW30533   9.360   8.167   9.169  0.0170 -0.6802 -0.0857
 9332SOL    HW130534   9.276   8.201   9.198 -0.4028 -1.6871 -0.1085
 9332SOL    HW230535   9.425   8.225   9.211 -0.6393 -0.8681  1.2151
 9333SOL     OW30536   5.066   1.058   0.826 -0.3231 -0.0728 -0.2782
 9333SOL    HW130537   5.107   1.143   0.841  1.5348 -1.0074  0.0645
 9333SOL    HW230538   5.019   1.069   0.743  0.6090  1.0462 -0.6736
 9334SOL     OW30539   2.125   7.510   3.649 -0.1473  0.1402 -0.5180
 9334SOL    HW130540   2.096   7.419   3.656 -2.8967  0.8506 -1.8750
 9334SOL    HW230541   2.044   7.561   3.649  1.2933  2.5160 -0.8230
 9335SOL     OW30542   8.710   8.506   2.310 -0.1375  0.7940  0.0189
 9335SOL    HW130543   8.661   8.467   2.383  1.2320 -1.6878 -0.3177
 9335SOL    HW230544   8.681   8.456   2.233 -0.9169  2.8068 -1.0200
 9336SOL     OW30545   1.928   3.852   4.311 -0.2557  0.0609 -0.4347
 9336SOL    HW130546   1.872   3.892   4.377 -0.7054  0.2219 -0.9023
 9336SOL    HW230547   1.869   3.792   4.264 -0.0110  0.1546 -0.8639
 9337SOL     OW30548   0.336   2.634   1.148 -0.0015 -0.0577 -0.0377
 9337SOL    HW130549   0.359   2.726   1.145  1.1670 -0.3321  0.0235
 9337SOL    HW230550   0.315   2.611   1.058  0.9896 -0.0372 -0.2795
 9338SOL     OW30551   9.833  10.062   3.170  0.2762  0.4265 -0.0723
 9338SOL    HW130552   9.907  10.002   3.169 -0.0139  0.0678 -0.0881
 9338SOL    HW230553   9.866  10.142   3.128  1.6507  1.4838  2.9185
 9339SOL     OW30554   0.968   3.225   6.900  0.1265  0.1741  0.1138
 9339SOL    HW130555   0.912   3.220   6.977  0.4062 -0.2779  0.2899
 9339SOL    HW230556   0.990   3.318   6.892 -1.5121  0.5256 -0.5842
 9340SOL     OW30557   6.800   8.374   0.565 -0.2125 -0.1899  0.0189
 9340SOL    HW130558   6.760   8.293   0.532 -0.5274  0.4341 -1.1672
 9340SOL    HW230559   6.882   8.346   0.604  0.5186 -0.8859 -1.9566
 9341SOL     OW30560   6.622   0.573   2.001 -0.1892 -0.3392 -0.1202
 9341SOL    HW130561   6.532   0.587   1.972 -0.5427 -1.0503  0.6266
 9341SOL    HW230562   6.614   0.526   2.085  0.8934 -1.4156 -0.6037
 9342SOL     OW30563   8.231   7.493   8.561  0.3817  0.5465 -0.2538
 9342SOL    HW130564   8.310   7.472   8.610  0.5609 -4.6100 -2.4360
 9342SOL    HW230565   8.260   7.504   8.471 -1.2981 -1.2003 -1.0516
 9343SOL     OW30566   6.901   2.694   6.126 -0.2209  0.5597 -0.1705
 9343SOL    HW130567   6.919   2.655   6.041  0.6212  0.6220 -0.0268
 9343SOL    HW230568   6.824   2.647   6.158  0.1221 -0.2205 -0.4853
 9344SOL     OW30569   8.546   0.322   8.420  0.4158  0.5252 -0.6961
 9344SOL    HW130570   8.487   0.366   8.359  0.0751 -0.2772 -0.9559
 9344SOL    HW230571   8.587   0.253   8.368  0.2938 -0.0228 -0.0659
 9345SOL     OW30572   3.745   5.915   0.038 -0.0445 -0.0866 -0.1032
 9345SOL    HW130573   3.798   5.984   0.078 -2.6603  1.7038  0.3700
 9345SOL    HW230574   3.808   5.862  -0.011  2.2705  1.5730  1.0077
 9346SOL     OW30575   4.428   6.470   8.896  0.5165  0.0572 -0.5033
 9346SOL    HW130576   4.343   6.433   8.869  0.6955  0.6040 -1.8929
 9346SOL    HW230577   4.492   6.402   8.874  0.3436 -0.7872  1.5326
 9347SOL     OW30578   3.662   6.196   7.142  0.0202  0.4813  0.4582
 9347SOL    HW130579   3.740   6.239   7.107 -0.7088  1.2293 -0.2478
 9347SOL    HW230580   3.680   6.102   7.131 -0.4570  0.7162 -2.5244
 9348SOL     OW30581   4.153   0.341   8.066  0.6590 -0.5583  0.0714
 9348SOL    HW130582   4.073   0.387   8.091  0.4358 -0.7352 -0.3145
 9348SOL    HW230583   4.130   0.248   8.072  1.1303 -0.6303  0.9277
 9349SOL     OW30584   4.941   9.903   5.148  0.2178  0.9048 -0.6207
 9349SOL    HW130585   4.876   9.959   5.191 -0.2852  1.2967 -1.8795
 9349SOL    HW230586   4.921   9.910   5.055  0.0569 -1.4864 -0.7979
 9350SOL     OW30587   0.392   8.126   7.166 -0.7058 -0.0199 -0.5853
 9350SOL    HW130588   0.320   8.185   7.190 -0.4987 -0.6526  1.7466
 9350SOL    HW230589   0.354   8.067   7.101 -1.4076  1.5656 -1.6484
 9351SOL     OW30590   8.210   4.478   6.138  0.1363  0.1453 -0.1544
 9351SOL    HW130591   8.161   4.444   6.214  1.4679  1.4157  1.3209
 9351SOL    HW230592   8.302   4.460   6.159  0.5089  0.3496 -1.5645
 9352SOL     OW30593   0.864   4.917   8.074  0.6624  0.3802 -0.0088
 9352SOL    HW130594   0.834   4.960   7.994  0.7046  1.7419  0.6985
 9352SOL    HW230595   0.958   4.936   8.078  0.7765 -0.1886  0.0549
 9353SOL     OW30596   6.343   0.379   9.294 -0.3478 -0.0058  0.5935
 9353SOL    HW130597   6.353   0.309   9.229  1.9522  0.4228  0.4422
 9353SOL    HW230598   6.373   0.340   9.376 -0.0634  0.4685  0.7172
 9354SOL     OW30599   6.927   8.368   7.980 -0.4155  0.1067 -0.6437
 9354SOL    HW130600   6.884   8.378   8.065  0.2853  0.0697 -0.2761
 9354SOL    HW230601   6.883   8.294   7.939  0.8692 -1.4584  0.7167
 9355SOL     OW30602   6.216   4.592   3.723  0.3493  0.6699  0.2726
 9355SOL    HW130603   6.227   4.516   3.780  1.6633  1.8106  1.5960
 9355SOL    HW230604   6.128   4.625   3.744  0.7802  1.0159  1.6023
 9356SOL     OW30605   5.259   3.042   5.227 -0.2971 -0.2731 -0.1438
 9356SOL    HW130606   5.214   3.058   5.310 -0.6875 -0.9766 -0.2076
 9356SOL    HW230607   5.267   2.946   5.223  0.4524 -0.1972 -0.5342
 9357SOL     OW30608   1.899   4.895   7.282 -0.3408  0.2774  0.4013
 9357SOL    HW130609   1.938   4.833   7.343  0.1376 -1.2493 -1.4116
 9357SOL    HW230610   1.918   4.981   7.319  1.2753 -0.5813  1.6020
 9358SOL     OW30611   3.337   8.434   5.557  0.3868 -0.3934 -0.1699
 9358SOL    HW130612   3.367   8.350   5.592  2.1343  1.2241  2.3780
 9358SOL    HW230613   3.244   8.436   5.577  0.7431 -0.8660  1.6466
 9359SOL     OW30614   2.082   4.299   5.663  0.2479 -0.2890  0.0371
 9359SOL    HW130615   2.134   4.304   5.583  1.6382  1.8038  1.0418
 9359SOL    HW230616   2.046   4.210   5.662  2.4119 -1.1939 -1.5699
 9360SOL     OW30617   9.786   7.591   5.272  0.3856  0.2419 -0.5327
 9360SOL    HW130618   9.807   7.498   5.277  1.5151  0.4618 -1.1418
 9360SOL    HW230619   9.866   7.635   5.302 -0.5474  0.9847  0.9092
 9361SOL     OW30620   3.873   9.283   7.880 -0.4383  0.1943  0.4986
 9361SOL    HW130621   3.921   9.308   7.959  0.9893 -0.2131 -0.2148
 9361SOL    HW230622   3.913   9.201   7.852 -2.0710 -0.5483  0.3004
 9362SOL     OW30623   4.237   4.926   2.060  0.0781  0.1192  0.0246
 9362SOL    HW130624   4.147   4.957   2.073  0.6544  1.1476  1.5643
 9362SOL    HW230625   4.227   4.832   2.046 -1.1061 -0.0326  1.7250
 9363SOL     OW30626   2.079   7.274   2.292  0.0760  0.1141 -0.4570
 9363SOL    HW130627   2.108   7.215   2.222 -0.7350 -2.4369  1.2794
 9363SOL    HW230628   2.050   7.216   2.362 -1.6668  2.6053  0.9766
 9364SOL     OW30629   5.559   0.921   6.994  0.2110  0.4485 -0.0325
 9364SOL    HW130630   5.615   0.880   6.928  0.5482 -0.4838  0.8115
 9364SOL    HW230631   5.598   1.007   7.009  0.7724  0.2361 -0.2578
 9365SOL     OW30632   2.228   8.804   8.737  0.8045  0.3170 -0.3929
 9365SOL    HW130633   2.263   8.859   8.807  1.0320  0.3630 -0.5418
 9365SOL    HW230634   2.152   8.760   8.777  1.9122 -0.9194  0.3786
 9366SOL     OW30635   6.308   0.311   0.962 -0.0632  0.2912 -0.6179
 9366SOL    HW130636   6.371   0.253   0.918  4.3515  3.7010  0.7447
 9366SOL    HW230637   6.314   0.287   1.054  1.1166  2.1658 -0.1715
 9367SOL     OW30638   5.811   0.507   6.700  0.0604 -0.5440  0.0369
 9367SOL    HW130639   5.860   0.561   6.762  1.3751 -2.2613  0.5224
 9367SOL    HW230640   5.753   0.455   6.756 -0.0839 -0.7576 -0.3135
 9368SOL     OW30641   1.004   6.044   8.287  0.1499 -0.3587  0.3480
 9368SOL    HW130642   0.937   6.052   8.355  1.6012  1.4192  1.6270
 9368SOL    HW230643   1.087   6.038   8.335  1.2129  0.9515 -1.2203
 9369SOL     OW30644   5.285  10.148   0.221 -0.1215 -0.2391 -0.0481
 9369SOL    HW130645   5.255  10.143   0.130  1.2909  1.5761 -0.6415
 9369SOL    HW230646   5.339  10.227   0.224  0.5359 -0.7460  2.1806
 9370SOL     OW30647   3.711   3.203   6.529  0.4292  0.0215 -0.6352
 9370SOL    HW130648   3.627   3.156   6.533  0.7480 -0.4905  0.2423
 9370SOL    HW230649   3.708   3.264   6.602  0.7695  0.0881 -0.6758
 9371SOL     OW30650   0.371   7.824   0.807  0.1398  0.1124 -0.5377
 9371SOL    HW130651   0.326   7.893   0.758  0.9354  0.7239 -0.4111
 9371SOL    HW230652   0.316   7.747   0.794  0.1898  0.3331 -2.1680
 9372SOL     OW30653   1.963   9.450   4.942 -0.3780 -0.0158  0.0714
 9372SOL    HW130654   1.996   9.368   4.906 -1.4623 -0.7320  0.6632
 9372SOL    HW230655   1.941   9.430   5.033 -1.5770  0.6512 -0.0493
 9373SOL     OW30656   1.765   3.814   2.981 -0.1645  0.1242  0.4132
 9373SOL    HW130657   1.844   3.796   2.931  0.0833  1.9390  0.1240
 9373SOL    HW230658   1.697   3.761   2.939  0.3484  0.5283 -0.9257
 9374SOL     OW30659   9.041  10.010   5.009 -0.3748  0.2467 -0.0377
 9374SOL    HW130660   9.123  10.031   5.054  0.0392 -1.6573  0.1678
 9374SOL    HW230661   9.042  10.062   4.929  0.5020  1.0774  0.5158
 9375SOL     OW30662   5.841   2.537   3.328  0.0810  0.4282  0.4244
 9375SOL    HW130663   5.843   2.452   3.372 -0.4452  0.3488  0.3043
 9375SOL    HW230664   5.854   2.516   3.236 -0.0296  0.4813  0.3972
 9376SOL     OW30665   7.511   5.111   4.907 -0.0098  0.5343 -0.0931
 9376SOL    HW130666   7.451   5.093   4.980 -0.2297  0.1277 -0.3689
 9376SOL    HW230667   7.487   5.047   4.840  1.4117 -0.3097  0.1788
 9377SOL     OW30668   3.335   2.491   4.576  0.1877  1.0205 -0.2159
 9377SOL    HW130669   3.366   2.427   4.513 -3.0208  0.0494 -0.9142
 9377SOL    HW230670   3.322   2.571   4.525 -2.1076  0.3214 -0.8096
 9378SOL     OW30671   0.591   3.423   6.556 -0.0575 -0.4248 -0.1206
 9378SOL    HW130672   0.555   3.505   6.520  0.7501 -0.0888 -0.1618
 9378SOL    HW230673   0.620   3.374   6.479  0.3160 -0.3499 -0.0237
 9379SOL     OW30674   0.281   9.784   4.172 -0.2314  0.2568  0.0845
 9379SOL    HW130675   0.201   9.776   4.119 -0.2484 -2.4868  0.4558
 9379SOL    HW230676   0.349   9.746   4.117 -0.2692 -2.7418  2.0047
 9380SOL     OW30677   9.982   2.214   3.007  0.0970  0.2033 -0.4741
 9380SOL    HW130678   9.899   2.252   3.037 -0.4582 -1.5123  0.2247
 9380SOL    HW230679   9.961   2.175   2.922  0.2329 -0.0363 -0.3990
 9381SOL     OW30680   7.777   0.656   5.142 -0.1224 -0.2263 -0.3644
 9381SOL    HW130681   7.828   0.659   5.061  1.6780 -2.3257  0.6126
 9381SOL    HW230682   7.768   0.748   5.168  3.2529  0.2522 -0.5953
 9382SOL     OW30683   0.937   3.424   0.681 -0.0043 -0.3389 -0.4441
 9382SOL    HW130684   0.915   3.517   0.676  1.5382  0.1923  1.8513
 9382SOL    HW230685   1.010   3.413   0.620  0.5775  0.2016  0.1552
 9383SOL     OW30686   1.390   0.122   1.046  0.2477 -0.1510  0.2133
 9383SOL    HW130687   1.406   0.217   1.040  0.7733 -0.2330  0.2509
 9383SOL    HW230688   1.362   0.097   0.958 -0.9483  0.2234  0.4814
 9384SOL     OW30689   2.858   1.490   5.595 -0.0879 -0.3543  0.2865
 9384SOL    HW130690   2.792   1.499   5.526 -2.5712 -0.3812  2.6218
 9384SOL    HW230691   2.921   1.560   5.576 -0.9935 -0.0215 -1.6948
 9385SOL     OW30692   1.071   7.472   7.202  0.2605 -0.1391 -0.6621
 9385SOL    HW130693   1.156   7.516   7.192 -0.5501  1.4165 -0.7917
 9385SOL    HW230694   1.048   7.445   7.113  0.8415 -1.0059 -0.5570
 9386SOL     OW30695   8.538   7.294   3.731  0.0422  0.1398  0.2636
 9386SOL    HW130696   8.450   7.317   3.762 -0.1842  0.3493 -0.5360
 9386SOL    HW230697   8.525   7.218   3.675  0.4705 -0.3096  0.7709
 9387SOL     OW30698   0.339   4.596   7.472  0.1860  0.2098  0.1568
 9387SOL    HW130699   0.397   4.521   7.481 -0.0833 -0.0972 -0.5837
 9387SOL    HW230700   0.396   4.672   7.480  0.5493 -0.0789  0.3223
 9388SOL     OW30701   9.754   4.115   0.080 -0.1275 -0.4557 -0.1180
 9388SOL    HW130702   9.766   4.020   0.086  0.7798 -0.3859 -0.6867
 9388SOL    HW230703   9.727   4.142   0.167  2.0542 -0.9014  0.7204
 9389SOL     OW30704   5.608   2.001   7.197 -0.8720  0.3209  0.2165
 9389SOL    HW130705   5.638   2.092   7.202 -2.3391  0.7761  1.2858
 9389SOL    HW230706   5.681   1.950   7.230  0.4138  0.9998 -1.5072
 9390SOL     OW30707   8.482   6.142   7.487 -0.3329 -0.3350 -0.2192
 9390SOL    HW130708   8.442   6.170   7.570  1.4682 -0.3637  0.6955
 9390SOL    HW230709   8.408   6.117   7.432 -1.4637 -2.8069  2.2962
 9391SOL     OW30710   9.387   9.541   7.093  0.5779  0.6107 -0.3144
 9391SOL    HW130711   9.401   9.614   7.032 -0.2027  1.6686  0.7486
 9391SOL    HW230712   9.299   9.509   7.071  1.1974 -0.4897 -1.2546
 9392SOL     OW30713   8.396   7.273   9.031 -0.2981 -0.1705  0.5271
 9392SOL    HW130714   8.378   7.260   9.124  0.9945 -0.8524  0.6930
 9392SOL    HW230715   8.481   7.318   9.029  0.1246 -0.9900 -0.3469
 9393SOL     OW30716   9.016   3.351   1.474 -0.2358  0.5625 -0.0299
 9393SOL    HW130717   9.085   3.321   1.415 -1.0055  0.2330 -0.7604
 9393SOL    HW230718   9.039   3.313   1.558  0.0113 -0.2355 -0.4556
 9394SOL     OW30719   2.213   5.475   8.364  0.1889  0.4349  0.0529
 9394SOL    HW130720   2.127   5.492   8.327  0.0430  1.9105  1.0294
 9394SOL    HW230721   2.197   5.451   8.455  0.7197 -0.5794 -0.1146
 9395SOL     OW30722   2.194   9.501   1.597 -0.1214  0.4354 -0.0255
 9395SOL    HW130723   2.125   9.505   1.664 -1.4630  2.3531 -1.4653
 9395SOL    HW230724   2.267   9.550   1.635  0.4728 -1.5314  1.4757
 9396SOL     OW30725   7.368   5.061   5.814 -0.0716 -0.6153 -0.6179
 9396SOL    HW130726   7.401   5.002   5.882  1.4189 -0.6299 -1.3368
 9396SOL    HW230727   7.280   5.029   5.794 -1.8773  1.2951  3.5690
 9397SOL     OW30728   7.280   3.718   7.178  0.1770 -0.0615  0.0973
 9397SOL    HW130729   7.349   3.738   7.241 -0.0284  0.1049  0.2656
 9397SOL    HW230730   7.328   3.694   7.098  0.4126  1.0158 -0.0863
 9398SOL     OW30731   1.062   9.080   1.104  0.3618 -0.0209 -0.0475
 9398SOL    HW130732   1.074   8.999   1.153 -1.6201 -1.6380 -2.1434
 9398SOL    HW230733   1.141   9.087   1.050  0.2663 -0.8980 -0.3100
 9399SOL     OW30734   2.064   8.856  10.049  0.0362  0.2919  0.7708
 9399SOL    HW130735   2.004   8.869   9.975  0.1020 -0.2102  0.6246
 9399SOL    HW230736   2.008   8.824  10.119 -0.0105  0.6764  0.9072
 9400SOL     OW30737  10.063   6.431   8.619 -0.2331 -0.1924  0.6571
 9400SOL    HW130738  10.030   6.508   8.665 -2.2600 -1.4065  1.2815
 9400SOL    HW230739   9.987   6.396   8.573  0.6419 -1.8675  0.4537
 9401SOL     OW30740   2.949   3.192   5.234  0.1976 -0.3144  0.3796
 9401SOL    HW130741   3.043   3.207   5.233  0.2455 -0.6740 -0.4857
 9401SOL    HW230742   2.939   3.103   5.268  0.2420 -0.7689 -0.7722
 9402SOL     OW30743   6.674   8.680   4.610 -0.1601  0.4645 -0.1604
 9402SOL    HW130744   6.736   8.734   4.659 -1.3149  0.2751  1.5747
 9402SOL    HW230745   6.681   8.593   4.650 -1.6897  0.4963  0.2349
 9403SOL     OW30746   5.560   9.349   6.882  0.1400  0.9473  0.0977
 9403SOL    HW130747   5.467   9.330   6.870  0.3537 -0.3388  0.3547
 9403SOL    HW230748   5.565   9.391   6.968 -0.2735  1.5496 -0.1729
 9404SOL     OW30749   2.892   9.167   4.949 -0.4520 -0.3013  0.5170
 9404SOL    HW130750   2.827   9.198   4.886 -0.7602 -1.6634  0.1473
 9404SOL    HW230751   2.973   9.213   4.925 -0.6859 -0.4417 -0.5744
 9405SOL     OW30752   5.654   5.608   3.673  0.1738 -0.2674 -0.4044
 9405SOL    HW130753   5.605   5.690   3.664  1.4809  0.4544 -1.0590
 9405SOL    HW230754   5.680   5.586   3.583  1.3318 -0.4564 -0.0304
 9406SOL     OW30755   5.372   9.227   0.770 -0.2063 -0.4082 -0.2768
 9406SOL    HW130756   5.369   9.300   0.832  0.6439  0.7144 -1.5407
 9406SOL    HW230757   5.280   9.207   0.752 -0.4762 -0.9785  1.5766
 9407SOL     OW30758   5.740   5.777   4.611 -0.4486 -0.0987 -0.1772
 9407SOL    HW130759   5.645   5.786   4.604 -0.3295  0.7340 -0.7214
 9407SOL    HW230760   5.754   5.729   4.692 -1.3537 -0.5189 -0.2742
 9408SOL     OW30761   1.401   1.894   7.481 -0.3232  0.5202 -0.2983
 9408SOL    HW130762   1.494   1.871   7.485 -0.5934 -0.7995 -1.2178
 9408SOL    HW230763   1.391   1.965   7.545  1.1255  0.0249  0.5052
 9409SOL     OW30764   5.252   4.526   0.307 -0.3463  0.5465 -0.2445
 9409SOL    HW130765   5.335   4.503   0.266  0.6671  1.0081  1.5274
 9409SOL    HW230766   5.187   4.471   0.262  1.1012 -0.8678 -0.6354
 9410SOL     OW30767   7.803   8.006   2.460 -0.0626  0.1914  0.4737
 9410SOL    HW130768   7.727   8.046   2.419 -0.9054 -1.4588  0.4042
 9410SOL    HW230769   7.858   8.080   2.485 -0.7775  1.3196 -1.2133
 9411SOL     OW30770   2.300   8.021   5.391  0.0858  1.0505 -0.2485
 9411SOL    HW130771   2.238   8.089   5.417  0.6376  1.4898 -0.0840
 9411SOL    HW230772   2.328   8.047   5.304 -0.0315  0.7979 -0.3628
 9412SOL     OW30773   5.446   2.071   2.158 -0.5463  0.3846  0.2672
 9412SOL    HW130774   5.501   2.042   2.231 -0.0242 -0.2401 -0.3745
 9412SOL    HW230775   5.472   2.161   2.142 -0.1826  0.3039  0.4077
 9413SOL     OW30776   8.698   8.792   0.890  0.4685 -0.2446  0.5702
 9413SOL    HW130777   8.739   8.866   0.846 -1.1733  2.2772  3.0490
 9413SOL    HW230778   8.756   8.773   0.964 -1.2577  1.4350  2.4073
 9414SOL     OW30779   5.911   8.464   3.942 -0.2442 -0.7914 -0.1010
 9414SOL    HW130780   5.948   8.407   3.874 -1.1152 -1.7857  0.2522
 9414SOL    HW230781   5.911   8.410   4.021 -1.3161 -0.3779  0.1789
 9415SOL     OW30782   0.042   6.302   5.814  0.1379 -0.2828 -0.3599
 9415SOL    HW130783   0.092   6.349   5.880 -0.8774 -0.6313  0.6715
 9415SOL    HW230784   0.108   6.263   5.757  1.0352 -0.9254  1.1065
 9416SOL     OW30785   1.570   0.849   0.127 -0.4471 -0.1881  0.0808
 9416SOL    HW130786   1.497   0.853   0.189  0.5787 -1.3947  1.4190
 9416SOL    HW230787   1.648   0.864   0.182  0.4291 -0.6879 -1.0130
 9417SOL     OW30788   2.270   3.519   3.554 -0.0636 -0.3310 -0.7229
 9417SOL    HW130789   2.322   3.556   3.625 -0.0104 -1.3092 -0.2424
 9417SOL    HW230790   2.240   3.595   3.504  1.2749  0.2741 -0.6255
 9418SOL     OW30791   6.999   6.053   4.602 -0.1354 -0.0592 -0.0591
 9418SOL    HW130792   7.083   6.077   4.563 -1.6447  0.2722 -3.2908
 9418SOL    HW230793   6.957   6.136   4.621 -0.5428 -0.2092 -0.3045
 9419SOL     OW30794   7.779   8.945   5.783 -0.0956  0.5676 -0.1500
 9419SOL    HW130795   7.870   8.921   5.805 -0.2835 -0.0229  0.0038
 9419SOL    HW230796   7.782   9.039   5.770  0.4463  0.6258  0.3479
 9420SOL     OW30797   4.690   6.035   8.657  0.1862  0.1878  0.7543
 9420SOL    HW130798   4.781   6.026   8.686  0.0386  0.9381  1.4936
 9420SOL    HW230799   4.691   6.111   8.599  0.3034 -0.7395 -0.4665
 9421SOL     OW30800   2.774   6.427  10.033  0.1975  0.3040 -0.2319
 9421SOL    HW130801   2.690   6.382  10.026 -0.5115  1.5170  0.2246
 9421SOL    HW230802   2.838   6.365   9.999 -1.0664 -0.0569 -2.0239
 9422SOL     OW30803   8.896   1.916   3.726  0.3472 -0.4250  0.6847
 9422SOL    HW130804   8.942   2.000   3.725 -1.7816  0.7632 -1.1359
 9422SOL    HW230805   8.955   1.856   3.679  0.5633  0.7915 -0.6449
 9423SOL     OW30806   8.952   5.795   2.172 -0.1465 -0.4463 -0.9036
 9423SOL    HW130807   8.999   5.860   2.120  2.1635 -1.1131  0.2869
 9423SOL    HW230808   8.970   5.712   2.129 -1.4335 -0.5692 -1.2456
 9424SOL     OW30809   4.755   9.948   0.478  0.3073 -0.5947 -0.3658
 9424SOL    HW130810   4.821   9.900   0.429 -0.8031 -1.9662 -0.5556
 9424SOL    HW230811   4.704   9.881   0.523  0.0971  0.5286  1.1302
 9425SOL     OW30812   5.499   1.924   0.885  0.2380 -0.0835 -0.3557
 9425SOL    HW130813   5.593   1.927   0.872  0.3160 -1.3485 -0.1523
 9425SOL    HW230814   5.484   1.844   0.936 -0.9638 -0.0195 -0.5895
 9426SOL     OW30815   6.458   5.185   7.839 -0.0558  0.0318  0.0641
 9426SOL    HW130816   6.548   5.151   7.837 -0.5379 -1.2449 -0.4545
 9426SOL    HW230817   6.422   5.162   7.753 -0.9065  0.4535  0.3065
 9427SOL     OW30818   1.725   5.755   4.223  0.0376  0.1229  0.2822
 9427SOL    HW130819   1.765   5.690   4.281  0.1370  0.4004  0.5253
 9427SOL    HW230820   1.650   5.789   4.273 -0.3924 -0.2581 -0.0965
 9428SOL     OW30821   1.178  10.194   6.873 -0.6127  0.3906  0.2860
 9428SOL    HW130822   1.209  10.107   6.897 -1.9978  0.0137  0.7719
 9428SOL    HW230823   1.229  10.253   6.928  3.5965  0.2427 -3.2916
 9429SOL     OW30824   2.520   6.194   5.040  0.7445  0.3718  0.4543
 9429SOL    HW130825   2.589   6.184   5.105  1.7218  0.6868 -0.5318
 9429SOL    HW230826   2.550   6.264   4.982  0.9985 -1.4690 -1.7326
 9430SOL     OW30827   8.820   6.681   6.984 -0.4990  0.2011  0.1208
 9430SOL    HW130828   8.866   6.696   7.067 -0.8676  1.4921  0.0999
 9430SOL    HW230829   8.785   6.767   6.960 -2.2221 -0.5941 -0.2725
 9431SOL     OW30830   8.071   6.688   6.190  0.0719 -0.1148 -0.2023
 9431SOL    HW130831   8.135   6.737   6.241  0.0818 -0.0815 -0.2468
 9431SOL    HW230832   8.019   6.641   6.255  0.8482 -1.0057 -0.2232
 9432SOL     OW30833   5.822   3.469   2.764  0.0727  0.2760 -0.4676
 9432SOL    HW130834   5.741   3.519   2.775 -0.6666 -0.9231 -0.3371
 9432SOL    HW230835   5.851   3.489   2.675 -0.5390  0.4718 -0.6243
 9433SOL     OW30836   3.605   4.275   0.195 -0.9639 -0.0095  0.1182
 9433SOL    HW130837   3.697   4.265   0.215 -0.8538 -0.5840 -0.6427
 9433SOL    HW230838   3.583   4.364   0.223 -0.2459  0.0293  0.5416
 9434SOL     OW30839   4.827   3.801   6.196 -0.4924  0.3946 -0.4090
 9434SOL    HW130840   4.816   3.807   6.291 -0.0759 -0.5441 -0.2986
 9434SOL    HW230841   4.858   3.888   6.171  0.0343  0.4533  0.4024
 9435SOL     OW30842   6.864   2.734   4.179 -0.4235  0.6823  0.4760
 9435SOL    HW130843   6.803   2.802   4.208 -1.4614 -0.5923  1.3216
 9435SOL    HW230844   6.825   2.699   4.099  0.8645  2.0650 -0.7910
 9436SOL     OW30845   2.513   7.599   2.398  0.1761 -0.3886  0.3074
 9436SOL    HW130846   2.488   7.512   2.366 -2.7610  0.9898 -1.4056
 9436SOL    HW230847   2.595   7.619   2.353 -1.2988 -0.5778 -2.5616
 9437SOL     OW30848   4.029   7.033   7.896 -0.1759 -0.0955  0.1732
 9437SOL    HW130849   4.030   7.044   7.991  2.5939  0.7839  0.0778
 9437SOL    HW230850   4.065   6.946   7.881 -0.5540 -0.2096 -0.0944
 9438SOL     OW30851   4.764   5.582   4.956  0.0620  0.1348  0.1434
 9438SOL    HW130852   4.740   5.616   5.042  0.9317 -0.7120  0.7336
 9438SOL    HW230853   4.716   5.499   4.949  1.1332 -0.5238  0.4437
 9439SOL     OW30854   2.902   3.963   5.193  0.1231 -0.0678 -0.6831
 9439SOL    HW130855   2.903   3.873   5.162  2.0592 -0.2200 -0.1932
 9439SOL    HW230856   2.853   4.011   5.126  1.6497 -0.9398 -2.4678
 9440SOL     OW30857   1.454   2.204   9.911  0.1429  0.0742  0.2232
 9440SOL    HW130858   1.381   2.243   9.863 -0.2617  0.1137  0.8715
 9440SOL    HW230859   1.532   2.238   9.868 -0.2111  0.9421  0.2651
 9441SOL     OW30860   1.113   0.897   1.225 -0.4631 -0.3596  0.2877
 9441SOL    HW130861   1.193   0.924   1.179 -0.5372  1.5774  1.2675
 9441SOL    HW230862   1.144   0.857   1.306 -0.3951 -2.4413 -0.7237
 9442SOL     OW30863   4.974   6.793   7.156 -0.6428 -0.5475  0.4461
 9442SOL    HW130864   5.062   6.784   7.118 -1.8939 -0.8342 -2.5249
 9442SOL    HW230865   4.969   6.884   7.185 -0.1258  0.1240 -1.4773
 9443SOL     OW30866   1.345   5.387   8.045 -0.3693  0.0990 -0.7157
 9443SOL    HW130867   1.368   5.470   8.002 -1.0403  1.7124  1.9287
 9443SOL    HW230868   1.416   5.372   8.108 -1.2792 -0.2424  0.2432
 9444SOL     OW30869   1.376   7.785   7.772  0.2814 -0.6381  0.3137
 9444SOL    HW130870   1.370   7.879   7.754 -0.3128 -0.6982  0.1860
 9444SOL    HW230871   1.415   7.781   7.859  0.1915 -0.2664  0.3749
 9445SOL     OW30872   8.172   4.034   0.953 -0.0667 -0.3757 -0.1552
 9445SOL    HW130873   8.215   3.952   0.928  0.4406 -0.4359  0.8858
 9445SOL    HW230874   8.112   4.009   1.023  0.2980  0.1882  0.3603
 9446SOL     OW30875   6.140   8.386   8.491  0.1947 -0.6573 -0.0394
 9446SOL    HW130876   6.053   8.360   8.521 -0.6019  1.9875  0.0612
 9446SOL    HW230877   6.136   8.378   8.396 -0.9845  1.6555 -0.2388
 9447SOL     OW30878   5.370   1.455   9.130  0.0224  0.0248  0.8450
 9447SOL    HW130879   5.455   1.454   9.174  0.2517  0.5035  0.4178
 9447SOL    HW230880   5.366   1.371   9.083  1.0687  0.7781 -0.6520
 9448SOL     OW30881   4.419   9.847   0.375  0.2424  0.2246 -0.0810
 9448SOL    HW130882   4.332   9.812   0.395 -0.0298  0.4699 -0.8110
 9448SOL    HW230883   4.431   9.828   0.282  1.2350 -0.3635  0.1602
 9449SOL     OW30884   0.975   2.330   6.682  0.6261 -0.1179 -0.2682
 9449SOL    HW130885   0.988   2.235   6.681  0.9100 -0.0868 -3.2083
 9449SOL    HW230886   1.043   2.364   6.624 -0.7358  1.6943 -0.8551
 9450SOL     OW30887   1.898   9.589   8.516  0.1757 -0.1276 -0.0356
 9450SOL    HW130888   1.861   9.557   8.599 -0.0067  0.9061  0.2899
 9450SOL    HW230889   1.962   9.655   8.543 -0.1320  0.4612 -0.7260
 9451SOL     OW30890   5.977   3.434   1.235  0.2600  0.0312  0.2695
 9451SOL    HW130891   5.897   3.452   1.187  1.2331  0.3461 -1.2861
 9451SOL    HW230892   6.041   3.409   1.168  1.1456 -1.4150  1.5815
 9452SOL     OW30893   2.717   1.812   5.148 -0.3476  0.6318  0.6716
 9452SOL    HW130894   2.660   1.889   5.150 -0.0882  0.9799 -2.6828
 9452SOL    HW230895   2.789   1.836   5.090  1.1920 -1.1859  1.7485
 9453SOL     OW30896   1.259   0.609   6.195  0.0120 -0.0465  0.3484
 9453SOL    HW130897   1.200   0.565   6.257 -0.4700  0.6715  0.4016
 9453SOL    HW230898   1.246   0.702   6.211  0.9200  0.1229  0.1218
 9454SOL     OW30899   1.542   6.682   5.103 -0.1889 -0.1148 -0.0859
 9454SOL    HW130900   1.501   6.747   5.161  1.4829  1.0925 -0.2302
 9454SOL    HW230901   1.558   6.606   5.159 -2.6359 -0.6558 -0.0352
 9455SOL     OW30902   5.742   5.569   3.371 -0.0873 -0.3370  0.1618
 9455SOL    HW130903   5.757   5.589   3.279  0.1510  0.6706  0.4130
 9455SOL    HW230904   5.822   5.523   3.398  0.6939  1.1349  0.3724
 9456SOL     OW30905   6.874   5.774   5.215 -0.3374 -0.1166  0.0670
 9456SOL    HW130906   6.865   5.820   5.132  1.3096  0.7806  0.3577
 9456SOL    HW230907   6.952   5.720   5.205 -0.3200 -0.2576  0.8999
 9457SOL     OW30908   5.790   4.147   4.129  0.1886 -0.4594 -0.2426
 9457SOL    HW130909   5.700   4.113   4.130  0.3860 -1.0307 -1.0988
 9457SOL    HW230910   5.838   4.088   4.187  0.2624 -0.9102 -0.7490
 9458SOL     OW30911   9.383   7.781   0.271  0.5146 -0.3188  0.0232
 9458SOL    HW130912   9.472   7.755   0.247  0.5929 -0.6929  0.7140
 9458SOL    HW230913   9.350   7.710   0.325 -0.0329  0.0454  0.1771
 9459SOL     OW30914   3.224   6.539   6.784  0.5747 -0.2541 -0.1413
 9459SOL    HW130915   3.311   6.512   6.755  0.6516 -2.2336  1.7643
 9459SOL    HW230916   3.164   6.487   6.730  0.5794  0.7185 -1.0887
 9460SOL     OW30917   9.449   2.005   7.317  0.4251 -0.0312 -0.0986
 9460SOL    HW130918   9.416   1.916   7.310  0.1958  0.1666 -1.7487
 9460SOL    HW230919   9.544   1.995   7.321  0.4926 -0.3036 -1.7886
 9461SOL     OW30920   8.215   5.994   2.069 -0.5348  0.3408 -0.0297
 9461SOL    HW130921   8.230   5.919   2.013 -0.1762  0.8464 -0.6121
 9461SOL    HW230922   8.174   5.958   2.147 -0.2957 -0.4659 -0.2779
 9462SOL     OW30923   2.822   7.295   5.194  0.0635 -0.3427  0.6030
 9462SOL    HW130924   2.779   7.379   5.179  1.8626  0.1574 -2.0378
 9462SOL    HW230925   2.770   7.232   5.144  2.2569  0.2639 -2.5991
 9463SOL     OW30926   9.639   0.029   4.048  0.2300  0.0867  0.2923
 9463SOL    HW130927   9.619  -0.020   3.968  1.1678  0.0846  0.0481
 9463SOL    HW230928   9.554   0.054   4.083 -0.2673 -1.9151  0.5518
 9464SOL     OW30929   6.869   8.455   6.659 -0.5512 -1.0142 -0.6782
 9464SOL    HW130930   6.816   8.419   6.730 -1.9239  0.9752 -0.6339
 9464SOL    HW230931   6.814   8.446   6.581  0.5560 -2.2971 -1.3328
 9465SOL     OW30932   9.941   0.895   5.355  0.2108  0.5638 -0.4427
 9465SOL    HW130933   9.864   0.843   5.377  0.9776 -0.9081 -1.1821
 9465SOL    HW230934  10.001   0.833   5.314  1.6269  1.7870 -0.2536
 9466SOL     OW30935   0.056   7.819   5.028  0.0916 -0.1085  0.3239
 9466SOL    HW130936   0.053   7.731   5.067  0.1529 -0.1099  0.3273
 9466SOL    HW230937   0.131   7.861   5.071  0.5161 -0.3104 -0.2176
 9467SOL     OW30938   0.142   6.689   9.207  0.6578  0.6370  0.4962
 9467SOL    HW130939   0.096   6.612   9.240  0.2224  0.6001 -0.1989
 9467SOL    HW230940   0.215   6.653   9.156  0.2082  0.6766 -0.1812
 9468SOL     OW30941   3.023   5.533   4.188  0.2730 -0.1456 -0.1248
 9468SOL    HW130942   3.117   5.514   4.197  0.4568  0.3720 -0.8614
 9468SOL    HW230943   2.982   5.485   4.260  1.3911  2.0061  2.0163
 9469SOL     OW30944   1.049   3.233   2.919 -0.3872 -0.1306 -0.3883
 9469SOL    HW130945   0.990   3.266   2.986  0.2844  1.6940 -0.6601
 9469SOL    HW230946   1.137   3.246   2.956 -0.0660 -0.3652 -1.0537
 9470SOL     OW30947   4.774   0.376   8.192 -0.1547 -0.2442 -0.5071
 9470SOL    HW130948   4.841   0.412   8.250 -1.4322  0.9943  0.2341
 9470SOL    HW230949   4.703   0.351   8.251  0.0334 -2.4759 -1.1855
 9471SOL     OW30950   1.076   1.472   5.637 -0.6044  0.1181  0.4067
 9471SOL    HW130951   1.077   1.550   5.581 -0.9863  0.5519  1.0070
 9471SOL    HW230952   0.987   1.438   5.630 -0.1315 -0.9367 -0.7724
 9472SOL     OW30953   2.500   0.686   8.607 -0.1652 -0.6084 -0.2845
 9472SOL    HW130954   2.528   0.649   8.524  1.1060 -1.9879  0.7147
 9472SOL    HW230955   2.528   0.621   8.672 -1.7206  0.1363  1.1521
 9473SOL     OW30956   4.831   6.588   0.152 -0.1099 -0.1821  0.1963
 9473SOL    HW130957   4.830   6.533   0.074  0.2888  0.0538  0.0210
 9473SOL    HW230958   4.746   6.575   0.193  0.5113 -2.0304  0.9284
 9474SOL     OW30959   5.788   1.592   9.164 -0.3158  0.4370  0.2290
 9474SOL    HW130960   5.730   1.661   9.135 -0.7828  0.6307  1.6001
 9474SOL    HW230961   5.732   1.531   9.211  0.3317 -0.1686  0.2361
 9475SOL     OW30962   0.726   7.461   6.025 -0.0069 -0.0290  0.9151
 9475SOL    HW130963   0.677   7.420   5.954  0.4789 -1.0629  1.1716
 9475SOL    HW230964   0.817   7.462   5.995 -0.0322  0.9987  0.8496
 9476SOL     OW30965   9.010   3.256   3.747 -0.0582  0.4521 -0.2481
 9476SOL    HW130966   9.055   3.198   3.686  0.9437 -1.7612  2.4973
 9476SOL    HW230967   8.917   3.244   3.728  0.1713 -1.4906 -0.2362
 9477SOL     OW30968   0.219   7.243   8.289  0.1717 -0.9282 -0.4946
 9477SOL    HW130969   0.216   7.148   8.292  0.2412 -0.9341 -0.6132
 9477SOL    HW230970   0.203   7.265   8.197 -1.3881 -0.7652 -0.2031
 9478SOL     OW30971   0.408   6.091   0.117  0.4104 -0.0466 -0.0533
 9478SOL    HW130972   0.313   6.103   0.119 -0.0088 -3.0139  1.1969
 9478SOL    HW230973   0.444   6.180   0.116 -2.3223  1.1707  2.3069
 9479SOL     OW30974   7.864   4.035   9.312  0.0483 -0.1199 -0.1144
 9479SOL    HW130975   7.775   4.066   9.330 -0.0447  0.4058 -1.4223
 9479SOL    HW230976   7.903   4.023   9.398 -0.6629  1.4749  0.4499
 9480SOL     OW30977   5.814   6.407   0.578 -0.4947 -0.2672  0.0163
 9480SOL    HW130978   5.909   6.416   0.589 -0.4664 -0.1662 -0.3002
 9480SOL    HW230979   5.782   6.497   0.580 -0.8037 -0.3946  2.0537
 9481SOL     OW30980   0.603   6.327   8.464  0.5565  0.1645 -0.1703
 9481SOL    HW130981   0.567   6.238   8.459  1.5459 -0.2353 -0.2905
 9481SOL    HW230982   0.541   6.380   8.413 -1.1439 -0.0743  1.6066
 9482SOL     OW30983   5.375   5.786   2.992 -0.2451 -0.8126 -0.6473
 9482SOL    HW130984   5.283   5.812   2.987  0.3104  0.9634 -2.0096
 9482SOL    HW230985   5.417   5.832   2.920  1.7008 -1.7065 -0.1120
 9483SOL     OW30986   8.434   9.105   0.201 -0.2768  0.2692  0.6122
 9483SOL    HW130987   8.527   9.099   0.221  0.3524  1.1567 -1.8560
 9483SOL    HW230988   8.391   9.109   0.287  2.1017  2.0082  1.7939
 9484SOL     OW30989   5.632   4.565   0.704  0.0036 -0.2568 -0.0654
 9484SOL    HW130990   5.676   4.638   0.661  0.5478 -0.0256  0.8620
 9484SOL    HW230991   5.551   4.553   0.655 -0.2654  1.2228  0.0001
 9485SOL     OW30992   0.287   7.890   7.057  0.2607 -0.1494 -0.1012
 9485SOL    HW130993   0.325   7.857   7.138 -1.8264  0.0436  0.9873
 9485SOL    HW230994   0.311   7.824   6.991 -0.0316 -1.5401  1.1537
 9486SOL     OW30995   9.214   0.261   8.541 -0.3362  0.7557  0.6793
 9486SOL    HW130996   9.158   0.184   8.534  0.3615  0.4692 -2.1105
 9486SOL    HW230997   9.298   0.226   8.572 -0.0504  0.3867 -0.4871
 9487SOL     OW30998   3.427   8.128   8.837  0.5156 -0.0741 -0.2734
 9487SOL    HW130999   3.507   8.168   8.801  0.4425  0.3957  0.0871
 9487SOL    HW231000   3.405   8.059   8.774  1.2117 -0.2112 -0.3733
 9488SOL     OW31001  10.147   8.596   0.648  0.1459  0.1085  0.5684
 9488SOL    HW131002  10.088   8.634   0.713  0.5176  0.2872  0.8088
 9488SOL    HW231003  10.094   8.584   0.570 -0.7391 -1.6645  1.4297
 9489SOL     OW31004   7.616   2.884   9.089 -0.3110 -0.1767  0.0698
 9489SOL    HW131005   7.578   2.835   9.016  0.6674 -2.4488  1.0293
 9489SOL    HW231006   7.658   2.960   9.048 -1.9312 -0.0474 -1.4374
 9490SOL     OW31007   8.533   5.659   5.868  0.5806  0.0429 -0.2367
 9490SOL    HW131008   8.484   5.737   5.842 -0.7794 -0.6520  0.1925
 9490SOL    HW231009   8.588   5.688   5.940  0.3776  0.7002 -0.3389
 9491SOL     OW31010   5.700   6.672   1.137 -0.3026 -0.2947  0.4989
 9491SOL    HW131011   5.679   6.602   1.075 -3.2290 -0.9713  2.1784
 9491SOL    HW231012   5.679   6.753   1.090 -0.7713 -0.7230 -0.0396
 9492SOL     OW31013   1.753   5.538   0.633  0.1758  0.0325 -0.1452
 9492SOL    HW131014   1.781   5.448   0.650  2.8083  0.8512  0.1553
 9492SOL    HW231015   1.788   5.588   0.706  0.5665  1.6235 -1.3886
 9493SOL     OW31016   4.488   8.923   3.265 -0.3395 -0.3276 -0.2517
 9493SOL    HW131017   4.410   8.894   3.218 -0.7518  1.2963 -0.6032
 9493SOL    HW231018   4.470   8.902   3.357  0.0823 -2.6477 -0.6555
 9494SOL     OW31019   2.492   9.146   7.397 -0.4365 -0.4405  0.5249
 9494SOL    HW131020   2.486   9.127   7.303  1.1476  0.9560  0.1091
 9494SOL    HW231021   2.582   9.124   7.420 -0.4756  0.3341  1.4579
 9495SOL     OW31022   0.804   7.490   9.904  0.3323  0.1601 -0.2090
 9495SOL    HW131023   0.798   7.450   9.991  0.0589  1.5845  0.4459
 9495SOL    HW231024   0.796   7.417   9.843 -0.3059 -0.7607  0.9576
 9496SOL     OW31025   2.031   0.734   1.863  0.1195 -0.3344  0.2413
 9496SOL    HW131026   2.041   0.809   1.804 -0.8648  0.2233  0.7687
 9496SOL    HW231027   2.098   0.672   1.834  1.6963  1.2029  0.5020
 9497SOL     OW31028   0.349   8.778   2.759 -0.2853  0.0861  0.4976
 9497SOL    HW131029   0.316   8.839   2.693  0.3732 -0.8896 -0.7584
 9497SOL    HW231030   0.307   8.805   2.840 -3.8648 -0.8552 -0.9499
 9498SOL     OW31031   2.975   4.622   2.730 -0.4182 -0.3208 -0.7611
 9498SOL    HW131032   3.025   4.699   2.703  0.8829 -0.7554  0.4062
 9498SOL    HW231033   3.011   4.551   2.678  1.5268 -1.0017  1.4422
 9499SOL     OW31034   9.078   0.531   8.541 -0.0194 -0.1305 -0.1108
 9499SOL    HW131035   9.111   0.441   8.539 -1.0994 -0.5199 -1.0774
 9499SOL    HW231036   9.065   0.550   8.634 -1.9933 -1.8388  0.0123
 9500SOL     OW31037   0.248   9.768   3.777 -0.4314 -0.4472 -0.1578
 9500SOL    HW131038   0.235   9.787   3.685 -1.8716  0.1378  0.1545
 9500SOL    HW231039   0.244   9.853   3.820  0.4982 -0.6861  0.4248
 9501SOL     OW31040   1.872   9.689   1.247  0.3051 -0.1818 -0.2592
 9501SOL    HW131041   1.935   9.751   1.284  0.1353 -0.8881  1.2506
 9501SOL    HW231042   1.790   9.708   1.292 -0.3412  0.0905 -1.5301
 9502SOL     OW31043  10.093   5.976   1.997  0.3754 -0.0745  0.1062
 9502SOL    HW131044  10.010   6.002   2.037  0.2612 -0.0397 -0.1580
 9502SOL    HW231045  10.159   6.024   2.048  0.1575  0.7617 -0.3962
 9503SOL     OW31046   4.207   8.110   4.091 -0.1455  0.7369 -0.2715
 9503SOL    HW131047   4.152   8.068   4.157 -0.4161  2.1859  0.4398
 9503SOL    HW231048   4.229   8.195   4.129  2.8117  0.0923 -0.4262
 9504SOL     OW31049   5.750   4.579   3.998 -0.3560 -0.0428 -0.1780
 9504SOL    HW131050   5.776   4.541   4.083  0.0084 -0.6871 -0.5685
 9504SOL    HW231051   5.721   4.503   3.947  0.3569  0.2157 -0.9666
 9505SOL     OW31052   0.392   9.117   6.853  0.0541  0.1127  0.2415
 9505SOL    HW131053   0.427   9.145   6.937 -0.2206 -0.3641  0.5112
 9505SOL    HW231054   0.422   9.027   6.842 -1.3712 -0.4148  0.6325
 9506SOL     OW31055   7.528  10.124   6.963  0.3494 -0.0570  0.3468
 9506SOL    HW131056   7.433  10.127   6.963  0.3699  1.4485  1.6553
 9506SOL    HW231057   7.552  10.097   7.052  1.1462 -0.6987 -0.0469
 9507SOL     OW31058   3.426   1.229   5.624 -0.0270  0.8757 -1.1671
 9507SOL    HW131059   3.419   1.280   5.543  0.0854  2.2793 -0.3080
 9507SOL    HW231060   3.450   1.141   5.595 -0.4339  1.2540 -2.6886
 9508SOL     OW31061   3.916   2.165   6.883 -0.2248  0.4121  0.2639
 9508SOL    HW131062   3.952   2.251   6.861  1.1296 -0.3525 -0.6100
 9508SOL    HW231063   3.988   2.104   6.865 -0.9702 -0.8416  1.4342
 9509SOL     OW31064   5.031   3.589   1.088 -0.1613  0.0979  0.2360
 9509SOL    HW131065   4.945   3.582   1.047  0.1239  0.9093 -0.5275
 9509SOL    HW231066   5.013   3.624   1.175 -0.4652  2.0302 -0.5836
 9510SOL     OW31067   0.950   9.913   5.945 -0.0846  0.2582  0.3007
 9510SOL    HW131068   0.872   9.864   5.971 -0.1970 -0.3057 -1.0609
 9510SOL    HW231069   1.023   9.854   5.966 -0.2417 -0.7004 -1.7131
 9511SOL     OW31070   8.432   6.995   9.104 -0.4013 -0.1764  0.1571
 9511SOL    HW131071   8.416   7.090   9.106 -0.0650 -0.1281  0.5368
 9511SOL    HW231072   8.518   6.987   9.062 -1.2558 -0.4203 -1.6048
 9512SOL     OW31073   3.738   5.143   0.786 -0.4531  0.0586  0.2832
 9512SOL    HW131074   3.818   5.172   0.830 -0.7504  0.7254  0.3873
 9512SOL    HW231075   3.769   5.098   0.707  0.0331  0.1561  0.4178
 9513SOL     OW31076   8.080   4.358   6.409  0.4987  0.0964 -0.3562
 9513SOL    HW131077   8.083   4.343   6.504 -0.1745  0.1725 -0.3241
 9513SOL    HW231078   8.017   4.428   6.398 -0.8445 -1.1948 -1.0173
 9514SOL     OW31079   8.603   6.706   7.307  0.1732 -0.1918  0.1199
 9514SOL    HW131080   8.539   6.643   7.341 -1.0119  0.2320 -1.3111
 9514SOL    HW231081   8.565   6.739   7.226  2.8464 -0.9855 -1.5242
 9515SOL     OW31082   8.322   5.082   5.893 -0.3128  0.2299 -0.4069
 9515SOL    HW131083   8.324   5.103   5.800  1.3508  1.0045 -0.2126
 9515SOL    HW231084   8.405   5.036   5.909  0.2440  1.6602  1.0249
 9516SOL     OW31085   2.878   8.181   6.097  0.6833 -0.1604 -0.6108
 9516SOL    HW131086   2.933   8.126   6.152  1.2241  0.8209 -0.1779
 9516SOL    HW231087   2.939   8.232   6.044  0.1998  0.7113 -0.3444
 9517SOL     OW31088   6.070   1.185   1.877  0.0232 -0.9655  0.2315
 9517SOL    HW131089   6.153   1.183   1.829  0.6747 -1.4300  1.3400
 9517SOL    HW231090   6.067   1.272   1.917 -0.1891 -0.8265 -0.0846
 9518SOL     OW31091   7.119   4.594   2.480 -0.2600  0.4865  0.1888
 9518SOL    HW131092   7.133   4.630   2.393  1.5941 -0.9573 -0.1535
 9518SOL    HW231093   7.192   4.628   2.532 -2.2559  2.6801  1.6513
 9519SOL     OW31094   9.553   1.859   7.032 -0.3129 -0.1764 -0.4410
 9519SOL    HW131095   9.560   1.763   7.029 -1.6022 -0.3029  0.2077
 9519SOL    HW231096   9.643   1.890   7.022  0.3040 -1.4955  0.8853
 9520SOL     OW31097   3.062   6.440   1.513 -0.2722  0.0280 -0.5301
 9520SOL    HW131098   3.046   6.438   1.607  1.4564 -0.2537 -0.2221
 9520SOL    HW231099   2.995   6.382   1.476 -0.1854 -0.8353  0.6460
 9521SOL     OW31100   6.138   3.110   2.929 -0.3543 -0.0082 -0.1595
 9521SOL    HW131101   6.213   3.126   2.872 -2.1414 -0.6551 -2.7851
 9521SOL    HW231102   6.103   3.198   2.947 -0.1758  0.1616 -0.6323
 9522SOL     OW31103   0.125   8.937   5.270  0.5465  0.4053  0.0479
 9522SOL    HW131104   0.044   8.937   5.322 -1.2555  1.1272 -2.6146
 9522SOL    HW231105   0.160   8.848   5.280 -1.6617 -0.5521 -0.3021
 9523SOL     OW31106   5.564   5.671   1.597 -0.0872  0.5659  0.3529
 9523SOL    HW131107   5.520   5.604   1.649  0.5391  0.2645  0.4987
 9523SOL    HW231108   5.639   5.626   1.558  0.1995  1.1213  0.2597
 9524SOL     OW31109   9.782   8.021   7.598  0.4718  0.2333 -0.0165
 9524SOL    HW131110   9.779   8.019   7.503  2.8139  1.9263 -0.1833
 9524SOL    HW231111   9.693   8.002   7.626 -0.4209  0.5622 -2.5548
 9525SOL     OW31112   9.379   9.970   6.351  0.0981  0.3308  0.0715
 9525SOL    HW131113   9.371   9.877   6.372  1.5285  0.0955 -0.3369
 9525SOL    HW231114   9.368   9.975   6.256 -0.4312  0.6323  0.1489
 9526SOL     OW31115   8.661   2.964   3.277 -0.2401  0.0501  0.0714
 9526SOL    HW131116   8.664   3.050   3.236 -0.5980 -0.6803 -1.5253
 9526SOL    HW231117   8.655   2.903   3.204 -1.1968 -1.2681  1.2243
 9527SOL     OW31118   5.428   5.470   1.700  0.1642  0.1210 -0.5286
 9527SOL    HW131119   5.340   5.462   1.664  0.6489  1.5495 -2.0617
 9527SOL    HW231120   5.463   5.381   1.698 -1.3640 -0.5332  0.4638
 9528SOL     OW31121   2.739   8.392   7.739 -0.9272  0.4487 -0.1905
 9528SOL    HW131122   2.780   8.328   7.797 -2.3266  0.4433  0.8072
 9528SOL    HW231123   2.781   8.379   7.654 -1.1905 -1.7606  0.0116
 9529SOL     OW31124   7.856   6.373   1.680 -0.5421  0.5656 -0.6185
 9529SOL    HW131125   7.841   6.465   1.660  0.8603  0.5576 -1.8201
 9529SOL    HW231126   7.908   6.340   1.606 -0.8904 -1.1449 -0.1322
 9530SOL     OW31127   6.026   2.806   0.736  0.6764 -0.2628 -0.4738
 9530SOL    HW131128   6.065   2.834   0.653  1.5976  0.6593  0.2563
 9530SOL    HW231129   6.047   2.876   0.797  1.2816 -1.6185  0.9055
 9531SOL     OW31130   5.847   6.212   1.760 -0.2888  0.1828 -0.0439
 9531SOL    HW131131   5.833   6.217   1.855 -0.5352  0.7161 -0.1075
 9531SOL    HW231132   5.936   6.244   1.747 -0.5284  0.8325 -0.0712
 9532SOL     OW31133   0.048   1.979   7.718  0.1615 -0.5701 -0.1172
 9532SOL    HW131134  -0.014   1.921   7.761 -1.2169 -0.4962 -1.9523
 9532SOL    HW231135   0.112   1.921   7.678  0.0030 -0.7371 -0.1267
 9533SOL     OW31136   9.177   6.699   7.765 -0.1708  0.0701  0.2429
 9533SOL    HW131137   9.222   6.706   7.681  3.6800 -2.9499  1.8791
 9533SOL    HW231138   9.099   6.646   7.747 -0.0452  0.4929 -1.6266
 9534SOL     OW31139   6.841   0.862   3.897 -0.0701 -0.6096  0.6101
 9534SOL    HW131140   6.809   0.867   3.807 -0.0501  2.2488  0.7313
 9534SOL    HW231141   6.771   0.817   3.944 -1.7519  1.1463 -0.1349
 9535SOL     OW31142   7.698   0.031   4.732  0.1475 -0.3988  0.1645
 9535SOL    HW131143   7.620   0.076   4.702  0.3275  0.7646  1.3943
 9535SOL    HW231144   7.771   0.079   4.693  0.2930 -0.5728  0.2198
 9536SOL     OW31145   2.814   3.270   2.539 -0.2111  0.4081  0.1079
 9536SOL    HW131146   2.780   3.359   2.547 -0.7006  0.0388  2.5525
 9536SOL    HW231147   2.740   3.214   2.560  0.1686 -0.5810 -1.1699
 9537SOL     OW31148   3.458   4.813   4.731 -0.3838  0.0107 -0.3272
 9537SOL    HW131149   3.530   4.751   4.742  0.6756  0.8007 -2.5027
 9537SOL    HW231150   3.389   4.763   4.686  0.2803  0.2400 -1.6330
 9538SOL     OW31151   5.125   1.439   3.499  1.0180  0.4796  0.2583
 9538SOL    HW131152   5.098   1.414   3.411 -0.1839 -0.7277  0.9505
 9538SOL    HW231153   5.184   1.370   3.527 -0.4977 -0.4386  1.2950
 9539SOL     OW31154   7.855   9.928   9.683 -0.0075 -0.0459 -0.2086
 9539SOL    HW131155   7.794   9.917   9.756  0.0973 -3.2495 -0.5671
 9539SOL    HW231156   7.811   9.988   9.623 -1.6547 -0.2605  0.7710
 9540SOL     OW31157   3.383   1.516   0.044 -0.4549  0.4213  0.3638
 9540SOL    HW131158   3.466   1.488   0.084 -0.2842 -0.5450 -0.6282
 9540SOL    HW231159   3.409   1.577  -0.024 -0.7177  1.7679  1.4623
 9541SOL     OW31160   5.161   3.452   6.245  0.3544 -0.6064 -0.2902
 9541SOL    HW131161   5.085   3.489   6.201 -0.2013 -1.0127  0.3146
 9541SOL    HW231162   5.201   3.526   6.290 -0.3919 -0.6152  0.3961
 9542SOL     OW31163   0.222   7.959   8.971 -0.3755 -0.1388  0.1959
 9542SOL    HW131164   0.300   8.011   8.951  0.8074 -1.7814  0.4426
 9542SOL    HW231165   0.208   7.905   8.893 -0.8431 -0.3596  0.4274
 9543SOL     OW31166   7.130   9.750   0.002 -0.3804  0.1174  0.3727
 9543SOL    HW131167   7.084   9.829   0.030  1.8906  1.5693  0.0708
 9543SOL    HW231168   7.084   9.722  -0.077 -2.1122  0.2633  1.3073
 9544SOL     OW31169   9.980   9.760   4.121  0.0916 -0.1363 -0.1445
 9544SOL    HW131170   9.950   9.669   4.123 -0.0809 -0.0712  0.4280
 9544SOL    HW231171   9.915   9.807   4.070  0.0533 -0.2914 -0.2345
 9545SOL     OW31172   8.801   1.009   1.049  0.6150  0.3065  0.1262
 9545SOL    HW131173   8.867   1.070   1.016 -1.4736  1.1676 -2.6770
 9545SOL    HW231174   8.749   0.987   0.972 -1.4799 -1.4865  1.9938
 9546SOL     OW31175   5.432   6.174   0.736 -0.0269 -0.4067  0.1491
 9546SOL    HW131176   5.446   6.246   0.798  1.7698 -0.6492  0.0580
 9546SOL    HW231177   5.362   6.122   0.775 -0.7069  0.8919  0.6756
 9547SOL     OW31178   6.388   0.653   6.102  0.0537  0.7397 -0.0313
 9547SOL    HW131179   6.411   0.695   6.185 -0.7974  0.1019  0.5403
 9547SOL    HW231180   6.395   0.723   6.037 -0.6747  1.5967  0.7983
 9548SOL     OW31181   2.059   5.484   4.973  0.4889 -0.2119 -0.1817
 9548SOL    HW131182   1.973   5.466   4.935  0.6382  0.6600 -0.9593
 9548SOL    HW231183   2.078   5.408   5.028 -0.8558 -0.3322  0.1325
 9549SOL     OW31184   8.295   6.553   9.025  0.3136  0.0307 -0.0105
 9549SOL    HW131185   8.201   6.534   9.026  0.3112 -0.1226 -1.5981
 9549SOL    HW231186   8.313   6.593   9.110 -1.3936  1.0462 -0.1095
 9550SOL     OW31187   2.947   5.738   3.275  0.1842  0.4066 -0.2689
 9550SOL    HW131188   2.899   5.685   3.339  1.8128  0.0253  0.6869
 9550SOL    HW231189   2.931   5.695   3.191  1.8587 -1.9405  0.5483
 9551SOL     OW31190   3.846   8.680   5.371 -0.1290  0.1898  0.7044
 9551SOL    HW131191   3.929   8.726   5.384 -0.0715  0.3476 -0.2145
 9551SOL    HW231192   3.871   8.595   5.335 -0.2714 -0.3470  1.8666
 9552SOL     OW31193   0.352   7.109   3.096 -0.5145  0.0685  0.1455
 9552SOL    HW131194   0.370   7.067   3.011  1.1272 -2.7142  1.7961
 9552SOL    HW231195   0.260   7.091   3.112 -0.4934 -0.5629 -0.4097
 9553SOL     OW31196   0.365   7.888   6.706  0.5390 -0.2020 -0.3545
 9553SOL    HW131197   0.369   7.802   6.749  1.8393  0.4703  0.9030
 9553SOL    HW231198   0.299   7.936   6.757  0.2370 -0.2550 -0.6950
 9554SOL     OW31199   5.653   1.298   7.168 -0.2754 -0.0251 -0.2552
 9554SOL    HW131200   5.719   1.293   7.099 -0.7343  0.9365 -0.7799
 9554SOL    HW231201   5.701   1.279   7.249  0.5162  0.0591 -0.6995
 9555SOL     OW31202   6.637   3.399   7.489  0.1326  0.0209 -0.2233
 9555SOL    HW131203   6.594   3.329   7.538  0.4413  0.4510  0.6847
 9555SOL    HW231204   6.659   3.360   7.405 -0.1983 -0.8081  0.0742
 9556SOL     OW31205   8.397   0.579   2.274 -0.0096  0.2661 -0.2802
 9556SOL    HW131206   8.475   0.527   2.257  0.4667  1.5311 -2.0723
 9556SOL    HW231207   8.324   0.516   2.269  0.7563 -0.6606  0.0885
 9557SOL     OW31208   5.788   9.183   7.755  0.2653  0.1996  0.0417
 9557SOL    HW131209   5.768   9.264   7.802  1.6985  0.0913  0.8449
 9557SOL    HW231210   5.862   9.145   7.802  1.7863  0.1263 -2.3453
 9558SOL     OW31211   1.043   7.790   4.548 -0.4358  0.3225 -0.2476
 9558SOL    HW131212   1.089   7.874   4.551 -0.3377  0.3024 -0.9633
 9558SOL    HW231213   1.112   7.725   4.534 -0.4910  0.1001  0.5162
 9559SOL     OW31214   1.125   0.878   2.371  0.2350 -0.1197 -0.0417
 9559SOL    HW131215   1.157   0.795   2.336  1.4574  0.1824  0.3414
 9559SOL    HW231216   1.031   0.866   2.379 -0.1330 -0.2017 -3.5063
 9560SOL     OW31217   4.744   3.413   4.425 -0.3799 -0.0104  0.5993
 9560SOL    HW131218   4.804   3.354   4.379  0.0730  1.3253 -0.5393
 9560SOL    HW231219   4.660   3.367   4.423 -0.3235 -0.0623 -1.3872
 9561SOL     OW31220   4.410   1.846   9.636 -0.5411 -0.2612 -0.2175
 9561SOL    HW131221   4.334   1.791   9.621 -0.8522 -0.0037  0.4110
 9561SOL    HW231222   4.404   1.872   9.728  0.2823 -0.2076 -0.1710
 9562SOL     OW31223   2.820   5.372   6.612  0.0776  0.7353 -0.5429
 9562SOL    HW131224   2.880   5.310   6.654  0.3207  0.9894 -0.5210
 9562SOL    HW231225   2.735   5.327   6.614 -0.3826  1.6229  2.2005
 9563SOL     OW31226   7.729   5.490   9.229 -0.6679 -0.4599 -0.1458
 9563SOL    HW131227   7.785   5.451   9.162 -0.9806 -0.2879 -0.5110
 9563SOL    HW231228   7.730   5.427   9.301  1.3977  0.3644  0.5716
 9564SOL     OW31229   2.033   9.101   9.690 -0.0267  0.2275 -0.0597
 9564SOL    HW131230   2.124   9.090   9.719 -0.2079 -2.0204 -0.1974
 9564SOL    HW231231   1.987   9.029   9.733 -1.4023  0.3077 -1.4013
 9565SOL     OW31232   3.371   2.300   3.244 -0.1916  0.4801 -0.7996
 9565SOL    HW131233   3.333   2.273   3.328 -1.1791 -0.0966 -1.4156
 9565SOL    HW231234   3.446   2.354   3.268  0.1910 -0.5770  0.4604
 9566SOL     OW31235   6.395   6.432   7.057 -0.0290 -0.0065 -0.0184
 9566SOL    HW131236   6.367   6.499   7.120  0.3354  1.2427 -1.1537
 9566SOL    HW231237   6.441   6.481   6.988  0.0847 -1.4049 -0.9699
 9567SOL     OW31238   3.433   9.388   5.580 -0.1442 -0.1405  0.1926
 9567SOL    HW131239   3.454   9.317   5.520  1.2865 -0.9768  1.6782
 9567SOL    HW231240   3.385   9.346   5.652  0.3308  0.4480  0.8639
 9568SOL     OW31241   1.560   1.856   8.326  0.0426 -0.0496 -0.2595
 9568SOL    HW131242   1.550   1.950   8.318  2.4457  0.2448 -0.0820
 9568SOL    HW231243   1.497   1.830   8.393 -2.4331  1.0295 -2.0648
 9569SOL     OW31244   4.867   6.378   0.692 -0.0219 -0.0427  0.1199
 9569SOL    HW131245   4.943   6.322   0.679  0.9326  1.2035  0.2265
 9569SOL    HW231246   4.814   6.365   0.613 -0.4654 -2.0506  0.7209
 9570SOL     OW31247   6.307   4.847   9.632  0.2460 -0.4315  0.3763
 9570SOL    HW131248   6.300   4.884   9.545 -0.4325 -0.3895  0.4507
 9570SOL    HW231249   6.264   4.911   9.689  2.7206  0.6866  1.0646
 9571SOL     OW31250   1.970   5.062   1.806 -0.1153  0.1948 -0.2632
 9571SOL    HW131251   2.003   5.058   1.896 -0.3888 -0.1641 -0.1755
 9571SOL    HW231252   1.953   4.971   1.783 -0.0779  0.2893 -0.6669
 9572SOL     OW31253   7.306   0.089   9.014  0.5106  0.7087  0.3609
 9572SOL    HW131254   7.379   0.129   8.968  0.7182  0.3819  0.4038
 9572SOL    HW231255   7.346   0.027   9.074  0.1646 -0.0970 -0.2311
 9573SOL     OW31256   9.484   2.970   9.038 -0.5337 -0.1206  0.5278
 9573SOL    HW131257   9.554   3.032   9.018  0.2043 -1.4155 -1.0495
 9573SOL    HW231258   9.409   3.000   8.987 -0.0450 -0.7223 -0.5905
 9574SOL     OW31259   4.965   3.645   1.339 -0.4139 -0.3845 -0.0434
 9574SOL    HW131260   4.974   3.576   1.404 -0.3035  1.4003  1.8827
 9574SOL    HW231261   4.879   3.683   1.355  0.1473  0.9361 -0.0676
 9575SOL     OW31262   2.865   0.067   2.989  0.2703  0.1594 -0.3808
 9575SOL    HW131263   2.891   0.044   2.900 -1.4028 -0.7521 -0.6454
 9575SOL    HW231264   2.946   0.099   3.030  0.9976  0.8380 -2.2924
 9576SOL     OW31265   4.875   2.921   0.014 -0.3071 -0.0218  0.2454
 9576SOL    HW131266   4.938   2.899  -0.055  0.6191 -1.9650  1.6350
 9576SOL    HW231267   4.801   2.862  -0.002  0.2956 -1.1129  1.4184
 9577SOL     OW31268   3.540   0.618  10.195  0.8114  0.2006  0.0669
 9577SOL    HW131269   3.482   0.560  10.146  0.0541  0.4268  0.6778
 9577SOL    HW231270   3.626   0.606  10.155  0.5203 -0.8111 -0.2662
 9578SOL     OW31271   4.670   1.031   8.026 -0.4804  0.0554  0.0070
 9578SOL    HW131272   4.646   0.943   7.995  0.3664 -0.7369  1.5386
 9578SOL    HW231273   4.714   1.071   7.951  0.9577 -1.5922 -0.0694
 9579SOL     OW31274   8.114   2.259   0.446 -0.0531 -0.4671  0.3712
 9579SOL    HW131275   8.137   2.334   0.391 -3.6949 -1.3601 -2.5220
 9579SOL    HW231276   8.050   2.293   0.508  0.4904 -0.5569  0.9914
 9580SOL     OW31277   7.599   1.830   5.921 -0.9634  0.1269  0.3912
 9580SOL    HW131278   7.580   1.806   5.831 -1.0487  0.6466  0.2653
 9580SOL    HW231279   7.686   1.871   5.916 -2.0590  2.5244  0.1140
 9581SOL     OW31280   4.732   5.205   6.779  0.0191 -0.4190 -0.3711
 9581SOL    HW131281   4.730   5.166   6.692  1.1015 -0.7003 -0.2655
 9581SOL    HW231282   4.824   5.204   6.805 -0.2894 -0.3230  0.7696
 9582SOL     OW31283   7.030   4.248   9.258  0.3719 -0.3443  0.4239
 9582SOL    HW131284   7.095   4.212   9.318 -0.4877 -1.0667  0.9275
 9582SOL    HW231285   6.948   4.206   9.283 -0.4514  1.1805  0.3361
 9583SOL     OW31286   1.022   1.635   5.984  0.1183 -0.2948 -0.0999
 9583SOL    HW131287   1.078   1.639   6.062  1.1915 -0.3846 -0.8519
 9583SOL    HW231288   0.942   1.591   6.014  0.1254  0.5231  1.1716
 9584SOL     OW31289   4.344   6.380  10.065  0.0546 -0.0411  0.0737
 9584SOL    HW131290   4.273   6.346  10.011  1.6611 -2.5613 -0.4715
 9584SOL    HW231291   4.383   6.450  10.012  0.2405 -1.0294 -1.1056
 9585SOL     OW31292   7.761   0.620   0.236 -0.4176  0.5866 -0.6056
 9585SOL    HW131293   7.823   0.554   0.267  0.1598  1.0393 -0.7920
 9585SOL    HW231294   7.814   0.684   0.189 -0.9150  1.3937 -0.0907
 9586SOL     OW31295   6.947   0.921   8.707 -0.0345  0.5501  0.0185
 9586SOL    HW131296   7.008   0.915   8.634 -0.9849 -0.9314 -0.6951
 9586SOL    HW231297   6.860   0.917   8.665 -0.5855 -0.0789  1.2101
 9587SOL     OW31298   0.871   2.978   1.843 -0.2995  0.2285 -0.3448
 9587SOL    HW131299   0.882   3.073   1.845 -1.3116  0.3378  0.4031
 9587SOL    HW231300   0.816   2.961   1.767 -0.4227  0.2792 -0.2671
 9588SOL     OW31301   4.569   4.362   0.548 -0.0761 -0.4670 -0.0069
 9588SOL    HW131302   4.585   4.369   0.454 -1.3157 -0.6007 -0.2383
 9588SOL    HW231303   4.655   4.372   0.588  0.6040 -1.3504 -1.2098
 9589SOL     OW31304   0.424   6.973   2.881 -0.1806 -0.3863  0.0469
 9589SOL    HW131305   0.360   6.999   2.814 -0.3927 -2.5245 -0.6350
 9589SOL    HW231306   0.493   6.928   2.832 -1.3348 -3.7790  1.4194
 9590SOL     OW31307   8.788   4.972  10.156 -0.0476  0.5174 -0.2986
 9590SOL    HW131308   8.785   4.891  10.207  0.2352  0.1407 -0.8765
 9590SOL    HW231309   8.745   5.037  10.212  2.0030  0.5825  1.2678
 9591SOL     OW31310   8.662   3.128   9.226 -0.1441  0.0970  0.4289
 9591SOL    HW131311   8.623   3.059   9.172 -1.8007  0.1392  1.5435
 9591SOL    HW231312   8.617   3.208   9.200  0.7653  0.5260  0.1609
 9592SOL     OW31313   7.120   4.854   5.224 -0.0757  0.8781  0.8417
 9592SOL    HW131314   7.146   4.927   5.280  0.2014  0.2427  1.5555
 9592SOL    HW231315   7.144   4.776   5.274  0.0257  0.3003 -0.0966
 9593SOL     OW31316   5.289   3.431   6.794 -0.2736  0.2332  0.3841
 9593SOL    HW131317   5.382   3.409   6.803 -0.2005  0.2675 -0.2840
 9593SOL    HW231318   5.281   3.517   6.836 -0.3282 -0.5123  1.9187
 9594SOL     OW31319   1.022   8.182   8.146  0.3242 -0.0167 -0.1484
 9594SOL    HW131320   1.071   8.222   8.075  0.1474 -0.4395 -0.5114
 9594SOL    HW231321   0.953   8.131   8.102 -0.5331  0.6897  0.3513
 9595SOL     OW31322   6.096   0.943   2.398  0.0714  0.6414  0.0082
 9595SOL    HW131323   6.106   0.962   2.305 -0.8958  0.4322 -0.1398
 9595SOL    HW231324   6.069   0.851   2.401 -1.3033  1.0465  0.4199
 9596SOL     OW31325   6.067   6.668   4.249  0.0075 -0.2281 -0.2657
 9596SOL    HW131326   6.049   6.611   4.324  1.9692  0.8071  1.0616
 9596SOL    HW231327   6.119   6.739   4.286 -1.2510  1.7253 -2.1359
 9597SOL     OW31328   4.680   7.880   6.431 -0.4183 -1.3122  0.3679
 9597SOL    HW131329   4.610   7.920   6.483 -1.2304  0.6137 -2.1514
 9597SOL    HW231330   4.730   7.954   6.397  1.2178 -2.6092 -0.1016
 9598SOL     OW31331   7.994   9.281   1.880 -0.1368  0.5991  0.5266
 9598SOL    HW131332   8.074   9.311   1.924  0.2373  0.9685 -0.3937
 9598SOL    HW231333   7.925   9.335   1.919  0.1269  0.6327  0.9669
 9599SOL     OW31334   8.708   6.840   9.752 -0.4578  0.4430  0.1279
 9599SOL    HW131335   8.763   6.792   9.814  0.7428  0.1993 -1.1059
 9599SOL    HW231336   8.711   6.931   9.783 -1.8390 -0.0379  1.8203
 9600SOL     OW31337   3.313   5.720   0.671  0.4539 -0.0498  0.4184
 9600SOL    HW131338   3.289   5.783   0.603  0.5264  1.2387  1.5775
 9600SOL    HW231339   3.330   5.639   0.623 -1.2847  0.3486 -0.9386
 9601SOL     OW31340   1.876   9.250   5.434  0.6161  0.2705 -0.0066
 9601SOL    HW131341   1.907   9.261   5.524  1.3624  0.5229 -0.2903
 9601SOL    HW231342   1.949   9.211   5.388 -0.0743 -0.6822 -0.3124
 9602SOL     OW31343   8.756   3.875   2.028  0.4129 -0.4180 -0.1291
 9602SOL    HW131344   8.785   3.841   2.113 -0.0150  0.0856  0.2172
 9602SOL    HW231345   8.661   3.864   2.029  0.4317 -0.6512 -0.6509
 9603SOL     OW31346   6.785   1.704   4.297 -0.1834 -0.0396  0.2231
 9603SOL    HW131347   6.827   1.712   4.212 -1.3389  1.1837 -0.2497
 9603SOL    HW231348   6.697   1.739   4.284 -0.5067 -0.2190  1.8111
 9604SOL     OW31349   8.269   0.384   9.311 -0.1775  0.7046  0.0357
 9604SOL    HW131350   8.331   0.312   9.297 -0.0019  0.8543  0.0327
 9604SOL    HW231351   8.301   0.426   9.391 -0.3874  0.6660  0.1382
 9605SOL     OW31352   0.450   9.402   6.486  0.1399  0.3689  0.1815
 9605SOL    HW131353   0.389   9.426   6.416 -0.4397 -0.5673  0.3595
 9605SOL    HW231354   0.473   9.485   6.527 -1.1709  0.7131  0.2361
 9606SOL     OW31355   9.359   6.704   0.659  0.2327  0.0288  0.3998
 9606SOL    HW131356   9.348   6.679   0.751 -1.5748  0.1891  0.2322
 9606SOL    HW231357   9.285   6.664   0.614  1.2868 -0.3126 -1.0506
 9607SOL     OW31358   4.954   9.825   6.472  0.0735 -0.1414 -0.0972
 9607SOL    HW131359   4.917   9.908   6.501 -0.1545  0.6032 -2.3950
 9607SOL    HW231360   5.024   9.850   6.412  0.3247 -1.6033 -0.4262
 9608SOL     OW31361   8.738   3.825   1.748 -0.1600  0.4114  0.1828
 9608SOL    HW131362   8.771   3.880   1.677 -2.3573  2.2740  0.5792
 9608SOL    HW231363   8.785   3.855   1.826  0.5777 -0.0965 -0.0580
 9609SOL     OW31364   9.626   4.306   7.114  0.3570  0.4361 -0.5414
 9609SOL    HW131365   9.674   4.335   7.037  0.5748  1.4617 -0.0325
 9609SOL    HW231366   9.573   4.233   7.084  1.7946 -0.3255 -1.2382
 9610SOL     OW31367   9.805   2.694   5.851  0.1755 -0.6279  0.2486
 9610SOL    HW131368   9.743   2.689   5.778 -0.4574 -1.4313  0.8261
 9610SOL    HW231369   9.870   2.626   5.833 -0.1258 -1.0012  0.5641
 9611SOL     OW31370   1.895   2.374   6.873 -0.0179 -0.2910 -0.5163
 9611SOL    HW131371   1.854   2.372   6.959 -2.5912 -1.6509 -1.7426
 9611SOL    HW231372   1.839   2.431   6.820  2.2718  1.6294 -0.9781
 9612SOL     OW31373   8.656   2.161   9.995 -0.3641  0.2382  0.1822
 9612SOL    HW131374   8.604   2.085  10.023 -0.9336  0.9554  1.1402
 9612SOL    HW231375   8.654   2.157   9.900  0.9875 -1.8613  0.1948
 9613SOL     OW31376   0.886   6.733   9.832  0.2462  0.0790 -0.0323
 9613SOL    HW131377   0.929   6.690   9.906  1.0254  0.4540 -0.2608
 9613SOL    HW231378   0.863   6.820   9.865 -0.5104 -0.1840  0.1453
 9614SOL     OW31379   6.335   9.257   8.729  0.6909 -0.5589  0.5230
 9614SOL    HW131380   6.293   9.204   8.797  0.3882 -0.2637  0.5695
 9614SOL    HW231381   6.362   9.337   8.774 -0.2343 -0.0116  0.1390
 9615SOL     OW31382   9.553   4.807   7.473  0.3842  0.0213 -0.6870
 9615SOL    HW131383   9.567   4.715   7.453  0.2605  0.0882 -1.0882
 9615SOL    HW231384   9.640   4.841   7.493  0.5103 -0.0478 -1.1169
 9616SOL     OW31385   5.811   3.388   0.748  0.6637 -0.2179  0.5783
 9616SOL    HW131386   5.882   3.343   0.702  0.7394 -1.2078  1.6556
 9616SOL    HW231387   5.836   3.480   0.745  0.8452 -0.3093 -1.0554
 9617SOL     OW31388   4.127   4.797   6.662  0.6811 -0.0244  0.5936
 9617SOL    HW131389   4.174   4.815   6.580 -0.5667  1.0153  0.0805
 9617SOL    HW231390   4.192   4.808   6.731  1.7805 -1.0537 -0.2682
 9618SOL     OW31391   6.783   3.626   1.910  0.0899  0.8239 -0.1823
 9618SOL    HW131392   6.855   3.667   1.959 -0.6263  0.6124  1.0762
 9618SOL    HW231393   6.790   3.662   1.822  2.5513 -0.2108 -0.4437
 9619SOL     OW31394   4.203   8.105   7.986  0.5448  0.9899 -0.2346
 9619SOL    HW131395   4.295   8.114   8.011  0.3636 -1.1993  1.3790
 9619SOL    HW231396   4.204   8.037   7.919  0.0737  0.5711  0.1779
 9620SOL     OW31397   1.737   8.830   8.054  0.4847 -0.3483  0.2561
 9620SOL    HW131398   1.780   8.813   8.138  0.4945 -0.2276  0.2756
 9620SOL    HW231399   1.717   8.924   8.056 -1.0318 -0.6700  0.8292
 9621SOL     OW31400   1.466   5.403   1.293 -0.2414 -0.5959 -0.6812
 9621SOL    HW131401   1.387   5.411   1.238 -0.1659 -1.8305 -0.9898
 9621SOL    HW231402   1.460   5.314   1.328 -0.8548  0.5498  2.1999
 9622SOL     OW31403   3.077   4.984   4.244 -0.0902 -0.2884 -0.1743
 9622SOL    HW131404   3.162   4.941   4.249 -0.3620 -1.1192 -2.2042
 9622SOL    HW231405   3.061   5.017   4.332  2.4165  0.0377  0.1756
 9623SOL     OW31406   7.726  10.045   1.514 -0.0050 -0.1177 -0.4696
 9623SOL    HW131407   7.681   9.994   1.447  0.4412 -1.9911  0.6290
 9623SOL    HW231408   7.818  10.019   1.506  0.5086  1.7617 -0.9878
 9624SOL     OW31409   8.734   6.286   6.104 -0.1514  0.2159  0.4346
 9624SOL    HW131410   8.725   6.359   6.041  0.5084  0.2775  0.4105
 9624SOL    HW231411   8.822   6.252   6.088 -1.3266 -2.1619 -1.2425
 9625SOL     OW31412   1.061   6.373   8.182  0.7931 -0.2221  0.3290
 9625SOL    HW131413   1.088   6.286   8.210  2.6800  0.3452  0.3976
 9625SOL    HW231414   0.992   6.398   8.243  0.4014 -1.5765  0.4430
 9626SOL     OW31415  10.082   0.204   7.167  0.3575  0.1310 -0.5070
 9626SOL    HW131416  10.095   0.136   7.233 -0.2402  0.5119  0.0058
 9626SOL    HW231417  10.032   0.160   7.097 -1.6272  0.4953  0.6303
 9627SOL     OW31418   4.232   6.018   7.092  0.0289 -0.1059  0.1761
 9627SOL    HW131419   4.327   6.015   7.105  0.6089  1.5954 -3.1092
 9627SOL    HW231420   4.199   6.070   7.165  1.5898 -0.9447  1.4908
 9628SOL     OW31421   9.113   5.149   3.244  0.3686 -0.6179 -0.5198
 9628SOL    HW131422   9.176   5.194   3.188 -0.0960  0.6787 -0.0288
 9628SOL    HW231423   9.059   5.219   3.280 -2.1328 -1.8104 -1.8693
 9629SOL     OW31424   1.888   4.693   3.801  0.1335 -0.1192 -0.3584
 9629SOL    HW131425   1.857   4.702   3.891  1.0853  0.4631 -0.0814
 9629SOL    HW231426   1.874   4.780   3.762  0.8927 -0.0158 -0.3974
 9630SOL     OW31427   6.655   2.694   9.363  0.1815  0.6649 -0.0638
 9630SOL    HW131428   6.709   2.730   9.434 -0.5650  0.6121  0.5380
 9630SOL    HW231429   6.565   2.715   9.388 -0.1505 -0.1559 -0.5401
 9631SOL     OW31430   5.745   4.826   9.087 -1.0175 -0.2260  0.4241
 9631SOL    HW131431   5.678   4.859   9.027 -0.5984 -0.3082 -0.0927
 9631SOL    HW231432   5.699   4.815   9.170 -1.3190  1.0217  0.4265
 9632SOL     OW31433   1.887   7.127   9.565  0.0429  0.1610  0.1080
 9632SOL    HW131434   1.839   7.158   9.641  1.1508 -1.9352  1.7357
 9632SOL    HW231435   1.820   7.088   9.508 -0.9495  2.8244 -0.5956
 9633SOL     OW31436   4.063   2.659   3.556 -0.4885  0.3494 -0.2631
 9633SOL    HW131437   4.118   2.658   3.477  0.3779  1.8559  0.2953
 9633SOL    HW231438   4.003   2.732   3.543 -0.0634  0.8679  0.6478
 9634SOL     OW31439   2.643   2.592   5.994 -0.4055  0.3244  0.4261
 9634SOL    HW131440   2.578   2.631   6.053 -1.1757  1.6638 -1.2847
 9634SOL    HW231441   2.712   2.658   5.988 -0.0543 -0.0580  0.2843
 9635SOL     OW31442   6.345   3.485   2.899  0.4845 -0.0744 -0.1845
 9635SOL    HW131443   6.258   3.447   2.907  0.3003  0.6513  1.4952
 9635SOL    HW231444   6.360   3.528   2.984  1.9751  0.8287 -0.8935
 9636SOL     OW31445   4.037   9.072   9.865 -1.0932  0.0908 -0.5006
 9636SOL    HW131446   3.957   9.019   9.862 -0.9672 -0.0437 -2.8261
 9636SOL    HW231447   4.102   9.019   9.819  0.0765  0.6298  0.5081
 9637SOL     OW31448   1.032   9.777   4.479  0.1748  0.2489 -0.3854
 9637SOL    HW131449   0.975   9.703   4.500  0.0548  0.0918 -1.2445
 9637SOL    HW231450   1.107   9.768   4.537  0.8495 -1.3548 -1.4979
 9638SOL     OW31451   9.108   3.735   7.839  0.5370  0.3965  0.0311
 9638SOL    HW131452   9.159   3.657   7.818 -0.7404 -0.0568 -1.4915
 9638SOL    HW231453   9.171   3.807   7.834  1.0992 -0.1737 -1.5896
 9639SOL     OW31454   8.574   8.790   7.272  0.1309  0.2633  0.1711
 9639SOL    HW131455   8.576   8.812   7.178  0.4654  0.3257  0.1913
 9639SOL    HW231456   8.631   8.855   7.312  1.7017 -1.0635  0.1462
 9640SOL     OW31457   0.522   9.552   3.676  0.5299 -0.0321  0.3901
 9640SOL    HW131458   0.474   9.560   3.759 -0.0329 -1.0774  0.1738
 9640SOL    HW231459   0.564   9.637   3.664  0.1345  0.3187  1.4583
 9641SOL     OW31460   4.225   2.196   9.867 -0.6016 -0.2661  0.0082
 9641SOL    HW131461   4.156   2.262   9.865 -0.4415  0.0370  2.5553
 9641SOL    HW231462   4.303   2.244   9.897  0.5126 -0.7863 -1.9506
 9642SOL     OW31463   5.461   9.976   2.307 -0.1561  0.0853  0.2445
 9642SOL    HW131464   5.458  10.071   2.313 -0.3565  0.1235 -0.3733
 9642SOL    HW231465   5.412   9.945   2.384 -0.6252  0.4926  0.1121
 9643SOL     OW31466   2.719   3.281   6.271  0.3708  0.0622 -0.0814
 9643SOL    HW131467   2.777   3.355   6.253  0.8041 -0.4132 -0.6253
 9643SOL    HW231468   2.771   3.223   6.327  0.8038 -0.8878 -1.4697
 9644SOL     OW31469   2.661   5.253   4.861  0.0431  0.3984  0.4841
 9644SOL    HW131470   2.727   5.199   4.905 -1.4107 -0.1228  2.0763
 9644SOL    HW231471   2.676   5.237   4.768  0.6926 -1.5021  0.8752
 9645SOL     OW31472   0.017   7.522   4.245  0.0100 -0.2786  0.0219
 9645SOL    HW131473  -0.068   7.518   4.288 -0.0567 -1.1892 -0.1687
 9645SOL    HW231474   0.049   7.611   4.260 -1.1655  0.1968 -0.2681
 9646SOL     OW31475   3.542   4.414   9.184  0.4200  0.2284 -0.0299
 9646SOL    HW131476   3.538   4.325   9.149 -0.7254  0.5589 -0.7652
 9646SOL    HW231477   3.562   4.403   9.277  0.5120 -0.7807 -0.1633
 9647SOL     OW31478   8.578   8.779   3.560  0.0569  0.1441 -0.8634
 9647SOL    HW131479   8.604   8.870   3.572 -0.2882  0.1562 -0.1669
 9647SOL    HW231480   8.653   8.738   3.517  0.1263  0.8037 -1.3654
 9648SOL     OW31481   8.393   3.794   4.390  0.1652 -0.1281 -0.2153
 9648SOL    HW131482   8.314   3.848   4.389  0.2653  0.1170  1.9569
 9648SOL    HW231483   8.462   3.852   4.424  0.6270 -1.1305  0.6081
 9649SOL     OW31484   0.242   6.311   5.577  0.3081 -0.0482  0.0664
 9649SOL    HW131485   0.334   6.293   5.558  0.8041 -0.2440  2.5758
 9649SOL    HW231486   0.196   6.233   5.548  1.2244 -0.9502  1.0083
 9650SOL     OW31487   8.882   1.225   7.881  0.3366  0.1759 -0.0506
 9650SOL    HW131488   8.968   1.225   7.839 -0.2371 -1.3678 -1.2898
 9650SOL    HW231489   8.832   1.160   7.832 -0.2376 -2.0349  3.3594
 9651SOL     OW31490   8.885   1.471   1.935 -0.6182 -0.2179  0.6631
 9651SOL    HW131491   8.821   1.401   1.938 -1.4552  0.5690  1.4678
 9651SOL    HW231492   8.924   1.465   1.848 -1.5524 -0.9042  0.2932
 9652SOL     OW31493   6.689   3.340   8.084  0.0572  0.1875  0.5653
 9652SOL    HW131494   6.713   3.248   8.076 -0.6469  0.0102  0.4168
 9652SOL    HW231495   6.610   3.349   8.030 -0.2608  0.7233  1.1069
 9653SOL     OW31496   4.218   6.097   8.977 -0.1717  0.4692 -0.1747
 9653SOL    HW131497   4.208   6.017   8.925 -1.6207 -0.1909  1.0928
 9653SOL    HW231498   4.256   6.068   9.059 -1.0610  1.0177  0.4357
 9654SOL     OW31499   5.672   4.288   6.544  0.0344 -0.7247  0.1900
 9654SOL    HW131500   5.676   4.380   6.519  0.6357  0.3059  3.7744
 9654SOL    HW231501   5.753   4.272   6.592 -0.7246 -2.7314  0.8910
 9655SOL     OW31502   2.008   4.073   9.403  0.8941 -0.5991 -0.2928
 9655SOL    HW131503   1.939   4.092   9.339  3.0760  1.1277 -2.2009
 9655SOL    HW231504   1.960   4.049   9.483 -1.9326  1.8271 -1.1735
 9656SOL     OW31505   3.767   5.410   9.771  0.2721  0.2679 -0.1713
 9656SOL    HW131506   3.762   5.411   9.675  1.3864  1.9391 -0.2395
 9656SOL    HW231507   3.676   5.419   9.800  0.0240  0.7677 -1.0861
 9657SOL     OW31508   0.994  10.105   0.498  0.3411 -0.1104  0.0766
 9657SOL    HW131509   0.910  10.076   0.535  0.3012  0.6594  0.6143
 9657SOL    HW231510   0.979  10.197   0.475  0.7905 -0.1998 -0.5863
 9658SOL     OW31511   8.064   8.071   7.826  0.0264  0.3540 -0.3898
 9658SOL    HW131512   8.105   8.149   7.865 -0.4790  1.5806 -2.2639
 9658SOL    HW231513   8.004   8.106   7.761 -0.7140 -1.6082 -0.7872
 9659SOL     OW31514   8.021   3.828   8.791 -0.4245 -0.3094 -0.2925
 9659SOL    HW131515   8.086   3.898   8.796 -0.6333 -0.1317 -0.0336
 9659SOL    HW231516   8.068   3.749   8.815 -0.4132 -0.1107  0.3477
 9660SOL     OW31517   9.807   6.285   4.135  0.1379  0.1365 -0.4498
 9660SOL    HW131518   9.813   6.190   4.118  0.2382 -0.0568  0.6542
 9660SOL    HW231519   9.896   6.317   4.120 -0.0915  0.2222 -1.7376
 9661SOL     OW31520   5.572   8.152   9.883 -0.7170 -0.3695 -0.1454
 9661SOL    HW131521   5.560   8.180   9.793 -2.0495  1.2943  0.5412
 9661SOL    HW231522   5.641   8.210   9.917 -2.4557  1.1538  0.8399
 9662SOL     OW31523   5.718   8.390   4.592  0.1097  0.3763  0.3857
 9662SOL    HW131524   5.691   8.389   4.501 -0.8915  1.9331  0.6509
 9662SOL    HW231525   5.792   8.329   4.596  1.4653  1.8097 -1.8648
 9663SOL     OW31526   7.231   4.811   4.636 -0.2214  0.0307 -0.4334
 9663SOL    HW131527   7.212   4.897   4.599  0.0054  0.2267 -0.0931
 9663SOL    HW231528   7.216   4.750   4.563  0.6624  0.4576 -0.9894
 9664SOL     OW31529   4.438   6.141   6.828  0.0768  0.6008 -0.5613
 9664SOL    HW131530   4.509   6.098   6.875 -1.0313  0.0431  0.6271
 9664SOL    HW231531   4.413   6.214   6.884 -1.6008 -0.3778  0.0263
 9665SOL     OW31532   7.096  10.129   8.654 -0.1904 -0.5161 -0.0348
 9665SOL    HW131533   7.118  10.123   8.747 -1.5186  0.4991  0.3664
 9665SOL    HW231534   7.013  10.081   8.646 -1.0698  1.0042 -0.3122
 9666SOL     OW31535   2.926   5.390   4.390  0.6172  0.5121  0.0038
 9666SOL    HW131536   2.974   5.370   4.471  2.2232  1.6737 -0.6383
 9666SOL    HW231537   2.956   5.323   4.328 -1.0160 -0.7070  0.5000
 9667SOL     OW31538   0.600   3.240   1.912  0.2125 -0.5272  0.0947
 9667SOL    HW131539   0.672   3.283   1.865  0.1735  0.5288  0.9716
 9667SOL    HW231540   0.633   3.153   1.932  1.3991  0.0611  0.7858
 9668SOL     OW31541   7.108  10.008   2.621  0.2734  0.2251 -0.1129
 9668SOL    HW131542   7.063  10.073   2.566 -0.5938  1.1041  1.6059
 9668SOL    HW231543   7.045   9.936   2.629 -0.2275  0.7960  1.0495
 9669SOL     OW31544   4.177   9.628   4.973 -0.6569  0.2451  0.3430
 9669SOL    HW131545   4.203   9.706   5.022  2.5825 -0.8740  0.5146
 9669SOL    HW231546   4.151   9.565   5.040 -1.1385  0.4437  0.3399
 9670SOL     OW31547   6.662   8.649   3.620 -0.4420  0.4802 -0.0039
 9670SOL    HW131548   6.633   8.562   3.591  1.4212 -0.2031  0.0770
 9670SOL    HW231549   6.731   8.673   3.558  1.0773  0.5970  1.6804
 9671SOL     OW31550   2.986   4.193   1.645 -0.4682 -0.3906 -0.2815
 9671SOL    HW131551   2.919   4.182   1.713  0.0212 -0.8175  0.1359
 9671SOL    HW231552   3.066   4.157   1.684  1.2813  4.6563  1.2132
 9672SOL     OW31553   9.434   3.186   8.039  0.3126  0.0747 -1.2202
 9672SOL    HW131554   9.521   3.147   8.043 -0.2777 -1.1838 -0.5565
 9672SOL    HW231555   9.450   3.275   8.006  1.9057  0.0628 -0.5383
 9673SOL     OW31556   5.815   7.939   5.288  0.1153  0.0897  0.4920
 9673SOL    HW131557   5.807   7.971   5.198  2.0664  0.0962  0.3040
 9673SOL    HW231558   5.894   7.886   5.289 -1.4382 -2.3333  1.5393
 9674SOL     OW31559   4.244   4.880   9.727  0.9211  0.2945  0.1034
 9674SOL    HW131560   4.272   4.943   9.660 -0.2720  1.8204  0.9993
 9674SOL    HW231561   4.326   4.853   9.770  1.6693 -0.4801 -1.7462
 9675SOL     OW31562   0.596   1.647   0.949  0.0797 -0.0510  0.3829
 9675SOL    HW131563   0.556   1.701   1.017 -0.9332 -0.9142  0.4845
 9675SOL    HW231564   0.577   1.693   0.867 -2.0984 -0.9967  0.3147
 9676SOL     OW31565   7.441   8.551   2.098 -0.2467  0.9420 -0.0839
 9676SOL    HW131566   7.428   8.469   2.145  1.2553  0.0569 -1.2044
 9676SOL    HW231567   7.358   8.598   2.109 -1.5820 -1.2744 -0.5641
 9677SOL     OW31568   1.395   9.884   1.182  0.6555  0.2804  1.0965
 9677SOL    HW131569   1.321   9.919   1.231  1.0503  1.1937  1.0489
 9677SOL    HW231570   1.418   9.953   1.120  0.4111 -0.6952 -0.1205
 9678SOL     OW31571   0.756   6.637   9.017  0.1431  0.3866  0.3471
 9678SOL    HW131572   0.846   6.669   9.022  0.3252  0.0731 -0.9417
 9678SOL    HW231573   0.712   6.697   8.957 -0.6486  0.8414  1.3602
 9679SOL     OW31574   7.570   8.537   7.547 -0.2174 -0.2494 -0.0258
 9679SOL    HW131575   7.545   8.456   7.502 -0.2620 -0.1750 -0.1343
 9679SOL    HW231576   7.661   8.551   7.523 -0.2238 -0.2412 -0.0455
 9680SOL     OW31577   8.523   3.164   2.375 -0.4495  0.4135  0.0627
 9680SOL    HW131578   8.481   3.250   2.385 -0.9670  0.4459 -2.2011
 9680SOL    HW231579   8.455   3.102   2.401 -0.1225  0.6633  1.5634
 9681SOL     OW31580   1.571   4.607   0.577  0.6641  0.1497 -0.3702
 9681SOL    HW131581   1.522   4.527   0.559  0.2192  0.4164 -0.3417
 9681SOL    HW231582   1.615   4.627   0.494  2.2964 -1.1651  0.1386
 9682SOL     OW31583   8.887   1.271   0.281  0.6985  0.0832 -0.5711
 9682SOL    HW131584   8.935   1.293   0.202  0.2382 -0.7888 -1.1024
 9682SOL    HW231585   8.825   1.202   0.254  1.6519 -1.3936  0.8640
 9683SOL     OW31586   1.696   0.224   7.004 -0.0054  0.2384 -0.3440
 9683SOL    HW131587   1.775   0.212   7.057 -0.1064 -1.0821 -0.4731
 9683SOL    HW231588   1.724   0.280   6.931  0.3650  1.2615  0.5753
 9684SOL     OW31589   1.268   0.705   8.378  0.3973 -0.3859  0.0846
 9684SOL    HW131590   1.351   0.693   8.424  1.1100 -0.5111 -1.2072
 9684SOL    HW231591   1.235   0.616   8.364 -1.1602 -0.2644  2.7049
 9685SOL     OW31592   9.009   8.266   6.293 -0.4576  0.0851  0.4672
 9685SOL    HW131593   8.920   8.243   6.317 -0.8923  0.2875 -0.9353
 9685SOL    HW231594   9.060   8.187   6.309 -1.3402 -0.8257 -1.1278
 9686SOL     OW31595   0.490   3.642   5.604  0.3344 -0.4804  0.0365
 9686SOL    HW131596   0.454   3.632   5.692  1.0840  1.4295  0.5945
 9686SOL    HW231597   0.436   3.709   5.563  0.1066 -1.2264 -0.8981
 9687SOL     OW31598   0.730   0.656   7.430  0.0556  0.0694 -0.3933
 9687SOL    HW131599   0.803   0.607   7.392  0.0084 -1.0297  0.8874
 9687SOL    HW231600   0.719   0.618   7.518  0.5152  2.8841  0.9448
 9688SOL     OW31601   3.458   7.097   3.659 -0.2761  0.2319 -0.3883
 9688SOL    HW131602   3.448   7.160   3.731 -0.0119  0.4859 -0.5705
 9688SOL    HW231603   3.512   7.143   3.595  0.3906 -0.3961 -0.2781
 9689SOL     OW31604   7.561   5.201   3.992  0.1068  0.2686  0.2702
 9689SOL    HW131605   7.483   5.257   4.002  0.1229  0.3147  0.1367
 9689SOL    HW231606   7.605   5.235   3.914 -0.6829 -0.8863 -0.6986
 9690SOL     OW31607   2.380   7.324   0.909  0.9816  0.1608  0.4222
 9690SOL    HW131608   2.335   7.366   0.982 -1.9169  0.3019 -1.3638
 9690SOL    HW231609   2.418   7.397   0.859 -0.2048  0.3674 -0.2048
 9691SOL     OW31610   0.884   0.937   6.662  0.0208  0.1259  0.6487
 9691SOL    HW131611   0.793   0.965   6.672 -0.0108  0.3869 -0.3168
 9691SOL    HW231612   0.879   0.842   6.653 -0.4141  0.3917 -2.2034
 9692SOL     OW31613   4.083   2.977   3.225 -0.6441  0.1025 -0.6389
 9692SOL    HW131614   4.086   3.072   3.215 -0.8018  0.2294  0.5029
 9692SOL    HW231615   4.136   2.944   3.152  0.3483  1.1032 -0.3919
 9693SOL     OW31616   9.579   4.767   5.816  0.1138  0.6843 -0.3910
 9693SOL    HW131617   9.527   4.833   5.862 -1.2601 -0.9929  0.5265
 9693SOL    HW231618   9.649   4.817   5.773 -1.1170  2.7571 -0.0431
 9694SOL     OW31619   9.983   1.131   8.481  0.1024 -0.3023  0.0473
 9694SOL    HW131620   9.971   1.158   8.572  0.6122  1.3351 -0.3706
 9694SOL    HW231621  10.011   1.210   8.435 -0.4807 -1.0385 -1.6110
 9695SOL     OW31622   8.484   1.262   0.311 -0.2454  0.5051  0.9519
 9695SOL    HW131623   8.494   1.173   0.345  2.0003  0.8211  1.1789
 9695SOL    HW231624   8.461   1.249   0.218  0.5529 -0.3111  0.8606
 9696SOL     OW31625   5.230   2.289   7.272  0.4309 -0.3532 -0.1639
 9696SOL    HW131626   5.199   2.213   7.223  1.3963  0.1207 -1.5471
 9696SOL    HW231627   5.305   2.256   7.322 -0.9862 -1.0056  1.5824
 9697SOL     OW31628   6.849   1.798   9.290  0.5431  0.4663  0.1094
 9697SOL    HW131629   6.792   1.779   9.215  0.6181 -0.1310  0.1972
 9697SOL    HW231630   6.790   1.805   9.365  0.7609 -2.5960  0.6473
 9698SOL     OW31631   3.139   4.806   7.280  0.1243  0.8716  0.1877
 9698SOL    HW131632   3.048   4.785   7.259 -0.2511  0.7235  1.8661
 9698SOL    HW231633   3.138   4.899   7.301 -0.1247  0.3970  2.4959
 9699SOL     OW31634   1.926   3.001   3.462  0.5231  0.3712  0.4875
 9699SOL    HW131635   1.972   2.929   3.419 -0.1572 -0.3794  0.9973
 9699SOL    HW231636   1.969   3.080   3.430  2.5732 -0.3338  1.4328
 9700SOL     OW31637   9.917   3.506   0.043  0.4140 -0.4690 -0.0508
 9700SOL    HW131638   9.842   3.535  -0.009 -2.2266 -3.7167  1.7243
 9700SOL    HW231639   9.927   3.573   0.111 -0.2244  0.5009 -0.8985
 9701SOL     OW31640   3.267   6.869   7.739  0.1639 -0.2433  0.7665
 9701SOL    HW131641   3.329   6.810   7.781  0.4005  0.2711  1.1427
 9701SOL    HW231642   3.321   6.942   7.708 -0.0114 -0.5896 -0.3811
 9702SOL     OW31643   5.630   6.069   1.064  0.1356  0.0422 -0.1093
 9702SOL    HW131644   5.631   6.110   1.150 -0.8830 -0.5128  0.1803
 9702SOL    HW231645   5.546   6.024   1.060  0.1224  0.1493 -1.4367
 9703SOL     OW31646   1.428   5.694   0.031  0.2297  0.8149  0.0206
 9703SOL    HW131647   1.447   5.763   0.094  2.0532 -1.7295  2.3912
 9703SOL    HW231648   1.356   5.644   0.071 -0.1435  0.5230 -1.0010
 9704SOL     OW31649   5.669   0.684   4.002 -0.3391 -0.5384 -0.1858
 9704SOL    HW131650   5.667   0.779   3.992 -0.0632 -0.3666  1.3896
 9704SOL    HW231651   5.650   0.669   4.094  0.1282 -1.9958 -0.3248
 9705SOL     OW31652   0.941   1.434   3.279 -0.1267 -0.3375  0.4705
 9705SOL    HW131653   0.949   1.528   3.296 -0.3201  0.0295 -1.3842
 9705SOL    HW231654   0.850   1.414   3.300 -1.1399  0.6833 -2.6879
 9706SOL     OW31655   2.969   2.764   2.861 -0.3372  0.0223 -0.2690
 9706SOL    HW131656   2.941   2.854   2.882  1.6605  0.3787  1.0101
 9706SOL    HW231657   3.044   2.749   2.918 -0.1020 -2.1629 -1.1257
 9707SOL     OW31658   5.636   0.002   2.748  0.0467 -0.1977 -0.3812
 9707SOL    HW131659   5.712   0.061   2.753 -0.2224  0.0433  1.1363
 9707SOL    HW231660   5.562   0.060   2.734 -0.0528 -0.2778 -0.1972
 9708SOL     OW31661   6.798   4.865   2.858  0.0931 -0.1533 -0.0330
 9708SOL    HW131662   6.888   4.841   2.835 -0.4377 -1.4848 -0.7443
 9708SOL    HW231663   6.794   4.959   2.842  1.3411 -0.0879 -0.0346
 9709SOL     OW31664   2.417   8.369   9.489  0.0239  0.2003 -0.3002
 9709SOL    HW131665   2.440   8.431   9.420  1.8639  0.6691  0.7073
 9709SOL    HW231666   2.335   8.403   9.526  0.8410  1.8885  0.0301
 9710SOL     OW31667   0.348   2.049   3.921  0.6661 -0.5084  0.2538
 9710SOL    HW131668   0.300   2.004   3.991  1.3020 -0.6417  0.6057
 9710SOL    HW231669   0.307   2.017   3.841  0.2715 -0.7478  0.5454
 9711SOL     OW31670   2.551   3.091   4.698 -0.1672 -0.1500  0.4509
 9711SOL    HW131671   2.492   3.104   4.772  1.2384  0.3487  1.5181
 9711SOL    HW231672   2.639   3.098   4.736  0.5809  1.5630 -1.5159
 9712SOL     OW31673   9.751   0.249   5.654 -0.6359 -0.1650  0.0905
 9712SOL    HW131674   9.721   0.339   5.647  0.3263  0.1796  0.3642
 9712SOL    HW231675   9.703   0.202   5.586 -1.9913  0.3168  0.7057
 9713SOL     OW31676   5.659   7.674   0.645 -0.2906  0.5451 -0.1892
 9713SOL    HW131677   5.667   7.602   0.582 -1.3642  1.0881 -0.9543
 9713SOL    HW231678   5.745   7.716   0.645 -0.7865  1.6246 -2.6129
 9714SOL     OW31679   6.022   2.153   4.967  0.0283  0.5006  0.2699
 9714SOL    HW131680   5.934   2.161   5.002 -0.4287 -1.7968 -0.3300
 9714SOL    HW231681   6.038   2.237   4.924 -2.0037  0.7830  0.0371
 9715SOL     OW31682  10.200   9.653   8.817  0.2267  0.2075 -0.6982
 9715SOL    HW131683  10.116   9.666   8.860  0.4692 -0.6030  0.0275
 9715SOL    HW231684  10.243   9.738   8.823  0.5622 -0.0832  1.3311
 9716SOL     OW31685   3.979   1.160   0.075  0.4841  0.3867  0.8965
 9716SOL    HW131686   3.886   1.182   0.087  0.3655 -0.8099  2.2639
 9716SOL    HW231687   3.980   1.065   0.065  1.7462  0.1710  2.8583
 9717SOL     OW31688   2.493   7.017   2.594 -0.2433 -0.5218 -0.3733
 9717SOL    HW131689   2.435   6.941   2.590 -0.7363 -0.2168  0.7103
 9717SOL    HW231690   2.551   6.999   2.669  1.7540 -1.3028 -2.0554
 9718SOL     OW31691   6.688   4.324   1.677 -0.3825  0.2219  0.6304
 9718SOL    HW131692   6.696   4.387   1.605 -0.2888 -1.0219 -0.4694
 9718SOL    HW231693   6.763   4.266   1.665 -0.7724 -0.4217  1.3137
 9719SOL     OW31694   2.055  10.058   3.402 -0.1547  0.3727  0.8513
 9719SOL    HW131695   2.012  10.074   3.318  3.2604 -0.4339 -1.1363
 9719SOL    HW231696   2.042  10.139   3.451 -0.4533  1.6474 -1.2436
 9720SOL     OW31697   9.555   8.003   0.367  0.2805 -0.5092  0.8281
 9720SOL    HW131698   9.523   8.030   0.453 -2.1066  0.2892 -0.2604
 9720SOL    HW231699   9.475   7.987   0.316  1.6611 -1.8869 -0.9492
 9721SOL     OW31700   0.408   4.025   8.607  0.1341  1.1417 -0.7375
 9721SOL    HW131701   0.373   4.025   8.697 -0.1838  0.9335 -0.8589
 9721SOL    HW231702   0.358   3.956   8.562  2.0861 -0.5524 -0.3897
 9722SOL     OW31703   2.042   8.900   4.397 -0.0066  0.5075  0.2065
 9722SOL    HW131704   2.050   8.918   4.491 -0.1582  0.5691  0.2078
 9722SOL    HW231705   1.962   8.846   4.390  1.5720 -1.9715  0.4657
 9723SOL     OW31706   1.926   0.219   3.854  0.5872 -0.5256 -0.3205
 9723SOL    HW131707   1.862   0.150   3.836 -1.6801  1.1351  1.0932
 9723SOL    HW231708   1.956   0.200   3.943  1.3657 -0.7393 -0.6247
 9724SOL     OW31709   1.137   8.089   0.416 -0.0847  0.2246  0.1146
 9724SOL    HW131710   1.053   8.065   0.456  0.3977 -0.2397  0.8605
 9724SOL    HW231711   1.136   8.185   0.417 -0.6767  0.2224 -0.0275
 9725SOL     OW31712   1.401   3.817   4.516 -0.2248 -0.3602 -0.2313
 9725SOL    HW131713   1.312   3.802   4.484 -0.0279  1.6824 -1.8711
 9725SOL    HW231714   1.393   3.823   4.611 -1.8942  0.1271 -0.3960
 9726SOL     OW31715   9.916  10.068   4.338  0.2563 -0.5426  0.1024
 9726SOL    HW131716   9.878  10.024   4.262  1.6077  1.3567 -1.7182
 9726SOL    HW231717  10.010  10.069   4.322  0.5043  0.5168  1.4399
 9727SOL     OW31718   0.898   5.461   9.101 -0.2382 -0.3265 -0.4430
 9727SOL    HW131719   0.930   5.400   9.035  1.5229  0.6854 -0.5516
 9727SOL    HW231720   0.802   5.453   9.097 -0.0841 -1.7121 -1.7219
 9728SOL     OW31721   8.585   8.895   1.364  0.3226  0.4740 -0.1120
 9728SOL    HW131722   8.501   8.909   1.408  1.2949  0.4978  1.7879
 9728SOL    HW231723   8.643   8.860   1.432  1.8816  0.5494 -1.3606
 9729SOL     OW31724   4.683   4.623   2.325  0.0195 -0.8401  0.1979
 9729SOL    HW131725   4.646   4.685   2.262  0.5838 -1.1499 -0.4423
 9729SOL    HW231726   4.616   4.615   2.393 -0.1710  0.2681  0.1481
 9730SOL     OW31727   2.056   1.775   9.924 -1.0197  0.0462 -0.0063
 9730SOL    HW131728   2.040   1.811  10.012 -0.9857  0.1619 -0.0473
 9730SOL    HW231729   2.124   1.832   9.888 -3.3920  2.0971 -1.3894
 9731SOL     OW31730   6.754   9.326   5.406 -0.3391 -0.4162 -0.3973
 9731SOL    HW131731   6.844   9.347   5.430 -0.6679  0.8920 -0.3015
 9731SOL    HW231732   6.762   9.248   5.350  1.0456  0.9688 -2.2023
 9732SOL     OW31733   0.589   6.236   6.107  0.4304 -0.5901  0.1473
 9732SOL    HW131734   0.582   6.327   6.079  1.4433  0.4178  2.9615
 9732SOL    HW231735   0.503   6.214   6.144  0.8763  0.0277  1.6067
 9733SOL     OW31736   4.861   2.651   2.514 -0.4082 -0.1783  0.4182
 9733SOL    HW131737   4.838   2.703   2.590  1.8343  0.4571  0.6999
 9733SOL    HW231738   4.932   2.594   2.545  1.8036  1.3732 -1.6297
 9734SOL     OW31739   8.263   0.188  10.087  0.2600  0.1945  0.9157
 9734SOL    HW131740   8.245   0.270  10.133  0.1458 -0.5377  2.2014
 9734SOL    HW231741   8.197   0.127  10.120  1.3944 -0.8764  1.2428
 9735SOL     OW31742   2.278   6.771   2.266 -0.5698  0.9740  0.1802
 9735SOL    HW131743   2.367   6.771   2.232 -0.3816  0.6445  0.6585
 9735SOL    HW231744   2.263   6.681   2.295 -1.6440  0.6400 -1.3898
 9736SOL     OW31745   4.798   3.123   7.013  0.4468  0.0907  0.0248
 9736SOL    HW131746   4.771   3.090   6.927 -1.3359  0.7624  0.3116
 9736SOL    HW231747   4.851   3.052   7.049 -0.7822 -1.2088 -0.6455
 9737SOL     OW31748   2.966   0.897   8.679 -0.1800  0.2852 -0.3436
 9737SOL    HW131749   2.929   0.817   8.716 -1.2098  0.1928 -1.5029
 9737SOL    HW231750   2.889   0.950   8.655  0.4798  1.2786 -0.2984
 9738SOL     OW31751   2.677   3.221   5.993 -0.1030 -0.9351 -0.0923
 9738SOL    HW131752   2.748   3.171   5.954  1.5827  2.0326 -0.9345
 9738SOL    HW231753   2.692   3.214   6.088  0.0889 -1.9762 -0.1852
 9739SOL     OW31754   7.208   1.284   5.785 -0.2444 -0.3042 -0.1702
 9739SOL    HW131755   7.234   1.318   5.871 -1.5367 -1.1994  0.5864
 9739SOL    HW231756   7.202   1.190   5.797  0.6305 -0.5377 -1.5461
 9740SOL     OW31757   0.166   9.232   1.994  0.0095  0.2186  0.1431
 9740SOL    HW131758   0.080   9.250   2.033  0.5528  1.6791  0.7008
 9740SOL    HW231759   0.149   9.164   1.929 -2.1018  2.3918 -1.6943
 9741SOL     OW31760   2.463   9.308   8.721 -0.1229 -0.0642 -0.5570
 9741SOL    HW131761   2.447   9.333   8.630  0.9436 -0.5530 -0.8816
 9741SOL    HW231762   2.556   9.325   8.735  0.3611 -2.6427 -0.4265
 9742SOL     OW31763   8.630   1.520   3.899  0.1868  0.5178  0.1421
 9742SOL    HW131764   8.718   1.553   3.885  0.2387 -0.0527 -0.9410
 9742SOL    HW231765   8.573   1.595   3.880  0.4542  0.9819  1.1898
 9743SOL     OW31766   7.277   8.912   1.247 -0.1147 -0.3622  0.2583
 9743SOL    HW131767   7.350   8.869   1.292  0.1456  1.2137  1.3764
 9743SOL    HW231768   7.306   8.919   1.156  0.3311 -1.4574  0.3106
 9744SOL     OW31769   6.451   5.945   4.095  0.0888 -0.3138  0.1447
 9744SOL    HW131770   6.449   5.913   4.004 -0.1581  0.2307 -0.0453
 9744SOL    HW231771   6.362   5.975   4.111  0.8242  2.3900 -0.4568
 9745SOL     OW31772   8.482   1.899   7.296 -0.2146 -0.2009 -0.2394
 9745SOL    HW131773   8.569   1.886   7.258  0.1253 -1.7737  1.0418
 9745SOL    HW231774   8.496   1.960   7.368  0.1226 -1.6779  0.9751
 9746SOL     OW31775   9.407   9.121   8.209  0.4803  0.6131  0.0903
 9746SOL    HW131776   9.333   9.180   8.221  0.0966 -0.2985  2.6674
 9746SOL    HW231777   9.484   9.173   8.233  0.4581  0.9420 -0.5500
 9747SOL     OW31778   5.189   4.803   6.244  0.4985  0.1186  0.5376
 9747SOL    HW131779   5.203   4.775   6.154  0.4615 -2.1668  1.1869
 9747SOL    HW231780   5.094   4.806   6.254  0.4875  1.9517  0.0710
 9748SOL     OW31781   7.512   9.950   1.332 -0.1466 -0.0653  0.1972
 9748SOL    HW131782   7.533  10.033   1.290  1.4962 -0.2458  0.6125
 9748SOL    HW231783   7.561   9.885   1.281 -0.5184 -0.6441  0.5749
 9749SOL     OW31784   4.307   9.788   8.548 -0.0292  0.5059 -0.0760
 9749SOL    HW131785   4.302   9.746   8.634 -0.1009 -0.0551 -0.3524
 9749SOL    HW231786   4.376   9.855   8.558 -0.3080  0.7108  0.5249
 9750SOL     OW31787   4.096   0.064   2.297  0.4816 -0.6475  0.3564
 9750SOL    HW131788   4.159   0.135   2.311  1.6656 -1.9949  1.9562
 9750SOL    HW231789   4.150  -0.015   2.292 -1.0588 -1.7978  1.5663
 9751SOL     OW31790   9.855   7.832   9.684  0.5802  0.2878  0.1538
 9751SOL    HW131791   9.934   7.783   9.665  0.4186  1.0023 -2.4436
 9751SOL    HW231792   9.879   7.924   9.674 -0.2067  0.5787  0.7965
 9752SOL     OW31793   8.700   9.310   3.576  0.1188  0.1664  0.7166
 9752SOL    HW131794   8.638   9.349   3.637 -0.0094  1.8192 -0.4566
 9752SOL    HW231795   8.786   9.322   3.618  0.1411  2.1866  0.1645
 9753SOL     OW31796   7.445   2.780   4.237 -0.9595 -0.1289 -0.1032
 9753SOL    HW131797   7.441   2.859   4.291 -1.9213  0.6134 -1.2579
 9753SOL    HW231798   7.409   2.806   4.152 -1.6577 -1.9048 -0.3794
 9754SOL     OW31799   0.390   1.553   1.467 -0.3374  0.3760  0.0119
 9754SOL    HW131800   0.394   1.554   1.371 -0.8532  1.2589 -0.0031
 9754SOL    HW231801   0.297   1.542   1.488 -0.2882  0.7018  0.4128
 9755SOL     OW31802   8.299   4.210   6.627 -0.8063 -0.0118 -0.7643
 9755SOL    HW131803   8.231   4.276   6.611  0.2448  1.2623 -0.0456
 9755SOL    HW231804   8.321   4.220   6.719  1.1864  0.3718 -1.2696
 9756SOL     OW31805   9.192   8.401   2.891  0.1903 -0.3167 -0.0577
 9756SOL    HW131806   9.187   8.348   2.811 -3.0369 -1.1825  0.6427
 9756SOL    HW231807   9.271   8.371   2.935  0.7788 -1.4323 -1.8061
 9757SOL     OW31808   4.922   6.601   8.500  0.0485 -0.3831 -0.1816
 9757SOL    HW131809   4.878   6.628   8.420 -1.3593  0.1890  0.7633
 9757SOL    HW231810   5.013   6.628   8.488 -0.5205  1.2775 -0.8661
 9758SOL     OW31811   5.820   5.541   0.558 -0.2364 -0.2538 -0.5372
 9758SOL    HW131812   5.817   5.601   0.633 -0.1017  0.6692 -1.2615
 9758SOL    HW231813   5.866   5.590   0.490  0.1439 -1.3018 -1.0397
 9759SOL     OW31814   2.234   0.870   8.883  0.5435 -0.2455 -0.0888
 9759SOL    HW131815   2.254   0.818   8.805  2.6917 -1.3294  1.1353
 9759SOL    HW231816   2.307   0.931   8.890 -1.5931  2.5670 -1.0973
 9760SOL     OW31817   9.478   3.016   5.006  0.3301  0.3171  0.2269
 9760SOL    HW131818   9.447   2.939   4.958  0.0775 -1.6232  3.3110
 9760SOL    HW231819   9.566   2.992   5.036  2.1517  3.0899 -2.6150
 9761SOL     OW31820   0.249   1.219   9.902  0.2566  0.2123  0.2668
 9761SOL    HW131821   0.284   1.205   9.990 -0.2137  0.1854  0.4508
 9761SOL    HW231822   0.198   1.300   9.908  1.5882  1.1244 -0.3899
 9762SOL     OW31823   8.744   0.183   8.652  0.0672  0.1012 -0.1917
 9762SOL    HW131824   8.700   0.101   8.628  0.1769  0.3343 -1.2217
 9762SOL    HW231825   8.834   0.171   8.624  1.2413 -1.1760  3.7665
 9763SOL     OW31826   5.615   0.871   5.167  0.2269  0.1306 -0.2401
 9763SOL    HW131827   5.669   0.803   5.209  0.4227  1.2306  1.3064
 9763SOL    HW231828   5.547   0.891   5.231 -3.2312 -2.5616 -2.8922
 9764SOL     OW31829   1.380   5.687   2.063 -0.0136  0.0314 -0.1372
 9764SOL    HW131830   1.364   5.593   2.078  2.3697 -0.6187 -1.4498
 9764SOL    HW231831   1.365   5.699   1.969 -1.0531  1.1565  0.1598
 9765SOL     OW31832   2.660   4.082   6.190 -0.2152 -0.4101 -0.1846
 9765SOL    HW131833   2.689   3.992   6.208 -3.2496 -0.9982  2.0654
 9765SOL    HW231834   2.657   4.123   6.277 -2.1873  0.8243 -0.8310
 9766SOL     OW31835   3.200   7.009   8.425 -0.0538 -0.1919 -0.3295
 9766SOL    HW131836   3.112   7.029   8.392  0.2302  2.0835  0.2495
 9766SOL    HW231837   3.246   6.972   8.349  0.0331  3.3326 -2.1108
 9767SOL     OW31838   5.394   1.242   7.653 -0.0994 -0.3547 -0.1221
 9767SOL    HW131839   5.478   1.283   7.633  0.1410 -1.2047 -0.9484
 9767SOL    HW231840   5.402   1.213   7.744  0.3012  0.0531 -0.0291
 9768SOL     OW31841   2.437   9.630   1.642  0.0866  0.0291  0.0065
 9768SOL    HW131842   2.444   9.631   1.737  2.3586  2.7726 -0.1409
 9768SOL    HW231843   2.492   9.556   1.615 -1.5010 -1.5024  0.8131
 9769SOL     OW31844   9.758   6.605   9.949 -0.5102 -0.3239 -0.0166
 9769SOL    HW131845   9.722   6.674  10.004 -0.7243 -0.3322 -0.1478
 9769SOL    HW231846   9.830   6.647   9.902  1.1066 -0.8711  1.8992
 9770SOL     OW31847   8.021   3.343   5.088  0.1180  0.5876  0.0837
 9770SOL    HW131848   7.977   3.262   5.064  1.2856  0.2443 -1.0062
 9770SOL    HW231849   8.091   3.316   5.147 -1.5042  1.2050  2.3536
 9771SOL     OW31850   8.397   0.997   6.920  0.1425  0.5193  0.1356
 9771SOL    HW131851   8.309   1.034   6.917 -1.4613 -2.9094  1.7954
 9771SOL    HW231852   8.421   1.000   7.013  0.9450 -0.4162 -0.0351
 9772SOL     OW31853   1.195   7.156  10.098 -0.3366 -0.4842  0.0651
 9772SOL    HW131854   1.259   7.213  10.141  0.6255 -1.0660 -0.5931
 9772SOL    HW231855   1.163   7.099  10.168  2.1535 -2.2739 -0.2100
 9773SOL     OW31856   6.085   0.300   9.172  0.4234  0.5371  0.0404
 9773SOL    HW131857   6.124   0.343   9.248  0.8061 -1.2539  0.9083
 9773SOL    HW231858   6.081   0.207   9.197 -2.3167  0.3509 -0.9206
 9774SOL     OW31859   1.156   4.264   0.285  0.0148  0.0384  0.2943
 9774SOL    HW131860   1.204   4.196   0.237 -0.7260 -0.8953  0.8767
 9774SOL    HW231861   1.133   4.224   0.368 -3.2873 -0.1401 -0.6436
 9775SOL     OW31862   9.867   6.950   6.211  0.4922  0.6714 -0.2447
 9775SOL    HW131863   9.926   6.937   6.137 -1.0626  0.3260 -1.4411
 9775SOL    HW231864   9.831   6.863   6.229 -0.2863  1.0314 -0.0619
 9776SOL     OW31865   4.316   3.291   4.948  0.3128  0.1179 -0.2824
 9776SOL    HW131866   4.238   3.346   4.942 -0.9072 -1.4724  0.4915
 9776SOL    HW231867   4.373   3.337   5.010  0.2809  1.6189 -1.3502
 9777SOL     OW31868   7.842   9.158   6.947 -0.0665  0.1256 -0.3300
 9777SOL    HW131869   7.753   9.180   6.918  0.1364 -0.2736 -1.2570
 9777SOL    HW231870   7.898   9.223   6.904  0.0675  0.5166  0.4347
 9778SOL     OW31871   6.500   1.722   5.183  0.2724  0.5900 -0.2614
 9778SOL    HW131872   6.572   1.768   5.138  1.1011  0.4590  0.9134
 9778SOL    HW231873   6.536   1.701   5.269 -0.8719 -0.3040 -0.0033
 9779SOL     OW31874   3.007   5.067   7.793  0.2478  0.3331  0.2978
 9779SOL    HW131875   3.059   5.070   7.874  1.2275 -1.4713 -0.2241
 9779SOL    HW231876   2.917   5.054   7.822  0.1395  2.8170  1.1973
 9780SOL     OW31877   9.443   9.515   6.061 -0.7235 -0.6353 -0.3734
 9780SOL    HW131878   9.347   9.510   6.054 -1.0134  2.2253  0.8249
 9780SOL    HW231879   9.472   9.424   6.061 -3.4181 -1.5413 -1.1164
 9781SOL     OW31880   5.557   4.627   7.553  0.5713 -0.2387  0.2372
 9781SOL    HW131881   5.568   4.588   7.466  0.3859 -0.0404  0.1232
 9781SOL    HW231882   5.477   4.588   7.587  0.2112  0.2713 -0.0068
 9782SOL     OW31883   3.667   3.384   6.258 -0.0564  0.0256 -0.0683
 9782SOL    HW131884   3.676   3.289   6.268  0.8617  0.0994 -0.1453
 9782SOL    HW231885   3.625   3.412   6.340 -0.5440 -0.4695 -0.1426
 9783SOL     OW31886   7.215   7.422   6.721 -0.3235 -0.3601  0.4927
 9783SOL    HW131887   7.128   7.459   6.733 -0.4457  0.1152 -1.5854
 9783SOL    HW231888   7.270   7.469   6.784 -1.2395  0.5840  0.6020
 9784SOL     OW31889   2.478   4.421   1.023 -0.4225 -0.7647 -0.2964
 9784SOL    HW131890   2.459   4.499   0.970  1.2412  1.6659  2.5691
 9784SOL    HW231891   2.573   4.422   1.032 -0.7060 -0.9473  2.9677
 9785SOL     OW31892   1.968   6.251   5.765 -0.0261 -0.0098 -0.0676
 9785SOL    HW131893   2.000   6.162   5.780 -0.3905 -0.3832 -1.4720
 9785SOL    HW231894   1.873   6.245   5.777  0.0241  0.3514  0.5511
 9786SOL     OW31895   1.102   6.216   2.603  0.3151  0.0982  0.1237
 9786SOL    HW131896   1.130   6.173   2.684 -0.5885 -0.0172  0.3726
 9786SOL    HW231897   1.112   6.148   2.536  0.1294 -0.1072  0.3024
 9787SOL     OW31898   4.621   4.735   3.059 -0.2376  0.4281 -0.6914
 9787SOL    HW131899   4.605   4.789   2.981 -1.9084 -2.3920 -2.3755
 9787SOL    HW231900   4.534   4.717   3.094  0.2150 -1.8757 -0.6851
 9788SOL     OW31901   0.236   2.590   7.726 -0.0613  0.1421  0.5406
 9788SOL    HW131902   0.273   2.650   7.791 -1.5507  0.7925  0.8077
 9788SOL    HW231903   0.158   2.553   7.769 -0.6702  0.0652 -0.6151
 9789SOL     OW31904   9.658   4.737   2.715  0.4804 -0.7781 -0.0385
 9789SOL    HW131905   9.593   4.724   2.646 -1.4679  1.2937  1.3220
 9789SOL    HW231906   9.690   4.826   2.701  1.8803 -1.2135  0.2852
 9790SOL     OW31907   6.260   7.574   2.789 -0.5642 -0.2245 -0.3236
 9790SOL    HW131908   6.302   7.504   2.838  2.1084  1.2404 -0.4049
 9790SOL    HW231909   6.313   7.584   2.710 -1.6766  1.0093 -0.9408
 9791SOL     OW31910   7.756   6.538   9.182 -0.5531  0.2810  0.0671
 9791SOL    HW131911   7.663   6.551   9.163 -1.0065 -2.3871  0.1446
 9791SOL    HW231912   7.783   6.616   9.229 -3.3133  0.1782  1.9091
 9792SOL     OW31913   0.826   9.635   1.449  0.2573  0.3517 -0.0799
 9792SOL    HW131914   0.890   9.683   1.397 -0.3828  1.2339 -0.0753
 9792SOL    HW231915   0.818   9.686   1.530 -2.2541  1.6323 -1.0850
 9793SOL     OW31916   7.322   6.922   7.186  0.3573 -0.4401  0.2396
 9793SOL    HW131917   7.250   6.914   7.250  0.2668 -2.1510 -0.0622
 9793SOL    HW231918   7.278   6.930   7.102  0.5154 -2.9689 -0.1050
 9794SOL     OW31919   3.274   8.906   5.814  0.4155 -0.2027  0.0169
 9794SOL    HW131920   3.298   8.999   5.808 -0.5573  0.0021 -0.8695
 9794SOL    HW231921   3.280   8.885   5.907 -0.1443  0.9652  0.3235
 9795SOL     OW31922   6.174   9.558   7.333 -0.4937 -0.3013 -0.4705
 9795SOL    HW131923   6.212   9.572   7.246 -0.1526  1.4173 -0.0449
 9795SOL    HW231924   6.166   9.645   7.371 -0.3518 -1.0667  1.3661
 9796SOL     OW31925   4.741   3.731   3.522 -0.5379  0.2202 -0.3143
 9796SOL    HW131926   4.822   3.760   3.563 -0.5976  0.6208 -0.4861
 9796SOL    HW231927   4.672   3.779   3.568 -0.6034  0.6829 -0.8916
 9797SOL     OW31928   7.013   9.023   7.562 -0.0260 -0.4605 -0.0948
 9797SOL    HW131929   7.016   9.045   7.469  0.8598 -0.9388 -0.1792
 9797SOL    HW231930   7.084   9.074   7.601 -1.0953  0.5906  0.4991
 9798SOL     OW31931   6.758   3.026   9.248 -0.3600 -0.3663 -0.2141
 9798SOL    HW131932   6.827   3.091   9.264  0.6223 -1.4158 -0.0789
 9798SOL    HW231933   6.678   3.068   9.278  0.4279  0.3682  0.9259
 9799SOL     OW31934   4.162   5.071   2.567  0.2143 -0.3139  0.0698
 9799SOL    HW131935   4.184   4.992   2.616 -0.2497 -1.4433 -1.5388
 9799SOL    HW231936   4.227   5.075   2.497 -0.7906 -0.1884 -0.8686
 9800SOL     OW31937   4.557   6.696   4.024 -0.0787  0.2187  0.1661
 9800SOL    HW131938   4.477   6.657   4.058  0.0076  0.2003  0.3461
 9800SOL    HW231939   4.568   6.656   3.937 -1.3761  1.7369 -0.7243
 9801SOL     OW31940   1.274   8.723   5.040 -0.2014 -0.7176 -0.0196
 9801SOL    HW131941   1.260   8.806   4.995 -0.9888  0.1348  1.7746
 9801SOL    HW231942   1.290   8.746   5.131 -0.6969 -2.5346  0.5609
 9802SOL     OW31943   2.236   5.994   0.569 -0.3449  0.0858  0.5416
 9802SOL    HW131944   2.240   5.913   0.620  1.5445 -0.3700 -0.3027
 9802SOL    HW231945   2.211   6.061   0.633 -0.6530 -0.9242  1.5010
 9803SOL     OW31946   9.557  10.097   9.872  0.3234 -0.4759  0.1561
 9803SOL    HW131947   9.538  10.095   9.779 -0.5709  1.6043  0.2548
 9803SOL    HW231948   9.636  10.152   9.879 -0.9558  1.3543  0.7699
 9804SOL     OW31949   1.465   7.819   0.626  0.4140  0.1106 -0.3137
 9804SOL    HW131950   1.472   7.914   0.641 -0.3043 -0.1607  1.9704
 9804SOL    HW231951   1.442   7.811   0.534  0.2978  2.1819 -0.4877
 9805SOL     OW31952   0.173   8.167   5.839  0.0711  0.0542 -0.0936
 9805SOL    HW131953   0.174   8.231   5.767 -1.7827 -0.1451 -0.3126
 9805SOL    HW231954   0.265   8.155   5.861  0.6927 -0.0089 -2.5685
 9806SOL     OW31955   2.978   1.988   3.806  0.4155  0.4433 -0.1711
 9806SOL    HW131956   3.066   1.979   3.840  1.4834  1.7618 -2.4483
 9806SOL    HW231957   2.984   1.958   3.715 -1.1975  1.6352 -0.7052
 9807SOL     OW31958   8.880   0.309   7.465  0.3139  0.3207 -0.3556
 9807SOL    HW131959   8.843   0.221   7.460  0.4894  0.2839 -1.0265
 9807SOL    HW231960   8.821   0.363   7.413 -1.9188  1.3435  3.1100
 9808SOL     OW31961   5.528   9.595   6.615 -0.6160 -0.3072  0.1924
 9808SOL    HW131962   5.474   9.598   6.694  1.5476 -1.7802  1.7701
 9808SOL    HW231963   5.580   9.516   6.624 -0.0621 -0.3241 -2.5780
 9809SOL     OW31964   5.276   1.535   7.827 -0.3447 -0.1576 -0.0247
 9809SOL    HW131965   5.244   1.624   7.843  1.5500  0.0241  3.1549
 9809SOL    HW231966   5.348   1.546   7.765  0.2178  0.5981  0.7531
 9810SOL     OW31967   0.872   4.803   9.842 -0.1349 -0.1423  0.5013
 9810SOL    HW131968   0.907   4.777   9.927  1.7505 -0.6252 -0.3831
 9810SOL    HW231969   0.778   4.790   9.849  0.1608 -1.5833  2.0124
 9811SOL     OW31970   3.723   8.376   7.486 -0.8026  0.0776 -0.3089
 9811SOL    HW131971   3.728   8.283   7.507 -1.6332  0.2440  0.6766
 9811SOL    HW231972   3.801   8.393   7.434  0.7749 -0.6014  1.7600
 9812SOL     OW31973   7.391   3.990   8.055  0.2379  0.5054 -0.3215
 9812SOL    HW131974   7.443   3.922   8.010  0.1095 -0.7470  1.3872
 9812SOL    HW231975   7.424   3.990   8.144 -2.0859  0.3136  0.5630
 9813SOL     OW31976   2.653   6.195   8.121 -0.1266  0.2372 -0.6179
 9813SOL    HW131977   2.724   6.160   8.067  0.1779  0.4704 -0.3741
 9813SOL    HW231978   2.573   6.166   8.078  0.1090 -2.1387  0.5007
 9814SOL     OW31979   4.709   4.498   3.162  0.3627  0.0959 -0.1359
 9814SOL    HW131980   4.665   4.441   3.099 -0.6293  0.2689  0.3915
 9814SOL    HW231981   4.671   4.585   3.146  0.5246  0.2518  0.3134
 9815SOL     OW31982   7.596   9.978   1.744 -0.0117  0.7204  0.4867
 9815SOL    HW131983   7.641  10.005   1.664 -0.2416  0.7400  0.3640
 9815SOL    HW231984   7.533   9.911   1.715 -1.2849  1.9455  0.4016
 9816SOL     OW31985   2.329   8.479   8.702  0.1204 -0.2671 -0.4419
 9816SOL    HW131986   2.357   8.393   8.735  2.6655  0.6949 -0.0236
 9816SOL    HW231987   2.264   8.508   8.767 -0.5513 -1.7114 -0.4265
 9817SOL     OW31988   5.152   3.288   9.105  0.4160  0.0836 -0.8230
 9817SOL    HW131989   5.089   3.348   9.064  0.7578  0.4722 -0.7888
 9817SOL    HW231990   5.222   3.346   9.136  0.8802 -0.3632 -1.0350
 9818SOL     OW31991   6.254   9.847   4.079 -0.6679 -0.2897 -0.2898
 9818SOL    HW131992   6.161   9.863   4.066 -0.4486 -0.0753 -1.6912
 9818SOL    HW231993   6.268   9.859   4.173 -1.5104  2.4574 -0.4672
 9819SOL     OW31994  10.021   7.154   4.990 -0.1813 -0.3733  0.0462
 9819SOL    HW131995  10.018   7.110   5.075  0.1924 -1.5874 -0.5488
 9819SOL    HW231996   9.938   7.130   4.948 -1.1736  1.6886  0.7547
 9820SOL     OW31997   6.117   2.838   3.590  0.1705  0.1064 -0.0336
 9820SOL    HW131998   6.195   2.798   3.550  0.5103  1.1243 -0.4169
 9820SOL    HW231999   6.117   2.928   3.557 -0.1930  0.6265  1.3540
 9821SOL     OW32000   6.900   3.088   2.213 -0.3267  0.3597 -0.1694
 9821SOL    HW132001   6.839   3.162   2.214 -1.4749 -0.4877 -3.1106
 9821SOL    HW232002   6.983   3.126   2.184 -0.1457  0.9776  1.0872
 9822SOL     OW32003   1.491   3.928   3.390 -0.2952  0.3877 -0.0053
 9822SOL    HW132004   1.544   3.867   3.443 -1.1801  0.2236  0.7026
 9822SOL    HW232005   1.454   3.873   3.321  0.0783  0.4142 -0.2305
 9823SOL     OW32006   7.918   8.629   1.117  0.6215 -0.0255 -0.2045
 9823SOL    HW132007   7.952   8.575   1.045 -1.1907 -2.0094  0.3651
 9823SOL    HW232008   7.910   8.717   1.079  2.1866 -0.4541 -1.6181
 9824SOL     OW32009   2.434   8.774   3.955  0.4254  0.1781  0.4658
 9824SOL    HW132010   2.493   8.846   3.977  1.1831 -0.5342  0.7600
 9824SOL    HW232011   2.443   8.764   3.860  3.1432 -1.9643  0.8881
 9825SOL     OW32012   1.291   5.246   8.394 -0.0148  0.5088  0.3362
 9825SOL    HW132013   1.281   5.339   8.371  1.1717 -0.2184 -3.5934
 9825SOL    HW232014   1.206   5.208   8.372 -0.3042  0.5459  1.3790
 9826SOL     OW32015   1.322   0.731   4.285  0.4654 -0.8758 -0.4885
 9826SOL    HW132016   1.285   0.806   4.238  1.8188  0.0666 -0.0838
 9826SOL    HW232017   1.416   0.739   4.272  0.8717 -0.5799  2.3588
 9827SOL     OW32018   2.060   0.466   6.705  0.1932  0.0300 -0.7782
 9827SOL    HW132019   2.076   0.408   6.630  0.0868 -3.6488  1.8774
 9827SOL    HW232020   1.966   0.454   6.724  0.7877 -1.2656  1.5636
 9828SOL     OW32021   2.607   6.802   7.362  0.5874  0.2670  0.3391
 9828SOL    HW132022   2.557   6.787   7.443  2.3029  0.9399  1.5513
 9828SOL    HW232023   2.612   6.716   7.321 -1.8195  0.2343  0.0164
 9829SOL     OW32024   9.928   1.466   9.214 -0.3826  0.3084 -0.7051
 9829SOL    HW132025   9.994   1.533   9.233  0.3928 -0.5622 -0.2998
 9829SOL    HW232026   9.847   1.500   9.251  0.5762 -0.2195  1.9477
 9830SOL     OW32027   0.915   4.912   4.541 -0.3918  0.4452  0.4880
 9830SOL    HW132028   0.903   4.953   4.455  1.0956 -0.1441 -0.0144
 9830SOL    HW232029   0.841   4.943   4.593 -0.5261  1.9638 -0.5770
 9831SOL     OW32030   1.215   2.704   4.892 -0.5548 -0.1791 -0.3052
 9831SOL    HW132031   1.282   2.665   4.836 -1.4494 -0.5501 -1.1375
 9831SOL    HW232032   1.252   2.788   4.919 -0.6376  0.6111 -2.5405
 9832SOL     OW32033   6.835   9.740   7.355 -0.4925  0.5020  0.2697
 9832SOL    HW132034   6.851   9.731   7.449 -1.0454  0.1443  0.3283
 9832SOL    HW232035   6.742   9.761   7.348 -0.5753 -0.0267 -0.2311
 9833SOL     OW32036   2.125   2.703   2.328  0.4032  0.4204 -0.3856
 9833SOL    HW132037   2.112   2.769   2.260  1.8561  0.1649 -0.9448
 9833SOL    HW232038   2.088   2.742   2.407 -1.5221  0.6280 -1.3525
 9834SOL     OW32039   2.957   6.761   8.231 -0.3785  0.2123  0.4620
 9834SOL    HW132040   2.919   6.849   8.230 -0.2999  0.2622  1.5336
 9834SOL    HW232041   2.889   6.706   8.269 -0.9925 -0.4668 -1.5869
 9835SOL     OW32042   3.662  10.115   0.371 -0.7222  0.2763  0.6200
 9835SOL    HW132043   3.667  10.024   0.399  1.5994 -0.2384 -1.3107
 9835SOL    HW232044   3.579  10.122   0.324 -0.8150 -0.8935  0.6113
 9836SOL     OW32045   2.207   0.133   6.305 -0.0051  0.1679 -0.2619
 9836SOL    HW132046   2.230   0.049   6.343  1.2018 -0.2480 -1.8441
 9836SOL    HW232047   2.116   0.122   6.275 -0.5460  0.1209  1.3721
 9837SOL     OW32048   7.959   5.629   2.913  0.0607  0.1455  0.0942
 9837SOL    HW132049   7.871   5.656   2.886  0.9104  1.6802 -1.2577
 9837SOL    HW232050   8.013   5.640   2.834  1.5880 -0.1862  1.0668
 9838SOL     OW32051   4.657   3.769   0.150  0.2130 -0.0837  0.1776
 9838SOL    HW132052   4.621   3.787   0.064  0.4468 -0.7430 -0.0630
 9838SOL    HW232053   4.705   3.687   0.140  0.3788 -0.0843  0.8934
 9839SOL     OW32054   6.275   0.611   5.054 -0.5114  0.2113  0.0841
 9839SOL    HW132055   6.265   0.567   4.969  2.4274  1.8008 -1.1476
 9839SOL    HW232056   6.309   0.543   5.112  1.2243  0.0612 -1.0591
 9840SOL     OW32057   9.773  10.025   1.043  0.3889  0.2107 -0.1937
 9840SOL    HW132058   9.819  10.083   1.104 -1.4916 -2.2551  3.8047
 9840SOL    HW232059   9.718  10.083   0.991 -0.7635  2.1894  3.0535
 9841SOL     OW32060   4.962   6.966   0.252  0.8509  0.3288  0.0385
 9841SOL    HW132061   4.888   6.994   0.198  0.5294 -0.1443  0.2398
 9841SOL    HW232062   4.939   6.994   0.340  0.1723 -1.2441  0.3789
 9842SOL     OW32063   5.260   7.336   8.211  0.0143  0.2712 -0.7437
 9842SOL    HW132064   5.302   7.269   8.266  0.6291 -0.5017 -2.1431
 9842SOL    HW232065   5.218   7.395   8.274 -1.0208 -1.7334  0.5250
 9843SOL     OW32066   2.074   8.515   1.969  0.1356  0.1791 -0.3474
 9843SOL    HW132067   2.102   8.424   1.962 -0.2485 -0.0400  0.9065
 9843SOL    HW232068   2.057   8.528   2.062  1.2851  1.8651 -0.3584
 9844SOL     OW32069   3.442   3.818   1.951 -0.1107  0.0761 -0.3391
 9844SOL    HW132070   3.468   3.906   1.923  2.3659 -1.2447 -2.4269
 9844SOL    HW232071   3.461   3.816   2.044  2.4614  0.9240 -0.7976
 9845SOL     OW32072   6.380   1.509   8.027 -0.0893  0.4673 -0.8801
 9845SOL    HW132073   6.382   1.602   8.004 -0.4388  0.2113 -1.9687
 9845SOL    HW232074   6.385   1.508   8.122 -0.8929  1.6338 -0.8147
 9846SOL     OW32075   5.664   8.637   0.358 -0.3123  0.1482  0.0304
 9846SOL    HW132076   5.754   8.625   0.387 -0.4105  1.1615  0.7651
 9846SOL    HW232077   5.671   8.669   0.268  0.0569 -0.1474 -0.0419
 9847SOL     OW32078   3.545   3.700   0.947 -0.2113  0.3845 -0.1799
 9847SOL    HW132079   3.505   3.615   0.929  0.5395 -0.0641  0.2549
 9847SOL    HW232080   3.590   3.688   1.031 -1.9372  1.8393  0.9877
 9848SOL     OW32081   1.326   3.288   3.015  0.1882  0.6042 -0.6410
 9848SOL    HW132082   1.343   3.256   3.103 -2.0083  0.0059 -0.3980
 9848SOL    HW232083   1.388   3.241   2.959  0.1024 -0.6486  0.3048
 9849SOL     OW32084   7.988   3.813   2.544 -0.3321 -0.3100  0.1943
 9849SOL    HW132085   7.917   3.807   2.480  0.8906 -1.6329 -1.0794
 9849SOL    HW232086   7.945   3.806   2.629 -1.4998 -3.6291 -0.5989
 9850SOL     OW32087   4.313   9.073   4.815 -0.1397 -0.2943  0.0516
 9850SOL    HW132088   4.288   9.005   4.753 -0.3169  0.2786 -0.5115
 9850SOL    HW232089   4.408   9.079   4.807 -0.4225  2.0180 -2.5672
 9851SOL     OW32090   6.329   3.704   9.316 -0.0585  0.1572  0.3120
 9851SOL    HW132091   6.412   3.724   9.271 -0.5959  1.6137 -0.0616
 9851SOL    HW232092   6.345   3.729   9.407  0.1015 -0.0979  0.3533
 9852SOL     OW32093   7.595   4.866   6.203 -0.1064  0.0084  0.1529
 9852SOL    HW132094   7.604   4.801   6.273 -2.2265 -0.6929 -0.1785
 9852SOL    HW232095   7.651   4.833   6.133 -0.3303 -0.8977  0.3898
 9853SOL     OW32096   1.173   7.343   9.878  0.0195 -0.4167  0.0535
 9853SOL    HW132097   1.256   7.356   9.832 -0.2563 -0.8777 -0.5780
 9853SOL    HW232098   1.191   7.273   9.941  0.7964  1.2118  1.6737
 9854SOL     OW32099   9.768   5.389   3.277 -0.5536  0.1115  0.3882
 9854SOL    HW132100   9.675   5.388   3.298 -0.9308 -0.1007 -1.2315
 9854SOL    HW232101   9.805   5.457   3.333 -1.9217  1.0849  0.1262
 9855SOL     OW32102   8.994   0.029   9.786 -0.2331 -0.2568 -0.1758
 9855SOL    HW132103   9.079   0.036   9.829 -1.5506 -1.5656  2.7576
 9855SOL    HW232104   8.938   0.089   9.835 -1.3816 -0.5798 -1.0763
 9856SOL     OW32105   8.602   1.711   1.805 -0.6156 -0.3872 -0.0357
 9856SOL    HW132106   8.565   1.715   1.717 -1.1399  1.3192  0.2339
 9856SOL    HW232107   8.675   1.650   1.797 -1.5290 -1.3405 -1.3172
 9857SOL     OW32108   8.443   0.149   9.836 -0.5293 -0.1130  0.4599
 9857SOL    HW132109   8.525   0.123   9.877 -1.5409 -2.8654  0.8383
 9857SOL    HW232110   8.380   0.153   9.908 -0.9698  0.9871  0.0315
 9858SOL     OW32111  10.056   8.669   5.840 -0.0679 -0.3722  0.1147
 9858SOL    HW132112  10.091   8.664   5.929 -0.7023 -1.5284  0.3027
 9858SOL    HW232113  10.126   8.711   5.790  0.4095  0.0358  1.0918
 9859SOL     OW32114   3.918   7.808   7.506 -0.0384  0.2737 -0.2042
 9859SOL    HW132115   3.899   7.901   7.516  0.5053  0.4205 -0.5175
 9859SOL    HW232116   3.886   7.769   7.587  0.0449  0.7810  0.0788
 9860SOL     OW32117   2.571   5.840   8.669  0.2175 -0.6078 -0.2195
 9860SOL    HW132118   2.626   5.886   8.605  0.7687 -1.7489 -0.5758
 9860SOL    HW232119   2.608   5.863   8.754 -0.7788  1.2646 -0.2596
 9861SOL     OW32120   7.527   9.899   0.300 -0.0496 -0.2883  0.3817
 9861SOL    HW132121   7.549   9.986   0.334  2.2721 -1.0458  0.9064
 9861SOL    HW232122   7.489   9.853   0.375 -0.3060 -0.0829  0.3811
 9862SOL     OW32123   3.815   3.728   1.093  0.3969 -0.0669  0.4632
 9862SOL    HW132124   3.779   3.725   1.181  1.4458  0.3998  0.9203
 9862SOL    HW232125   3.805   3.639   1.059 -0.3576 -0.1493  0.9091
 9863SOL     OW32126   2.684   9.880   6.961 -0.1426 -0.6035 -0.5543
 9863SOL    HW132127   2.666   9.948   7.025  0.4585  1.0063 -2.0521
 9863SOL    HW232128   2.603   9.873   6.910 -0.2220 -1.0526 -0.3705
 9864SOL     OW32129   8.635   1.122   6.406  0.2201 -0.0679  0.5008
 9864SOL    HW132130   8.695   1.054   6.376 -0.7250 -0.8006  0.2709
 9864SOL    HW232131   8.664   1.142   6.495  2.6868  1.7300 -0.6342
 9865SOL     OW32132   8.336   9.188   4.797  0.2016  0.5596  0.1763
 9865SOL    HW132133   8.269   9.136   4.843 -0.5341  0.2237 -1.2466
 9865SOL    HW232134   8.286   9.250   4.744  1.0742  2.2297  1.2810
 9866SOL     OW32135   2.679   1.044   0.680  0.2622 -0.1768  0.0093
 9866SOL    HW132136   2.678   1.008   0.768 -1.0420 -3.2799 -1.1903
 9866SOL    HW232137   2.587   1.059   0.659  0.2232 -2.8336 -2.0418
 9867SOL     OW32138   3.764   5.784   2.153  0.1395 -0.3552  0.0864
 9867SOL    HW132139   3.732   5.700   2.185  0.0466 -0.5801 -0.5909
 9867SOL    HW232140   3.742   5.784   2.060  0.6545  0.1752 -0.0357
 9868SOL     OW32141   8.874   8.803   8.159  0.7338  0.1304 -0.4801
 9868SOL    HW132142   8.842   8.777   8.245  0.7488  0.0845 -0.4891
 9868SOL    HW232143   8.811   8.869   8.129  2.0341  1.8884  0.5660
 9869SOL     OW32144   1.859   4.443   7.881 -0.2253 -0.0185  0.0308
 9869SOL    HW132145   1.848   4.359   7.838 -1.1332  0.4122 -0.5823
 9869SOL    HW232146   1.786   4.448   7.943 -0.3379  0.4489 -0.1405
 9870SOL     OW32147   2.239   7.807   9.613 -0.0765 -0.2915 -0.0101
 9870SOL    HW132148   2.161   7.843   9.656  0.0089 -0.5916  0.3916
 9870SOL    HW232149   2.204   7.755   9.541 -0.2139  0.3272 -0.4016
 9871SOL     OW32150   9.449   3.623   9.937  0.2278 -0.1290  0.4991
 9871SOL    HW132151   9.431   3.703   9.888 -1.0910 -0.3372  0.6332
 9871SOL    HW232152   9.421   3.552   9.880  0.6546 -0.4622  0.6999
 9872SOL     OW32153   2.749   9.826   0.977 -0.1817 -0.0341  0.3264
 9872SOL    HW132154   2.703   9.836   0.894 -0.4586  0.1816  0.5083
 9872SOL    HW232155   2.746   9.912   1.017 -0.8285 -0.3466  0.9669
 9873SOL     OW32156   0.886   3.667   6.943  0.0259  0.3546  0.3954
 9873SOL    HW132157   0.837   3.602   6.893  0.2310 -0.4595  1.2612
 9873SOL    HW232158   0.974   3.629   6.952  0.6657  1.5461 -0.6546
 9874SOL     OW32159   0.781   9.121   6.594 -0.2871  0.3633 -0.3456
 9874SOL    HW132160   0.784   9.167   6.678 -1.3989 -1.0194  0.4847
 9874SOL    HW232161   0.693   9.139   6.560 -1.6457 -2.9566  1.1107
 9875SOL     OW32162   0.567   5.789   0.646  0.6186  0.1817 -0.1270
 9875SOL    HW132163   0.600   5.873   0.616  0.0782  0.6278  0.5153
 9875SOL    HW232164   0.627   5.762   0.716  0.7311  0.0801 -0.2619
 9876SOL     OW32165   8.172   8.657   1.237  0.4005  0.0673  0.6560
 9876SOL    HW132166   8.178   8.749   1.261  0.8662 -0.0042  0.8206
 9876SOL    HW232167   8.087   8.648   1.195  1.3169  1.0866 -1.5030
 9877SOL     OW32168   1.323   6.980   8.351  0.1886  0.3341 -0.1077
 9877SOL    HW132169   1.410   6.960   8.385  0.3379  1.8968  0.4577
 9877SOL    HW232170   1.278   6.895   8.347  1.3049 -0.2990  0.7915
 9878SOL     OW32171   2.772   1.146   1.946 -0.3171  0.5031  0.1297
 9878SOL    HW132172   2.745   1.238   1.941 -1.2308  0.2013 -0.8327
 9878SOL    HW232173   2.738   1.115   2.030 -1.4260  0.6160 -0.2659
 9879SOL     OW32174   4.258   9.016   1.451 -0.0968 -0.1622  0.4518
 9879SOL    HW132175   4.337   9.042   1.499 -0.0685 -0.7010  0.6965
 9879SOL    HW232176   4.291   8.971   1.373 -0.1480  0.5164  0.0233
 9880SOL     OW32177   0.550   2.081   8.860  0.4339 -0.0780 -0.2300
 9880SOL    HW132178   0.461   2.098   8.891  1.5185  0.6124  2.6995
 9880SOL    HW232179   0.559   1.986   8.862 -0.3235 -0.1634 -0.8227
 9881SOL     OW32180   6.411   5.894   2.298 -0.0718 -0.5673  0.2681
 9881SOL    HW132181   6.460   5.884   2.380 -1.9166  0.8935  1.6098
 9881SOL    HW232182   6.356   5.815   2.293 -1.8638  0.5295  1.8341
 9882SOL     OW32183   9.164   9.570   6.207 -0.3425 -0.0565 -0.2169
 9882SOL    HW132184   9.111   9.519   6.267 -0.4805  1.5847  1.0707
 9882SOL    HW232185   9.102   9.608   6.145 -0.3733 -0.2800 -0.3259
 9883SOL     OW32186   3.310   4.781   0.966  0.3261  0.3981 -0.3116
 9883SOL    HW132187   3.232   4.769   0.913  0.1334  1.0690 -0.1728
 9883SOL    HW232188   3.378   4.807   0.904 -0.1208  2.0775 -0.0973
 9884SOL     OW32189   3.683   8.154   9.918 -0.4945  0.0839 -0.3979
 9884SOL    HW132190   3.604   8.104   9.898  0.4216 -0.9386 -1.5679
 9884SOL    HW232191   3.748   8.088   9.942 -0.2549  0.9881  1.4871
 9885SOL     OW32192   7.026   3.806   0.415 -0.3890 -0.4102  0.3300
 9885SOL    HW132193   6.964   3.875   0.441  1.3979  1.7469 -0.9175
 9885SOL    HW232194   7.096   3.811   0.480  1.5756  1.5580 -1.8001
 9886SOL     OW32195  10.012   0.957   8.181 -0.3922 -0.7999  0.4775
 9886SOL    HW132196   9.995   0.869   8.213  1.5748 -1.2288  0.3965
 9886SOL    HW232197  10.031   1.008   8.259  2.8018 -1.4755  0.1953
 9887SOL     OW32198   9.401   9.227   5.855 -0.0551 -0.3115 -0.2178
 9887SOL    HW132199   9.432   9.181   5.933  1.3574 -0.2006 -0.7126
 9887SOL    HW232200   9.319   9.268   5.883 -0.3590 -1.5572  0.7635
 9888SOL     OW32201   3.097   6.756   1.199  0.0174  0.3288 -0.5215
 9888SOL    HW132202   3.101   6.818   1.271  1.7383 -0.8450  0.4207
 9888SOL    HW232203   3.011   6.771   1.160 -0.7635  1.2923  1.4831
 9889SOL     OW32204   9.878   5.869   5.440 -0.4958 -0.1566  0.0605
 9889SOL    HW132205   9.944   5.909   5.383 -1.1155  0.5954 -0.1413
 9889SOL    HW232206   9.924   5.799   5.485  1.3079  2.2616  2.1751
 9890SOL     OW32207   0.645   5.905   3.728  0.1836 -0.3045  0.2845
 9890SOL    HW132208   0.623   5.996   3.749  1.5382  0.3987 -1.2725
 9890SOL    HW232209   0.741   5.901   3.733  0.1689 -1.5308 -0.1464
 9891SOL     OW32210   6.419   4.133   5.122  0.0582  0.1623 -0.4457
 9891SOL    HW132211   6.387   4.158   5.036 -0.4001  1.6873  0.1521
 9891SOL    HW232212   6.341   4.120   5.175  0.2876 -2.2043 -0.6123
 9892SOL     OW32213   8.785   0.866   3.753  0.7092  0.3278 -0.2688
 9892SOL    HW132214   8.711   0.921   3.726  0.7102  0.3249 -0.2802
 9892SOL    HW232215   8.820   0.832   3.671  0.2925 -0.2280 -0.2171
 9893SOL     OW32216   8.164   3.901   4.056 -0.3746 -0.0950  0.1876
 9893SOL    HW132217   8.145   3.871   4.145 -0.1469  0.1020  0.3030
 9893SOL    HW232218   8.252   3.868   4.037 -0.0214  0.7195  0.4124
 9894SOL     OW32219   2.500   0.837   1.143  0.2463  0.1542  0.1446
 9894SOL    HW132220   2.432   0.864   1.205  0.5584 -1.0739  1.0254
 9894SOL    HW232221   2.579   0.880   1.174 -0.0064  1.1998 -0.6087
 9895SOL     OW32222   8.290   7.377   0.485 -0.6484 -0.0948  0.0902
 9895SOL    HW132223   8.202   7.341   0.469 -0.8174  1.0931 -1.8356
 9895SOL    HW232224   8.347   7.328   0.425 -0.2430  0.2008  0.2309
 9896SOL     OW32225   6.013   7.561   7.713  0.0732  0.8580 -0.3016
 9896SOL    HW132226   6.088   7.512   7.681 -0.2538  1.2895 -1.7847
 9896SOL    HW232227   5.950   7.494   7.739  0.7266  0.4959  0.3498
 9897SOL     OW32228   4.805   5.572   5.656  0.3252 -0.5604 -0.3463
 9897SOL    HW132229   4.749   5.642   5.688  0.8483 -0.3463  0.1103
 9897SOL    HW232230   4.811   5.511   5.730  0.4523 -0.7326 -0.4990
 9898SOL     OW32231   0.190   3.524   8.334 -0.4737 -0.1217  0.5277
 9898SOL    HW132232   0.221   3.551   8.421  0.7964 -0.0865  0.0723
 9898SOL    HW232233   0.116   3.582   8.316  1.1724  1.9575  0.2744
 9899SOL     OW32234   5.362   9.099   2.967  0.0078  0.1747  0.7539
 9899SOL    HW132235   5.338   9.152   3.043 -1.3918  1.6676 -0.6935
 9899SOL    HW232236   5.280   9.086   2.920  0.3095 -3.3469  1.0559
 9900SOL     OW32237   7.972   2.808   4.316  1.1530 -0.0710 -0.4316
 9900SOL    HW132238   7.943   2.824   4.226 -1.6106  3.0958  0.9141
 9900SOL    HW232239   7.936   2.723   4.339  0.3632 -0.0931 -1.7139
 9901SOL     OW32240   6.196   7.885   5.838 -0.1908  0.3367  0.1016
 9901SOL    HW132241   6.102   7.867   5.836 -0.2303  0.4138  1.2116
 9901SOL    HW232242   6.222   7.870   5.929  1.5182 -2.9419 -0.8528
 9902SOL     OW32243   7.805   4.921   7.764 -0.2607 -0.1434 -0.6281
 9902SOL    HW132244   7.879   4.863   7.750 -0.0344 -0.2273  0.8268
 9902SOL    HW232245   7.804   4.977   7.687  1.1291 -0.3533 -0.8140
 9903SOL     OW32246   9.806   1.151   7.158 -0.1899 -0.3396 -0.8919
 9903SOL    HW132247   9.721   1.188   7.182  0.8039  1.4891 -0.0963
 9903SOL    HW232248   9.791   1.056   7.155 -1.5478 -0.2651  2.1055
 9904SOL     OW32249   8.922  10.076   2.979 -0.1393  0.4161  0.6797
 9904SOL    HW132250   8.969  10.098   2.898  0.1626  0.9137  0.9872
 9904SOL    HW232251   8.842  10.129   2.976 -0.9837 -0.8690 -0.1284
 9905SOL     OW32252   1.102   9.679   2.202 -0.0663 -0.0820  0.3512
 9905SOL    HW132253   1.020   9.715   2.236 -0.0343  0.6991 -0.3684
 9905SOL    HW232254   1.085   9.665   2.109  0.3480 -0.7086  0.3699
 9906SOL     OW32255   0.403   1.140   8.430  0.7842  0.0530 -0.1324
 9906SOL    HW132256   0.483   1.192   8.422  0.5469  0.3214 -0.7988
 9906SOL    HW232257   0.367   1.138   8.341  1.6045 -2.5599 -0.4328
 9907SOL     OW32258   8.838   5.087   1.942  0.2889 -1.2489  0.5459
 9907SOL    HW132259   8.835   5.046   2.029  0.6334 -0.0529  1.1439
 9907SOL    HW232260   8.820   5.180   1.960 -0.4888 -1.1354 -0.7697
 9908SOL     OW32261   9.686   3.158   7.166  0.0125  0.5778 -0.3920
 9908SOL    HW132262   9.745   3.227   7.136  0.2788  0.4462 -0.1681
 9908SOL    HW232263   9.743   3.086   7.191 -0.2332  0.5155  0.0020
 9909SOL     OW32264   3.800   8.688   1.539  0.3534 -0.3676  0.1074
 9909SOL    HW132265   3.862   8.755   1.510 -1.3259  0.7597 -0.9739
 9909SOL    HW232266   3.851   8.632   1.598  2.2927  0.7203 -0.4942
 9910SOL     OW32267   7.261   2.280   9.976 -0.3957 -0.0529 -0.4890
 9910SOL    HW132268   7.261   2.292   9.881  1.1121 -1.9840 -0.7517
 9910SOL    HW232269   7.194   2.341  10.007  1.6638  3.4053 -2.4228
 9911SOL     OW32270   5.390   0.692   6.892 -0.1548  0.3807  0.8605
 9911SOL    HW132271   5.393   0.609   6.939  1.4083  0.2038  0.5051
 9911SOL    HW232272   5.439   0.753   6.947  2.1142  0.0416 -0.7249
 9912SOL     OW32273   8.697   3.756   5.037  0.5645  0.3950 -0.3792
 9912SOL    HW132274   8.732   3.834   4.995  0.5052  0.2050 -0.7825
 9912SOL    HW232275   8.771   3.720   5.086  0.6105  0.6645 -0.2532
 9913SOL     OW32276   4.414   6.164   8.597 -0.2547 -0.4684  0.2502
 9913SOL    HW132277   4.488   6.225   8.598 -1.7021  1.3635  1.9517
 9913SOL    HW232278   4.448   6.083   8.633  0.3128  1.1970  3.6712
 9914SOL     OW32279   1.532   4.117   8.828 -0.2483  0.2477  0.3148
 9914SOL    HW132280   1.489   4.199   8.804 -0.1733  0.1468 -0.1794
 9914SOL    HW232281   1.534   4.067   8.746  1.3774  0.5114  0.1775
 9915SOL     OW32282   3.635   0.108   3.669 -0.0341 -0.4561  0.3711
 9915SOL    HW132283   3.658   0.129   3.578 -0.2534  0.5799  0.5436
 9915SOL    HW232284   3.620   0.013   3.669 -0.3044 -0.4191 -0.7360
 9916SOL     OW32285   5.563   4.096   3.542  0.3127 -0.4849  0.2855
 9916SOL    HW132286   5.646   4.098   3.494 -0.2619  1.2099 -0.6387
 9916SOL    HW232287   5.589   4.081   3.633  1.5763 -0.7360 -0.1084
 9917SOL     OW32288   7.450   0.252   1.389 -0.4214 -0.7340 -0.3249
 9917SOL    HW132289   7.479   0.232   1.300 -1.5275 -1.3585 -0.5549
 9917SOL    HW232290   7.417   0.342   1.383  1.1745 -0.1291 -0.1279
 9918SOL     OW32291   0.665   7.824   3.192 -0.1047  0.4477  0.2850
 9918SOL    HW132292   0.694   7.742   3.234 -3.3846 -1.6140 -1.2550
 9918SOL    HW232293   0.729   7.838   3.122  0.2803 -1.0728  0.2946
 9919SOL     OW32294   0.172   9.011   1.803  0.1725  0.1618 -0.8632
 9919SOL    HW132295   0.216   8.952   1.865  0.2966  0.8872 -0.2489
 9919SOL    HW232296   0.123   8.953   1.745 -0.9029 -0.4697  0.6579
 9920SOL     OW32297   9.895   3.631   1.963 -0.1313  0.6157 -0.5130
 9920SOL    HW132298   9.856   3.612   2.049 -1.7907 -0.0060 -1.3855
 9920SOL    HW232299   9.893   3.726   1.957 -2.3340  0.5729 -0.8938
 9921SOL     OW32300   8.379   9.933   3.932 -0.2260  0.0625 -0.6110
 9921SOL    HW132301   8.437   9.913   3.858 -0.5160  1.9591 -1.3740
 9921SOL    HW232302   8.434   9.983   3.992 -0.9949  1.6779 -1.2365
 9922SOL     OW32303   2.310   8.255   3.799 -0.2531  0.0976 -0.8493
 9922SOL    HW132304   2.327   8.213   3.715 -0.2121 -1.6022 -0.0133
 9922SOL    HW232305   2.390   8.303   3.819 -0.2411  0.4497 -1.7431
 9923SOL     OW32306   3.888   2.628   1.608  0.2728  0.0123  0.1090
 9923SOL    HW132307   3.799   2.623   1.574 -0.0317  1.0894  0.7407
 9923SOL    HW232308   3.941   2.650   1.532  0.1425 -1.5717 -0.4607
 9924SOL     OW32309   0.071   8.012   1.217 -0.2316 -0.0215 -0.5380
 9924SOL    HW132310   0.002   8.077   1.201 -1.5163 -0.7672  1.8379
 9924SOL    HW232311   0.146   8.046   1.168 -1.9513  1.3606 -2.3035
 9925SOL     OW32312   3.396   2.761   3.386 -0.4791 -0.6008 -0.3115
 9925SOL    HW132313   3.421   2.677   3.423 -0.3898 -0.6685 -0.5237
 9925SOL    HW232314   3.374   2.815   3.462  0.9366 -0.3387 -0.0752
 9926SOL     OW32315   2.334   2.160   0.791  0.5907  0.3769  0.9253
 9926SOL    HW132316   2.316   2.144   0.884  0.7755 -2.9127  0.4622
 9926SOL    HW232317   2.260   2.119   0.745 -0.5687  3.7393 -0.3836
 9927SOL     OW32318   7.564   1.181   2.121 -0.0418 -0.1140 -0.2577
 9927SOL    HW132319   7.511   1.106   2.094 -0.8995  0.5727 -0.4993
 9927SOL    HW232320   7.654   1.155   2.101 -0.3777 -0.8626 -0.8245
 9928SOL     OW32321   8.713   4.164   9.086 -0.6692  0.0898  0.4007
 9928SOL    HW132322   8.789   4.106   9.092 -0.0780  0.9104  0.9375
 9928SOL    HW232323   8.696   4.173   8.993 -0.3063 -0.3465  0.2932
 9929SOL     OW32324   2.022   5.182   6.483 -0.5016  0.1444 -0.2871
 9929SOL    HW132325   1.987   5.242   6.416  0.1441  0.1017 -0.6659
 9929SOL    HW232326   1.980   5.210   6.564 -0.7682  0.6396 -0.5908
 9930SOL     OW32327   2.891   1.029   1.367  0.9769  0.6641 -0.8606
 9930SOL    HW132328   2.878   1.124   1.369  1.9242  0.8283 -2.1293
 9930SOL    HW232329   2.968   1.016   1.311  2.2915 -0.7006  1.2062
 9931SOL     OW32330   7.861   2.040  10.016 -0.2172 -0.5290  0.0480
 9931SOL    HW132331   7.827   2.129  10.010  0.5543 -0.2860 -0.8886
 9931SOL    HW232332   7.876   2.026  10.109 -0.6702  0.1930  0.2327
 9932SOL     OW32333   3.543   5.355   7.994  0.6224 -0.0712 -0.0144
 9932SOL    HW132334   3.518   5.302   7.919 -2.2827 -0.2987  1.0634
 9932SOL    HW232335   3.555   5.443   7.959 -1.0173 -0.1090 -0.7101
 9933SOL     OW32336   1.966   7.518   2.730 -0.1494 -0.4303  0.4223
 9933SOL    HW132337   1.966   7.555   2.818  2.1573  1.4294 -0.3149
 9933SOL    HW232338   2.016   7.437   2.738  0.3073 -0.1150  0.7433
 9934SOL     OW32339   9.615   7.156   3.501  0.3630  0.5645 -0.5155
 9934SOL    HW132340   9.551   7.177   3.433 -0.4324 -2.0416 -0.6210
 9934SOL    HW232341   9.605   7.226   3.566 -0.4128  1.8601 -1.9917
 9935SOL     OW32342   1.268   5.240   9.312  0.1839  0.1889 -0.1353
 9935SOL    HW132343   1.287   5.299   9.385  1.2203 -1.0590  0.6217
 9935SOL    HW232344   1.220   5.168   9.352 -0.6807  0.2952 -0.9786
 9936SOL     OW32345   9.537   7.825  10.165 -0.3661 -0.0514  0.6157
 9936SOL    HW132346   9.589   7.857  10.092  0.0012  1.0279  1.3345
 9936SOL    HW232347   9.507   7.739  10.137  0.6440 -0.0957 -0.3770
 9937SOL     OW32348   0.500   6.110   3.264 -0.2723  0.8102  0.3757
 9937SOL    HW132349   0.542   6.077   3.343 -0.0830 -1.1791 -0.5186
 9937SOL    HW232350   0.410   6.129   3.289 -1.1629 -2.9494  0.3522
 9938SOL     OW32351   8.831   6.352   0.133  0.2519 -0.1190  0.0825
 9938SOL    HW132352   8.786   6.381   0.212  0.1627 -1.7751  0.6628
 9938SOL    HW232353   8.783   6.274   0.106  1.5775 -0.7815 -0.4044
 9939SOL     OW32354   1.199   2.524   7.691 -0.0754  0.0659  0.4052
 9939SOL    HW132355   1.222   2.590   7.758 -0.4941  0.6991 -0.0648
 9939SOL    HW232356   1.189   2.575   7.611  0.5979 -0.7207 -0.1829
 9940SOL     OW32357   8.147   1.925   1.432 -0.1311  0.7288 -0.3870
 9940SOL    HW132358   8.156   1.891   1.521  1.1578 -2.9712 -1.8558
 9940SOL    HW232359   8.234   1.915   1.394 -1.0727  0.7337 -2.5828
 9941SOL     OW32360   8.334  10.000   3.545 -0.1683 -0.9197 -0.3457
 9941SOL    HW132361   8.392   9.985   3.471 -0.3208  1.5971 -1.0136
 9941SOL    HW232362   8.393  10.006   3.621  0.2416 -0.6104 -0.6878
 9942SOL     OW32363   3.323   4.108   1.111 -0.1378  0.3337  0.2352
 9942SOL    HW132364   3.286   4.046   1.049  0.4270  1.0490 -0.8342
 9942SOL    HW232365   3.407   4.071   1.135 -1.6541 -1.5015  2.9845
 9943SOL     OW32366   7.340   9.225   7.015  0.0466  0.3380  0.1226
 9943SOL    HW132367   7.296   9.266   6.940 -0.0411  0.0019 -0.0087
 9943SOL    HW232368   7.382   9.298   7.061 -1.7791  0.8396  1.0216
 9944SOL     OW32369   5.981   7.823   3.936 -0.1991  0.0319 -0.2385
 9944SOL    HW132370   5.984   7.824   3.840  2.6951  0.5305 -0.1749
 9944SOL    HW232371   5.888   7.837   3.957 -1.2118 -2.1233 -2.9576
 9945SOL     OW32372   9.795   4.223   2.844 -0.0367 -0.3110  0.3159
 9945SOL    HW132373   9.813   4.291   2.908 -0.3848 -1.4545  1.6468
 9945SOL    HW232374   9.861   4.237   2.775 -1.1561  2.3702 -0.2681
 9946SOL     OW32375   0.619   4.774   9.794 -0.0999  0.6510  0.1501
 9946SOL    HW132376   0.633   4.680   9.779 -0.2262  0.4796  1.0505
 9946SOL    HW232377   0.541   4.794   9.742 -0.6486  0.0333  0.7219
 9947SOL     OW32378   1.521   4.317   0.495 -0.0045 -0.4463 -0.5319
 9947SOL    HW132379   1.592   4.256   0.517 -0.3579 -0.7474 -0.2188
 9947SOL    HW232380   1.485   4.281   0.414 -0.5946 -0.9910 -0.0326
 9948SOL     OW32381   5.426   3.509   7.741  0.6414 -0.2672 -0.1065
 9948SOL    HW132382   5.496   3.447   7.760  1.2064  0.7117  1.0257
 9948SOL    HW232383   5.467   3.576   7.686  0.3267 -0.2277 -0.3001
 9949SOL     OW32384   8.604   0.892   5.599  0.0164 -0.0937 -0.2637
 9949SOL    HW132385   8.512   0.891   5.626 -0.3529  1.2678 -1.4062
 9949SOL    HW232386   8.602   0.929   5.510  1.3840 -2.7093 -1.4327
 9950SOL     OW32387  10.056   9.996   5.733 -0.0641  0.3074  0.1806
 9950SOL    HW132388  10.104  10.071   5.697 -0.1249  0.0435 -0.4690
 9950SOL    HW232389   9.973   9.996   5.685  1.1091 -1.9310 -2.0018
 9951SOL     OW32390   3.833   6.543   2.249  0.2312 -0.2055 -0.4198
 9951SOL    HW132391   3.751   6.590   2.235  1.0617  0.8866 -1.8601
 9951SOL    HW232392   3.899   6.598   2.206  1.7817 -0.8118  1.1349
 9952SOL     OW32393   8.546   0.179   4.183 -0.3197 -0.2534  0.2799
 9952SOL    HW132394   8.454   0.199   4.197  0.0325  1.4798  0.3059
 9952SOL    HW232395   8.570   0.230   4.105  0.9160  0.2953  1.0048
 9953SOL     OW32396   4.166   7.443   0.837  0.5519  0.0070 -0.6630
 9953SOL    HW132397   4.127   7.531   0.840 -0.5518 -0.4297 -1.8702
 9953SOL    HW232398   4.132   7.400   0.915  1.2387  0.7053  0.0316
 9954SOL     OW32399   1.754   4.602  10.184  0.1939 -0.4554  0.3028
 9954SOL    HW132400   1.706   4.676  10.146  2.8312  1.3872  0.4173
 9954SOL    HW232401   1.772   4.544  10.110  0.4569  0.3708 -0.2828
 9955SOL     OW32402   2.656  10.007   3.169 -0.4474  0.4990 -0.3297
 9955SOL    HW132403   2.750  10.016   3.151 -0.2410  0.7367  0.8043
 9955SOL    HW232404   2.651  10.005   3.264 -1.5839  0.2749 -0.3952
 9956SOL     OW32405   2.208   2.375   1.783  0.0208  0.5222  0.0004
 9956SOL    HW132406   2.203   2.408   1.873  1.1388  0.9903 -0.1092
 9956SOL    HW232407   2.150   2.298   1.783  1.5251 -0.6590  1.6486
 9957SOL     OW32408   6.180   5.857   6.564 -0.2589 -0.0123 -0.3555
 9957SOL    HW132409   6.159   5.815   6.647 -0.2995 -0.2049 -0.4627
 9957SOL    HW232410   6.208   5.786   6.507  0.4946  0.2149 -0.2759
 9958SOL     OW32411   8.426   2.922   3.684  0.2509 -0.2353  0.4272
 9958SOL    HW132412   8.416   2.942   3.591  0.6593 -1.1127  0.1871
 9958SOL    HW232413   8.469   2.836   3.685 -2.9973 -1.9331  1.3826
 9959SOL     OW32414   7.218   6.887   7.555  0.0609 -0.1909 -0.3172
 9959SOL    HW132415   7.280   6.839   7.500 -0.7265  0.3161 -1.6797
 9959SOL    HW232416   7.133   6.869   7.516 -0.7907 -1.7080  2.1587
 9960SOL     OW32417   0.445   0.845   0.330  0.0372  0.4599  0.5486
 9960SOL    HW132418   0.393   0.825   0.407 -0.4882  1.6500  0.5045
 9960SOL    HW232419   0.388   0.824   0.256  0.6142 -0.8806  0.4687
 9961SOL     OW32420   2.931   7.667   5.830 -0.2273  0.3843 -0.0126
 9961SOL    HW132421   2.974   7.601   5.776 -2.4742 -1.5160  0.3887
 9961SOL    HW232422   2.915   7.740   5.771  1.5097  0.2197 -0.7082
 9962SOL     OW32423   2.607   7.069   0.531  0.0357 -0.5066  0.5848
 9962SOL    HW132424   2.574   7.079   0.442  0.1293 -0.7453  0.5242
 9962SOL    HW232425   2.562   7.137   0.581  1.7125  1.1782 -0.1216
 9963SOL     OW32426   6.202   9.632   0.566 -0.2350  0.6898  0.2249
 9963SOL    HW132427   6.191   9.591   0.480  1.3387 -2.1902  1.3191
 9963SOL    HW232428   6.134   9.592   0.620  0.6969  0.2238  1.0670
 9964SOL     OW32429   7.559   6.402   5.048 -0.4387 -0.0660 -0.0749
 9964SOL    HW132430   7.641   6.367   5.084 -0.0719  0.9520  0.0775
 9964SOL    HW232431   7.490   6.350   5.091  0.1224 -1.1282 -0.4289
 9965SOL     OW32432   4.258   2.723   0.581 -0.6679 -0.3467  0.2135
 9965SOL    HW132433   4.211   2.730   0.499  0.3123  3.1437 -0.1107
 9965SOL    HW232434   4.329   2.661   0.563 -0.0426  0.9116 -1.7834
 9966SOL     OW32435   5.691   4.521   1.505  0.2860  0.0045 -0.4127
 9966SOL    HW132436   5.703   4.506   1.599  0.4771  1.9467 -0.0918
 9966SOL    HW232437   5.632   4.596   1.501  0.1222 -0.1879 -1.8585
 9967SOL     OW32438   2.929   5.843   3.696 -0.0069 -0.1358 -0.0539
 9967SOL    HW132439   3.000   5.906   3.709 -1.5082  1.3225  1.3386
 9967SOL    HW232440   2.852   5.897   3.678 -1.3772 -1.5264  1.4051
 9968SOL     OW32441   8.988   7.570   7.903  0.1079 -0.7239  0.9508
 9968SOL    HW132442   8.925   7.509   7.865 -1.2398  1.3404 -0.2425
 9968SOL    HW232443   9.063   7.568   7.843 -0.6587  0.0536 -0.0630
 9969SOL     OW32444   4.106   7.631   7.768 -0.0924 -0.2427  0.0889
 9969SOL    HW132445   4.146   7.614   7.853  2.1643 -0.6503 -1.0236
 9969SOL    HW232446   4.125   7.552   7.716  1.6696  1.4296 -1.9147
 9970SOL     OW32447   7.493   8.012   8.511 -0.0388  0.9528  0.8151
 9970SOL    HW132448   7.426   7.950   8.484  0.5449  1.1671 -1.2634
 9970SOL    HW232449   7.459   8.097   8.484  0.5710  1.1737  0.7366
 9971SOL     OW32450   0.088   0.697   5.171  0.4552  0.2293  0.1463
 9971SOL    HW132451   0.138   0.618   5.190  0.2851 -0.2614 -1.3220
 9971SOL    HW232452   0.149   0.753   5.122  0.3213  0.6545  0.4652
 9972SOL     OW32453   3.287   8.096   9.120  0.5832  0.2832 -0.0006
 9972SOL    HW132454   3.328   8.141   9.047  1.2302 -0.9615 -0.4180
 9972SOL    HW232455   3.286   8.161   9.191  1.9832  0.7880 -0.4200
 9973SOL     OW32456   5.165   1.713   5.655  0.1637 -0.2225 -0.0410
 9973SOL    HW132457   5.213   1.718   5.572 -0.6858 -3.3620 -0.7856
 9973SOL    HW232458   5.234   1.718   5.722  1.1685 -0.7474 -1.0105
 9974SOL     OW32459   6.981   6.226   0.441  0.2577  0.2218  0.3496
 9974SOL    HW132460   7.074   6.209   0.427  0.3920  0.6978  0.6267
 9974SOL    HW232461   6.978   6.276   0.522 -0.3284 -0.6802  0.8949
 9975SOL     OW32462   9.826   1.874   0.824  0.4420  0.9344  0.1577
 9975SOL    HW132463   9.793   1.927   0.896  0.9677  1.3655  0.0830
 9975SOL    HW232464   9.796   1.919   0.745 -0.8266  0.0254  0.0993
 9976SOL     OW32465   9.051   3.169   2.255 -0.2945  0.3896  0.5837
 9976SOL    HW132466   8.970   3.220   2.258  0.0504  0.8836  2.2634
 9976SOL    HW232467   9.119   3.231   2.282  0.5729 -0.1593 -0.3104
 9977SOL     OW32468   1.032   1.767   2.438 -0.1635  0.2320 -0.5543
 9977SOL    HW132469   1.022   1.856   2.405  2.5791  1.1662  0.9863
 9977SOL    HW232470   1.036   1.777   2.533  1.9469 -1.3140 -0.4441
 9978SOL     OW32471   4.938   6.635   7.434 -0.0046 -0.0565  0.1463
 9978SOL    HW132472   4.873   6.705   7.436  0.0124 -0.0006 -0.9374
 9978SOL    HW232473   4.959   6.625   7.342 -1.1837 -2.5958  0.1211
 9979SOL     OW32474   1.573   2.284   1.280  0.3018  0.4022 -0.1508
 9979SOL    HW132475   1.578   2.320   1.191 -0.4465 -0.2719 -0.4716
 9979SOL    HW232476   1.510   2.212   1.273  1.0830 -0.3742  0.6878
 9980SOL     OW32477   8.386   2.325   2.304  0.7471  0.2010  0.1709
 9980SOL    HW132478   8.308   2.276   2.330  0.0995 -0.0079 -2.0398
 9980SOL    HW232479   8.414   2.283   2.222  2.0069  1.5590 -0.1206
 9981SOL     OW32480   2.502   5.044   5.663  0.3661  0.3798 -0.4896
 9981SOL    HW132481   2.542   5.110   5.719 -1.1878 -0.6371  1.9169
 9981SOL    HW232482   2.563   4.970   5.666  0.1897  0.2514  0.0533
 9982SOL     OW32483   3.928   4.563   4.944 -0.2435  0.3433 -0.1909
 9982SOL    HW132484   3.939   4.473   4.976 -0.9477 -0.3065 -1.7267
 9982SOL    HW232485   3.875   4.606   5.011  0.8233 -0.1108  0.9932
 9983SOL     OW32486   3.302   6.156   3.342  0.1241  0.0676 -0.1857
 9983SOL    HW132487   3.339   6.101   3.411  0.7001 -1.5421 -1.7444
 9983SOL    HW232488   3.375   6.210   3.313  0.7612 -1.6227 -1.8120
 9984SOL     OW32489   7.157   8.258   9.243 -0.2068  0.3363 -0.2648
 9984SOL    HW132490   7.181   8.181   9.294  1.0148  1.0370  0.2375
 9984SOL    HW232491   7.068   8.240   9.212  0.3380 -1.5949 -0.7705
 9985SOL     OW32492   0.093   0.405   2.631  0.1393 -0.1971 -0.1933
 9985SOL    HW132493   0.029   0.381   2.564  0.4171 -1.4451 -0.0218
 9985SOL    HW232494   0.098   0.328   2.688  1.4215  0.0712  0.0773
 9986SOL     OW32495   5.405   4.872   1.947 -0.2507 -0.3076 -0.0863
 9986SOL    HW132496   5.487   4.838   1.912 -0.8092  0.5982 -2.3355
 9986SOL    HW232497   5.427   4.961   1.976 -0.2827 -0.3310  0.0131
 9987SOL     OW32498   5.793   7.743   6.035  0.2000  0.0078  0.4393
 9987SOL    HW132499   5.835   7.667   6.074 -0.1262  0.9531  2.6865
 9987SOL    HW232500   5.700   7.721   6.031  0.2620 -0.1746 -0.0193
 9988SOL     OW32501   0.744   7.984   3.987 -0.3576 -0.5732 -0.3155
 9988SOL    HW132502   0.675   7.969   3.922 -1.0836  1.3187  0.0025
 9988SOL    HW232503   0.698   8.000   4.069  0.4470  0.5372 -0.0661
 9989SOL     OW32504   6.689   5.429   0.733 -0.7015  0.7749 -0.0931
 9989SOL    HW132505   6.750   5.414   0.805 -0.4284 -0.1077 -0.4995
 9989SOL    HW232506   6.672   5.342   0.697  0.9766  1.4241 -2.5604
 9990SOL     OW32507   1.067   4.820   3.466  0.3853 -0.0182 -0.5524
 9990SOL    HW132508   1.043   4.730   3.489  0.7196 -0.4893 -1.9960
 9990SOL    HW232509   1.033   4.832   3.378  0.3609  1.2766 -0.3743
 9991SOL     OW32510   3.773   7.570   2.185 -0.3811 -0.1544  0.3425
 9991SOL    HW132511   3.789   7.585   2.278  0.0708 -0.2351  0.2774
 9991SOL    HW232512   3.857   7.587   2.143  0.2363 -3.1718  0.2944
 9992SOL     OW32513   6.374   6.578   1.005  0.4988 -0.3045 -0.4901
 9992SOL    HW132514   6.337   6.539   1.084  0.7356 -0.3468 -0.3978
 9992SOL    HW232515   6.365   6.510   0.938  2.2494 -1.0992  0.0297
 9993SOL     OW32516   4.217   7.750   3.519 -0.1273 -0.0121 -0.2413
 9993SOL    HW132517   4.132   7.760   3.563 -0.1384  1.2697 -0.5303
 9993SOL    HW232518   4.259   7.677   3.565 -1.7060 -1.1935 -0.6243
 9994SOL     OW32519   5.433   0.179  10.124  0.3117  0.3660  0.2563
 9994SOL    HW132520   5.377   0.235  10.177 -0.1420  1.2802 -1.1557
 9994SOL    HW232521   5.385   0.096  10.119 -0.6330  0.9396 -0.4176
 9995SOL     OW32522   9.291   6.926   6.741 -0.1164  0.2095 -0.3448
 9995SOL    HW132523   9.226   6.995   6.753 -1.5967 -1.1107 -0.5521
 9995SOL    HW232524   9.239   6.847   6.722  1.4501 -1.3322  1.5774
 9996SOL     OW32525   2.201   5.293  10.187  0.2548  0.2439 -0.0883
 9996SOL    HW132526   2.293   5.282  10.165  0.2450  1.3361 -0.7528
 9996SOL    HW232527   2.199   5.298  10.282  0.9472  0.6408 -0.0865
 9997SOL     OW32528   4.653   7.058   4.318 -0.2123  0.4916 -0.0385
 9997SOL    HW132529   4.566   7.077   4.282 -0.1539 -1.0946 -1.0621
 9997SOL    HW232530   4.669   7.130   4.379 -2.1857  0.8963  0.0613
 9998SOL     OW32531   7.721   7.629   5.993  0.6898 -0.2642  0.4543
 9998SOL    HW132532   7.764   7.662   5.914 -0.3150 -0.3944 -0.1678
 9998SOL    HW232533   7.721   7.534   5.982 -0.9112 -0.2177 -0.2087
 9999SOL     OW32534   3.017   3.337   5.904 -0.2665  0.4938 -0.6590
 9999SOL    HW132535   3.092   3.362   5.850  0.3321 -1.2683 -0.6609
 9999SOL    HW232536   2.990   3.419   5.945  0.6867  1.4427 -1.8549
10000SOL     OW32537   7.401   6.491   7.023 -0.0776 -0.5371  0.9708
10000SOL    HW132538   7.450   6.564   6.987 -0.8641  0.5747  2.1145
10000SOL    HW232539   7.387   6.515   7.115 -0.9904 -1.7792  1.1630
10001SOL     OW32540   5.163   6.771   6.164  0.0308  0.2610  0.6010
10001SOL    HW132541   5.102   6.795   6.094 -0.2758 -0.2021  0.7057
10001SOL    HW232542   5.205   6.691   6.131 -0.9045 -0.5818  1.4117
10002SOL     OW32543  10.023   6.135   0.649 -0.1321  0.1841  0.5314
10002SOL    HW132544  10.087   6.172   0.588 -0.3463  0.2651  0.3576
10002SOL    HW232545   9.992   6.056   0.606 -0.5812  0.4575  0.3568
10003SOL     OW32546   4.755   4.917   4.211 -0.6128  0.3561 -0.2748
10003SOL    HW132547   4.724   4.873   4.291  0.5049 -0.3290 -0.2137
10003SOL    HW232548   4.790   4.847   4.157  0.4823  1.0663 -0.5028
10004SOL     OW32549   6.129   9.435   7.609  0.1817 -1.2078  0.2470
10004SOL    HW132550   6.131   9.342   7.632  0.3895 -0.7833  1.9600
10004SOL    HW232551   6.178   9.440   7.526 -0.7399 -2.7679 -0.4059
10005SOL     OW32552   0.921   4.487   8.571  0.0716 -0.0764  0.0442
10005SOL    HW132553   0.861   4.460   8.501  0.4939 -1.2556  0.1210
10005SOL    HW232554   0.974   4.409   8.588  0.5615  0.4741  1.0715
10006SOL     OW32555   0.131   9.938   3.170  0.4726  0.2251 -0.1284
10006SOL    HW132556   0.088   9.853   3.172 -1.0797  1.0182  1.0503
10006SOL    HW232557   0.224   9.918   3.182  0.3596 -1.4278 -1.7780
10007SOL     OW32558   5.627   8.288   7.000  0.4567 -0.3446  0.0771
10007SOL    HW132559   5.712   8.313   7.037 -0.1116 -0.6351  1.6361
10007SOL    HW232560   5.603   8.208   7.048 -0.4161 -0.6187 -0.7861
10008SOL     OW32561   6.585   3.495   5.129  0.3598 -0.5173 -0.1211
10008SOL    HW132562   6.589   3.572   5.185  0.0850 -0.7854  0.2648
10008SOL    HW232563   6.545   3.427   5.183  0.2459 -0.8227 -0.5825
10009SOL     OW32564   1.940   3.741   2.539 -0.4840  0.0818 -0.7356
10009SOL    HW132565   1.884   3.664   2.550 -0.8220  0.3195 -0.7813
10009SOL    HW232566   2.029   3.706   2.532 -0.5500 -0.2458  0.0459
10010SOL     OW32567   6.578   9.401   2.295 -0.5519 -0.0521  0.3716
10010SOL    HW132568   6.583   9.313   2.333  0.5836 -0.5640 -0.9179
10010SOL    HW232569   6.540   9.387   2.208  1.0681  0.5324 -0.4480
10011SOL     OW32570   8.550   9.017   0.501 -0.3469  0.3304 -0.0341
10011SOL    HW132571   8.564   8.940   0.447 -0.1482  0.3051  0.0528
10011SOL    HW232572   8.637   9.056   0.510 -0.4663  0.6287 -0.1740
10012SOL     OW32573   7.058   2.922   0.710  0.0707 -0.0322 -0.3187
10012SOL    HW132574   6.975   2.967   0.695 -0.1872 -0.7299 -0.9940
10012SOL    HW232575   7.119   2.992   0.733 -0.3288  0.6654 -1.3443
10013SOL     OW32576   1.389   6.472   4.973  0.1579  0.2971 -0.0519
10013SOL    HW132577   1.424   6.546   5.023  0.6401  0.7593 -1.0760
10013SOL    HW232578   1.294   6.476   4.987  0.2826  0.4408  0.7962
10014SOL     OW32579   6.364   3.571   3.439  0.7614 -0.3141 -0.3258
10014SOL    HW132580   6.440   3.567   3.497 -0.9252  1.7539  2.1657
10014SOL    HW232581   6.301   3.626   3.486 -1.5209 -0.3412 -3.1989
10015SOL     OW32582   9.963   4.249   1.000 -0.4695 -0.1107  0.1019
10015SOL    HW132583   9.890   4.188   0.987 -1.5736  0.8378  1.8604
10015SOL    HW232584  10.023   4.202   1.057 -1.9364  0.9109  2.5450
10016SOL     OW32585   6.829   0.549   1.648  0.0543 -0.6528 -0.1391
10016SOL    HW132586   6.849   0.464   1.688 -1.8060  0.4280  3.3234
10016SOL    HW232587   6.892   0.609   1.689 -0.5597  0.1285 -0.3421
10017SOL     OW32588   8.301   6.010   2.436 -0.1533  0.6453  0.3373
10017SOL    HW132589   8.329   5.950   2.505 -2.3157  0.8026  1.3918
10017SOL    HW232590   8.357   6.087   2.447  0.6767 -0.0121  0.8067
10018SOL     OW32591   8.564   1.902   9.297  0.2560  1.1287  0.1032
10018SOL    HW132592   8.541   1.893   9.204  1.1632  0.2576 -0.0467
10018SOL    HW232593   8.498   1.849   9.342 -1.4177  3.1730  0.1399
10019SOL     OW32594   8.092   3.680   4.599  0.2629  0.3640  0.3104
10019SOL    HW132595   8.130   3.676   4.687  0.0351 -2.0405  0.3385
10019SOL    HW232596   8.168   3.690   4.541  0.6489 -0.6787  0.6203
10020SOL     OW32597   2.179   7.445   0.694  0.0659  0.2661 -0.3400
10020SOL    HW132598   2.097   7.455   0.743 -0.0538 -0.1640 -0.4479
10020SOL    HW232599   2.154   7.395   0.616  0.4387  0.0952 -0.3479
10021SOL     OW32600   1.088   7.180   5.715  0.3642  0.4858 -0.3001
10021SOL    HW132601   1.134   7.242   5.658  1.1100 -0.5597 -0.8450
10021SOL    HW232602   0.995   7.200   5.703  0.4939  0.0092 -2.1991
10022SOL     OW32603   7.402   1.938   0.953 -0.5979  0.0104  0.1826
10022SOL    HW132604   7.493   1.912   0.935 -1.0129 -0.5045 -1.1786
10022SOL    HW232605   7.363   1.953   0.867 -2.4746 -1.9858  0.6524
10023SOL     OW32606   3.985   9.912   2.884 -0.1665  0.1651 -0.8208
10023SOL    HW132607   4.068   9.960   2.877 -0.0274 -0.2684 -2.2541
10023SOL    HW232608   3.918   9.980   2.886  0.2845  0.5871  1.9327
10024SOL     OW32609   7.500   9.885   4.542 -0.2896 -0.2903 -0.4238
10024SOL    HW132610   7.553   9.861   4.466 -0.0490  0.5894 -0.5423
10024SOL    HW232611   7.411   9.893   4.507 -0.4475 -1.4571 -0.2887
10025SOL     OW32612   7.514   0.222  10.104  0.5380 -0.3163 -0.0970
10025SOL    HW132613   7.551   0.293  10.156  0.8288 -0.2833 -0.3495
10025SOL    HW232614   7.588   0.163  10.087  0.8223  0.5237 -1.8968
10026SOL     OW32615  10.041   6.669   6.950 -0.4302  0.6155  0.5399
10026SOL    HW132616  10.034   6.763   6.967 -0.8526  0.7939 -0.6266
10026SOL    HW232617  10.051   6.630   7.037  3.0237  2.0038  0.8480
10027SOL     OW32618   5.653   6.504   4.862 -0.2717 -0.0503  0.1848
10027SOL    HW132619   5.666   6.498   4.768  0.2172  2.6637  0.0183
10027SOL    HW232620   5.561   6.530   4.871 -0.3686 -0.4926  0.4440
10028SOL     OW32621   5.350   4.206   2.877 -0.2615 -0.3431  0.0917
10028SOL    HW132622   5.346   4.240   2.787 -0.6444 -0.3843  0.0959
10028SOL    HW232623   5.405   4.270   2.923 -0.1615 -0.2585 -0.1417
10029SOL     OW32624   7.551   5.491   5.864 -0.2811  0.3466  0.1394
10029SOL    HW132625   7.642   5.482   5.834 -0.6660 -1.6714 -0.4754
10029SOL    HW232626   7.556   5.478   5.959  0.0126 -0.2898  0.0419
10030SOL     OW32627   0.459   5.186   0.048 -0.0772  0.5781  0.0554
10030SOL    HW132628   0.397   5.258   0.036  0.7845  1.1194 -1.2336
10030SOL    HW232629   0.460   5.140  -0.036  0.8746  0.2660  0.2258
10031SOL     OW32630   3.972  10.090   8.136  0.0885 -0.3238 -0.5764
10031SOL    HW132631   3.985  10.183   8.157 -1.0047 -0.1561 -0.6090
10031SOL    HW232632   4.058  10.050   8.149  0.5179  0.6587 -0.3651
10032SOL     OW32633   1.471   2.414   3.864 -0.1033 -0.9686 -0.0804
10032SOL    HW132634   1.415   2.436   3.939 -1.8632 -2.7456 -0.8434
10032SOL    HW232635   1.421   2.444   3.787  1.8574  1.1994 -0.5746
10033SOL     OW32636   3.911   7.318   3.288  0.1763 -0.2641  0.4239
10033SOL    HW132637   3.950   7.236   3.258  0.2120 -0.4624  1.0156
10033SOL    HW232638   3.829   7.325   3.238  0.7261 -0.0848 -0.4658
10034SOL     OW32639   2.517   5.502   0.874 -0.0420  0.0385 -0.0363
10034SOL    HW132640   2.587   5.557   0.910  0.8380 -0.5667 -0.8054
10034SOL    HW232641   2.559   5.452   0.804 -0.9097 -1.3512  0.4139
10035SOL     OW32642   6.794   0.248   4.272 -0.3499 -0.1007 -0.3873
10035SOL    HW132643   6.804   0.248   4.368 -0.6401 -1.4537 -0.3476
10035SOL    HW232644   6.745   0.328   4.254 -0.2144  0.2174  0.5908
10036SOL     OW32645   1.082   0.937   0.698 -0.6694 -0.4909 -0.4310
10036SOL    HW132646   1.013   0.901   0.752 -0.5953 -1.6791 -1.1137
10036SOL    HW232647   1.118   1.010   0.749 -0.3186 -1.8437  1.2807
10037SOL     OW32648   5.000   4.881   2.418  0.4485 -0.4329  0.0520
10037SOL    HW132649   4.960   4.833   2.345 -0.4520 -0.9829  0.8977
10037SOL    HW232650   4.938   4.870   2.490 -0.2854  2.8599 -0.0113
10038SOL     OW32651   7.590   5.871   9.216  0.2028 -0.0822  0.0325
10038SOL    HW132652   7.632   5.946   9.174  0.1345  0.5914  1.1520
10038SOL    HW232653   7.515   5.851   9.159  0.3596  0.5445 -0.4021
10039SOL     OW32654   7.949   1.643   6.265 -0.2446 -0.4900 -0.2243
10039SOL    HW132655   7.949   1.722   6.211  0.5522 -1.5011 -1.7317
10039SOL    HW232656   8.026   1.595   6.237 -0.0917 -1.2802  1.4847
10040SOL     OW32657   1.468   2.232   7.959  0.8626  0.2402  0.0735
10040SOL    HW132658   1.445   2.310   8.009  1.3562  0.5869 -0.2428
10040SOL    HW232659   1.384   2.200   7.925  0.7705  1.1753 -0.5940
10041SOL     OW32660   8.589   5.276   2.696 -0.5179  0.8120 -0.1740
10041SOL    HW132661   8.634   5.210   2.747 -1.2351 -0.3993 -1.0691
10041SOL    HW232662   8.652   5.302   2.628 -0.4088  0.6757 -0.1244
10042SOL     OW32663   5.802   9.683   3.577  0.1466  0.3590  0.0634
10042SOL    HW132664   5.788   9.766   3.624  0.9910 -1.1156  3.0877
10042SOL    HW232665   5.874   9.702   3.517 -1.3213  2.4661 -1.1120
10043SOL     OW32666   4.665   2.840   6.174  0.2074  0.2086 -0.0578
10043SOL    HW132667   4.693   2.787   6.099  0.7040  1.7757 -1.0122
10043SOL    HW232668   4.700   2.794   6.250  0.2943 -1.0423 -0.8277
10044SOL     OW32669   8.380   8.227   5.589  0.2319 -0.1611  0.2710
10044SOL    HW132670   8.347   8.251   5.676 -0.6648 -1.2639  0.2446
10044SOL    HW232671   8.430   8.304   5.561 -1.9327  1.3758  0.5124
10045SOL     OW32672   5.907   9.537   3.948  0.7350  0.4501  0.2009
10045SOL    HW132673   5.847   9.612   3.947 -1.6903 -1.4359 -0.1570
10045SOL    HW232674   5.939   9.533   4.038  0.4923  1.6202  0.3457
10046SOL     OW32675   0.923   8.625   4.371 -0.3746  0.2437  0.4122
10046SOL    HW132676   0.984   8.582   4.311  0.2766  2.9127 -0.9118
10046SOL    HW232677   0.842   8.633   4.321 -0.4543  0.6410  0.6025
10047SOL     OW32678   3.826   6.935   1.913 -0.4748 -0.0619 -0.0593
10047SOL    HW132679   3.891   6.962   1.978 -0.2974 -0.6470  0.0129
10047SOL    HW232680   3.743   6.937   1.960 -0.4649  0.3946 -0.0653
10048SOL     OW32681   8.660   2.561   7.344 -0.1097  0.3257  0.0629
10048SOL    HW132682   8.739   2.523   7.307 -0.4178  2.2830 -2.7915
10048SOL    HW232683   8.588   2.508   7.309 -0.1637 -0.5054  1.4107
10049SOL     OW32684   7.694   5.441   1.845 -0.2440 -0.0430  0.6579
10049SOL    HW132685   7.721   5.410   1.759  1.0531  1.5907  0.4436
10049SOL    HW232686   7.698   5.537   1.838  0.2529  0.0948  2.6497
10050SOL     OW32687   6.921   7.570   0.434  0.0500 -0.4271 -0.3043
10050SOL    HW132688   6.937   7.662   0.414 -0.6601 -0.0780  0.6798
10050SOL    HW232689   6.828   7.556   0.413 -0.4036 -0.3535  1.5740
10051SOL     OW32690   4.708   4.277  10.022  0.0609  0.3280 -0.1485
10051SOL    HW132691   4.794   4.264  10.062  0.7102  0.8901 -1.3414
10051SOL    HW232692   4.694   4.372  10.024  0.0340  0.3482 -1.1159
10052SOL     OW32693   3.848  10.171   5.552  0.4688 -0.6567 -0.3598
10052SOL    HW132694   3.905  10.193   5.625 -0.1371 -0.1888 -0.0171
10052SOL    HW232695   3.813  10.255   5.522  1.3529 -0.7571 -1.7282
10053SOL     OW32696   5.279   2.943   3.414  0.8884 -0.0138  0.2412
10053SOL    HW132697   5.206   2.928   3.474 -0.4017  2.3718 -0.6263
10053SOL    HW232698   5.280   2.866   3.357  0.1168 -0.8522  1.3468
10054SOL     OW32699   5.987   0.928   3.505  0.0953  0.2611  0.8907
10054SOL    HW132700   6.080   0.949   3.516  0.3656  0.5710 -1.5958
10054SOL    HW232701   5.986   0.832   3.498  0.1378  0.2023  1.6897
10055SOL     OW32702   5.758   9.755   5.686  0.0798  0.1525  0.5223
10055SOL    HW132703   5.792   9.666   5.690 -0.3026 -0.0179 -0.0224
10055SOL    HW232704   5.823   9.803   5.634 -1.0319 -0.4234 -1.4334
10056SOL     OW32705   2.070   7.819   1.655 -0.6819  0.3414  0.2366
10056SOL    HW132706   2.126   7.762   1.708 -0.2272  0.3051 -0.2792
10056SOL    HW232707   1.995   7.838   1.711 -0.6421 -0.4368  0.5608
10057SOL     OW32708   6.464   6.842   0.931  0.3848  0.2699 -0.0860
10057SOL    HW132709   6.448   6.930   0.897 -0.2570 -0.9456 -3.1004
10057SOL    HW232710   6.384   6.794   0.911  1.2164 -1.3374  0.3854
10058SOL     OW32711   8.807   6.189   5.351  0.5574 -0.6422  0.3945
10058SOL    HW132712   8.736   6.196   5.287  1.2142 -1.5111 -0.4539
10058SOL    HW232713   8.820   6.279   5.381 -0.1326 -0.2982 -0.2931
10059SOL     OW32714   2.245   7.014   3.627 -0.9401  0.5631  0.2698
10059SOL    HW132715   2.315   6.959   3.594 -0.3005  1.1966  0.5531
10059SOL    HW232716   2.168   6.958   3.627 -0.0835 -0.6255  1.5509
10060SOL     OW32717   9.374   7.926   6.077 -0.6429  0.3335 -0.2886
10060SOL    HW132718   9.379   7.965   5.990 -0.1652  2.4710  0.6582
10060SOL    HW232719   9.366   8.001   6.136 -0.3821 -1.0549  1.5490
10061SOL     OW32720   7.506   7.763   3.546 -0.1950  0.0040  0.1618
10061SOL    HW132721   7.426   7.718   3.572  0.6348 -0.6132  1.7173
10061SOL    HW232722   7.538   7.803   3.627  1.2689 -0.0579 -0.3809
10062SOL     OW32723   2.204   9.251   1.514  0.4954  0.2770  0.2423
10062SOL    HW132724   2.193   9.346   1.517  0.3862  0.2627  0.2732
10062SOL    HW232725   2.299   9.238   1.516  0.4785  0.3049  2.3494
10063SOL     OW32726   8.838   8.665   1.436  0.6683  0.0187  0.1399
10063SOL    HW132727   8.882   8.628   1.359 -3.1637 -0.5315 -1.9804
10063SOL    HW232728   8.839   8.594   1.501  0.3924 -1.0319 -0.9656
10064SOL     OW32729   3.308   4.747   3.668 -0.6079 -0.5821 -0.0641
10064SOL    HW132730   3.247   4.819   3.651  0.0145 -0.3826 -1.4824
10064SOL    HW232731   3.335   4.717   3.581  1.6955 -0.3391  0.5331
10065SOL     OW32732   9.420   1.469   3.839  0.1291 -0.3959 -0.2827
10065SOL    HW132733   9.437   1.558   3.809 -0.5791 -0.3024 -0.4235
10065SOL    HW232734   9.506   1.431   3.851  0.4456  0.6362  0.7643
10066SOL     OW32735   8.675   6.123   0.096  0.0951 -0.2890  0.1937
10066SOL    HW132736   8.639   6.146   0.010 -0.7726 -1.6728  0.1628
10066SOL    HW232737   8.607   6.069   0.136  1.0407 -0.7206  1.2270
10067SOL     OW32738   9.733   9.189   7.358  0.1018 -0.1364  0.2661
10067SOL    HW132739   9.710   9.235   7.277 -1.7678 -1.0477  0.2635
10067SOL    HW232740   9.741   9.097   7.333 -0.2382 -0.3887  1.0599
10068SOL     OW32741   8.250   3.896   2.433  0.0256 -0.5720 -0.2139
10068SOL    HW132742   8.269   3.957   2.362  0.7200  0.5143  0.8960
10068SOL    HW232743   8.154   3.889   2.433 -0.1162  1.1861  0.1984
10069SOL     OW32744   8.932   3.608   8.725 -0.1788 -0.0410 -0.2181
10069SOL    HW132745   8.995   3.540   8.745 -0.2948 -0.2056 -0.4102
10069SOL    HW232746   8.884   3.575   8.649  0.3853  0.6619 -0.8822
10070SOL     OW32747   2.220   7.230   0.461  0.1637 -0.1727 -0.0362
10070SOL    HW132748   2.135   7.265   0.433 -0.1152 -0.7761  0.0302
10070SOL    HW232749   2.209   7.135   0.455  1.2576 -0.2321 -1.2675
10071SOL     OW32750   6.854   8.674   5.761 -0.4399  0.8355 -0.2510
10071SOL    HW132751   6.890   8.592   5.727 -1.8694  0.3198 -0.5249
10071SOL    HW232752   6.931   8.729   5.775  0.5709 -0.6768  0.2928
10072SOL     OW32753   7.315   9.766   7.199  0.1347 -0.2210  0.6608
10072SOL    HW132754   7.310   9.693   7.136  1.6000 -1.0700  1.4908
10072SOL    HW232755   7.227   9.771   7.236 -0.7380  0.2647 -1.4206
10073SOL     OW32756   0.186   9.234   1.078 -0.8978 -0.4389  0.1449
10073SOL    HW132757   0.235   9.220   0.997 -2.2880  0.5294 -0.9044
10073SOL    HW232758   0.244   9.203   1.147 -0.4187 -3.0439 -1.3594
10074SOL     OW32759   0.258   9.497   6.308  0.5505 -0.4737 -0.1004
10074SOL    HW132760   0.275   9.473   6.216  1.3109 -0.1224 -0.0586
10074SOL    HW232761   0.250   9.593   6.306  0.9244 -0.4362  0.2559
10075SOL     OW32762   3.670   9.253   5.383  0.1404  0.2859  0.7000
10075SOL    HW132763   3.662   9.160   5.363 -0.4236  0.6674 -0.9461
10075SOL    HW232764   3.619   9.297   5.315  3.2679  1.9608 -0.7066
10076SOL     OW32765   7.392   9.234   9.387  0.0534  0.4519 -0.7898
10076SOL    HW132766   7.364   9.161   9.332 -0.8805  1.3320 -1.5094
10076SOL    HW232767   7.434   9.193   9.462 -1.3387 -0.8487 -0.6937
10077SOL     OW32768   1.808   0.377   6.812  0.3199  0.0740  0.6708
10077SOL    HW132769   1.771   0.464   6.829  0.9179  0.5454 -0.3582
10077SOL    HW232770   1.795   0.364   6.718  1.4734 -0.3634  0.5646
10078SOL     OW32771   4.644   9.739   5.212  0.4747 -0.3172  0.2616
10078SOL    HW132772   4.608   9.780   5.291 -1.9310  0.0487 -0.9801
10078SOL    HW232773   4.651   9.646   5.234 -1.4087 -0.4192  0.4795
10079SOL     OW32774   9.205   5.757   0.880  0.6555 -0.1658 -0.4891
10079SOL    HW132775   9.227   5.845   0.911 -0.9415  0.4907 -1.1655
10079SOL    HW232776   9.197   5.766   0.785  1.3518 -1.2383 -0.6578
10080SOL     OW32777   2.658   5.566   3.946 -0.1864 -0.6832 -0.2958
10080SOL    HW132778   2.564   5.584   3.949  0.0818  0.7874 -0.3330
10080SOL    HW232779   2.683   5.584   3.855  0.3603  0.1643  0.0157
10081SOL     OW32780   4.480   2.778   0.900 -0.6147 -0.3664  0.2433
10081SOL    HW132781   4.566   2.806   0.868 -1.2358  1.9357  0.4836
10081SOL    HW232782   4.462   2.697   0.853  1.5041 -0.6592 -0.1169
10082SOL     OW32783  10.018   1.510   6.753  0.4481  0.0689 -0.3153
10082SOL    HW132784   9.967   1.446   6.803 -0.1544  0.7866 -0.0029
10082SOL    HW232785  10.059   1.565   6.819  0.5600  0.3259 -0.5972
10083SOL     OW32786   6.497   9.921   1.252  0.4678  0.5856  0.3748
10083SOL    HW132787   6.542  10.000   1.222 -0.1946  0.8503  0.0663
10083SOL    HW232788   6.502   9.861   1.177  1.9618 -0.1018  0.9921
10084SOL     OW32789   7.597   2.094   5.352  0.6194 -0.1131 -0.3458
10084SOL    HW132790   7.598   2.176   5.303  0.7221  1.7977  2.7043
10084SOL    HW232791   7.526   2.043   5.311  0.5542  1.4624 -2.2873
10085SOL     OW32792   5.661   7.113   0.183  0.2185 -0.3834  0.6866
10085SOL    HW132793   5.706   7.033   0.157 -0.8196 -0.8386  0.2943
10085SOL    HW232794   5.569   7.095   0.169 -0.0377  0.8203  0.7575
10086SOL     OW32795   3.933   5.657   3.556 -0.5533 -0.2488 -0.7086
10086SOL    HW132796   3.877   5.580   3.564  0.3335 -1.0939 -2.3246
10086SOL    HW232797   3.977   5.664   3.640  0.3960 -2.3275 -1.0132
10087SOL     OW32798   0.853  10.112   5.114 -0.4568 -0.6630 -0.2000
10087SOL    HW132799   0.875  10.191   5.164  2.0923 -1.8220  0.5881
10087SOL    HW232800   0.836  10.045   5.180  4.6114 -2.6729 -0.6724
10088SOL     OW32801   2.625   3.539   3.536 -0.1729 -0.1450 -0.0733
10088SOL    HW132802   2.691   3.499   3.479  1.4883 -0.6621  2.1607
10088SOL    HW232803   2.582   3.465   3.579 -0.6820  0.2842  0.1649
10089SOL     OW32804   0.703   9.724   6.596  0.4777  0.1998 -0.9093
10089SOL    HW132805   0.608   9.722   6.602  0.4399 -0.1440 -1.5690
10089SOL    HW232806   0.728   9.812   6.623  0.0404 -0.0231  0.2422
10090SOL     OW32807   9.667   7.446   0.167 -0.1132  0.0779  0.1871
10090SOL    HW132808   9.673   7.484   0.255  0.7253  0.7230 -0.1382
10090SOL    HW232809   9.581   7.404   0.165 -0.7240  1.2541  0.8369
10091SOL     OW32810   3.360   5.386   0.769 -0.0474  0.2833 -0.5567
10091SOL    HW132811   3.353   5.397   0.675  2.4539 -0.8664 -0.9315
10091SOL    HW232812   3.396   5.469   0.800  0.0502  0.3193 -0.7641
10092SOL     OW32813   4.252   1.073   3.893  0.2474  0.3950  0.1706
10092SOL    HW132814   4.297   1.091   3.975 -0.1377  0.3078  0.4057
10092SOL    HW232815   4.235   1.159   3.855  1.1493  0.4045 -0.2158
10093SOL     OW32816   7.390   1.664   9.734 -0.0742  0.0146 -0.2622
10093SOL    HW132817   7.452   1.724   9.774 -1.5392  0.6888  1.0740
10093SOL    HW232818   7.331   1.721   9.684  1.0532 -0.7177 -2.4846
10094SOL     OW32819   9.067   2.865   2.293  0.1370 -0.0597  0.1402
10094SOL    HW132820   9.148   2.813   2.293  1.0085  1.2766  0.1772
10094SOL    HW232821   9.092   2.948   2.334 -1.4487  0.0787  0.8516
10095SOL     OW32822   1.364   2.470   8.129  0.5671  0.2049  0.3390
10095SOL    HW132823   1.299   2.404   8.154 -0.6691  1.3675  0.2195
10095SOL    HW232824   1.430   2.465   8.199  0.0135 -0.5110  0.8233
10096SOL     OW32825   4.510   1.723   8.840 -0.1218 -0.3575 -0.5884
10096SOL    HW132826   4.424   1.700   8.876  0.1420  0.0696  0.3233
10096SOL    HW232827   4.546   1.640   8.809  0.5169 -1.1085  2.0203
10097SOL     OW32828   0.237   3.304   2.361 -0.1450 -0.2982  0.0283
10097SOL    HW132829   0.158   3.248   2.362 -0.9980  0.9131  2.5177
10097SOL    HW232830   0.207   3.385   2.320 -0.2285  0.2128  1.1027
10098SOL     OW32831   9.550   6.158   7.947  0.3943  0.2087  0.5900
10098SOL    HW132832   9.535   6.160   8.042 -1.1758  0.2805  0.3659
10098SOL    HW232833   9.644   6.173   7.937  0.8380 -1.2602  2.1993
10099SOL     OW32834   0.878   8.252   2.708 -0.8088  0.4607  0.1861
10099SOL    HW132835   0.832   8.296   2.779 -1.1666  0.0827  0.1926
10099SOL    HW232836   0.818   8.183   2.680 -0.4181  0.2289 -0.0834
10100SOL     OW32837   7.032   4.972   8.403 -0.1077 -0.0071  0.0697
10100SOL    HW132838   7.037   4.908   8.474 -1.1798 -0.3344 -0.1381
10100SOL    HW232839   6.966   5.034   8.431  0.5783  0.7381  0.0435
10101SOL     OW32840   4.409   6.803   3.045  0.2040  0.6519  0.1243
10101SOL    HW132841   4.427   6.710   3.060  1.0882  0.7149 -0.4859
10101SOL    HW232842   4.347   6.827   3.113 -0.3162 -0.4809  0.0687
10102SOL     OW32843   3.244   2.640   6.475 -0.2856 -0.0521  0.3536
10102SOL    HW132844   3.242   2.689   6.393 -1.9037  1.5802  1.3378
10102SOL    HW232845   3.162   2.662   6.519  0.0818 -1.7074  1.9581
10103SOL     OW32846   9.465   5.387   7.858 -0.4562  0.1853 -0.6270
10103SOL    HW132847   9.507   5.394   7.943  0.6006 -0.3285 -1.1013
10103SOL    HW232848   9.532   5.351   7.801 -1.6853 -1.1254 -1.2715
10104SOL     OW32849   0.271   8.878   3.006 -0.7582  0.2078  0.7894
10104SOL    HW132850   0.233   8.966   3.006 -1.2173  0.0573 -2.1160
10104SOL    HW232851   0.363   8.891   3.029 -0.8627  1.4410  0.5289
10105SOL     OW32852   6.965   5.540   5.522 -0.0583 -0.2161  0.3278
10105SOL    HW132853   6.970   5.575   5.610  1.0075 -0.8065  0.5219
10105SOL    HW232854   7.055   5.511   5.503  0.0452  1.1790 -1.4779
10106SOL     OW32855   0.409   1.582   9.742  0.0610 -0.7718 -0.6349
10106SOL    HW132856   0.426   1.635   9.664  2.1376  1.2324  1.0882
10106SOL    HW232857   0.489   1.530   9.753  0.1820 -0.3339  0.6681
10107SOL     OW32858   4.173   7.511   1.480 -0.1833 -0.2123 -0.2076
10107SOL    HW132859   4.181   7.451   1.554 -0.1859  0.6121  0.4678
10107SOL    HW232860   4.251   7.566   1.484  0.2752 -0.7561 -1.3642
10108SOL     OW32861   1.490   5.889   4.311 -0.7770 -0.2377  0.2866
10108SOL    HW132862   1.428   5.906   4.382 -0.5693  0.9887  0.1825
10108SOL    HW232863   1.450   5.930   4.235 -0.0103  0.2352  0.1358
10109SOL     OW32864   8.178   2.994   0.868  0.1441  0.0160  0.0513
10109SOL    HW132865   8.242   3.066   0.865  2.2480 -1.7996 -0.5365
10109SOL    HW232866   8.153   2.980   0.777 -1.1225  0.7512  0.2894
10110SOL     OW32867   8.376   0.299   3.132 -0.0176  0.5729  0.4090
10110SOL    HW132868   8.367   0.205   3.150 -1.1424  0.8646  1.3982
10110SOL    HW232869   8.416   0.335   3.211  1.7236  0.7144 -0.5196
10111SOL     OW32870   1.649   1.737   8.646  0.1954 -0.1819  0.0756
10111SOL    HW132871   1.726   1.762   8.596  0.2202 -0.0990  0.1553
10111SOL    HW232872   1.631   1.646   8.620  1.0377 -0.6114  0.9681
10112SOL     OW32873   7.979   7.852   7.290 -0.2742 -0.2454 -0.2798
10112SOL    HW132874   7.974   7.849   7.386  0.3418  0.1161 -0.2364
10112SOL    HW232875   8.027   7.773   7.266  0.2094  0.0308 -0.2391
10113SOL     OW32876   6.073   4.898   2.910 -0.1207 -0.2143 -0.4454
10113SOL    HW132877   6.152   4.877   2.860  0.5764 -1.0662  0.9792
10113SOL    HW232878   6.070   4.993   2.912  0.3055 -0.1771 -1.3682
10114SOL     OW32879   2.252   9.802   2.152 -0.0247 -0.1317 -0.3172
10114SOL    HW132880   2.279   9.863   2.220 -1.8046 -0.9715  1.1879
10114SOL    HW232881   2.333   9.778   2.108  1.0007  1.4038  0.6645
10115SOL     OW32882   9.849   2.943   2.699 -0.4143 -0.0731 -0.1158
10115SOL    HW132883   9.823   2.852   2.711 -1.8549  0.5096  1.2388
10115SOL    HW232884   9.920   2.956   2.763 -1.4504  0.2655  0.9737
10116SOL     OW32885   9.917   3.172   1.103 -0.0801  0.3364 -0.2553
10116SOL    HW132886   9.836   3.126   1.084 -1.2835  1.7040  1.2937
10116SOL    HW232887   9.929   3.231   1.029 -3.0191  3.3922  1.5231
10117SOL     OW32888   6.887   5.145   0.064  0.7840 -0.3163 -0.1781
10117SOL    HW132889   6.953   5.212   0.079  0.7497 -0.1657 -0.6793
10117SOL    HW232890   6.805   5.193   0.051  0.6779 -0.4731 -0.0974
10118SOL     OW32891   6.922   9.795   7.661 -0.5343  0.2982 -0.3701
10118SOL    HW132892   6.869   9.726   7.700 -0.1293 -0.9210 -1.9327
10118SOL    HW232893   6.997   9.749   7.623 -0.0053  1.6554 -0.9951
10119SOL     OW32894   6.804   8.276   5.839  0.1251  0.0551  0.6949
10119SOL    HW132895   6.715   8.276   5.804  0.2023  2.6221  0.3847
10119SOL    HW232896   6.808   8.354   5.894  1.7492 -0.8393  1.8846
10120SOL     OW32897   0.079   6.623   7.377 -0.6587  0.2601 -0.1057
10120SOL    HW132898   0.123   6.596   7.458  1.8448  2.4643 -0.6569
10120SOL    HW232899   0.100   6.716   7.369 -1.8091  0.3287 -2.7122
10121SOL     OW32900   8.871   1.891   7.700  0.1152  0.2251  0.0810
10121SOL    HW132901   8.953   1.855   7.733 -0.9194 -2.4738 -0.1799
10121SOL    HW232902   8.881   1.889   7.605 -0.3063 -0.2309  0.0468
10122SOL     OW32903   6.013  10.043   7.169 -0.4200  0.2016  0.0910
10122SOL    HW132904   6.039  10.072   7.256  0.5498  1.4678 -0.6115
10122SOL    HW232905   5.998  10.124   7.120 -1.6883 -0.4997 -0.7116
10123SOL     OW32906  10.043   1.217   5.782  0.7870 -0.1565  0.2774
10123SOL    HW132907  10.112   1.177   5.834 -0.0800  0.6972  2.1565
10123SOL    HW232908  10.026   1.155   5.712  3.2002 -0.5275 -0.0182
10124SOL     OW32909   6.973   2.283   9.691  0.3972 -0.6973  0.3670
10124SOL    HW132910   7.068   2.275   9.679  0.6736  1.0414  1.1883
10124SOL    HW232911   6.964   2.341   9.767 -1.3249 -0.0215 -0.3450
10125SOL     OW32912   0.258   9.728   5.926 -0.0493  0.2690  0.3424
10125SOL    HW132913   0.185   9.761   5.873 -0.7807  0.4225  1.4207
10125SOL    HW232914   0.228   9.643   5.958 -0.1793  0.7741  1.6056
10126SOL     OW32915   4.919   9.477   5.778  0.6021  0.4591  0.1878
10126SOL    HW132916   4.951   9.547   5.721 -0.5950  1.2331  0.4507
10126SOL    HW232917   4.829   9.461   5.748 -0.7795  2.3090  3.1690
10127SOL     OW32918   6.129   5.205   4.895 -0.2236  0.0882  0.0337
10127SOL    HW132919   6.140   5.111   4.910  0.9938  0.2149 -0.0002
10127SOL    HW232920   6.166   5.246   4.973 -3.6840  0.4670  1.5319
10128SOL     OW32921   1.232   6.279   0.384  0.2448  0.1643  1.1117
10128SOL    HW132922   1.202   6.250   0.298  1.2669  0.1322  0.7678
10128SOL    HW232923   1.293   6.211   0.413 -0.4366 -0.0611  2.0624
10129SOL     OW32924   7.558   2.970   1.379  0.1660 -0.0181  0.6727
10129SOL    HW132925   7.494   3.041   1.369 -0.7836 -1.0228 -0.6464
10129SOL    HW232926   7.514   2.893   1.341  1.4864 -1.1261  1.3431
10130SOL     OW32927   7.094   4.904   4.291 -0.6046 -0.3972  0.3479
10130SOL    HW132928   7.075   4.940   4.204 -0.4556 -0.9354  0.0874
10130SOL    HW232929   7.135   4.819   4.273  4.7975  1.9210  0.7738
10131SOL     OW32930   2.473   5.042   7.450  0.5092 -0.3083  0.7866
10131SOL    HW132931   2.516   5.126   7.438  1.6639 -1.0295 -0.1853
10131SOL    HW232932   2.430   5.024   7.366 -2.3276  0.7250  1.9470
10132SOL     OW32933   4.753   6.519   6.781  0.5818  0.1386 -0.6808
10132SOL    HW132934   4.658   6.529   6.791  0.4795 -0.5197 -0.9483
10132SOL    HW232935   4.788   6.533   6.869  0.0879 -1.2906 -0.2486
10133SOL     OW32936   1.502   1.342   8.410  0.2690 -0.4028 -0.0521
10133SOL    HW132937   1.479   1.278   8.477 -1.0923 -0.2030 -0.2984
10133SOL    HW232938   1.595   1.360   8.424  0.0343 -0.4570  1.6972
10134SOL     OW32939   5.086   7.300   1.116  0.1168  0.3146 -0.0833
10134SOL    HW132940   5.061   7.366   1.051  0.4794  0.9281  0.3946
10134SOL    HW232941   5.058   7.217   1.078  0.2547  0.6783 -0.9906
10135SOL     OW32942   6.741   7.752   3.396  0.0429 -0.1305 -0.7001
10135SOL    HW132943   6.768   7.796   3.315 -0.6995 -0.4153 -1.1012
10135SOL    HW232944   6.807   7.683   3.409 -1.1357 -1.5882 -2.3094
10136SOL     OW32945   3.483   0.999   1.929 -0.3402 -0.3196  0.5670
10136SOL    HW132946   3.412   0.957   1.881  0.4396  2.2204 -2.9856
10136SOL    HW232947   3.444   1.079   1.964 -0.1082 -0.6383  1.5604
10137SOL     OW32948   7.306   5.652   3.437  0.0813  0.6193 -0.1871
10137SOL    HW132949   7.396   5.651   3.404  0.1736  3.7803 -0.1360
10137SOL    HW232950   7.258   5.596   3.377  1.6235  0.7077 -1.5444
10138SOL     OW32951   0.857   7.256   3.389  0.0118  0.3354 -0.3935
10138SOL    HW132952   0.822   7.239   3.302 -0.5124 -0.2053 -0.0789
10138SOL    HW232953   0.779   7.268   3.444  0.3394  0.6191  0.0098
10139SOL     OW32954   7.028   7.813   3.426  0.0053  0.4054 -0.3529
10139SOL    HW132955   7.074   7.897   3.424  0.5702  0.1669  1.7469
10139SOL    HW232956   6.984   7.808   3.341 -1.0405  3.4023 -0.0441
10140SOL     OW32957   3.967   1.105   8.345 -0.1099 -0.1547  0.2483
10140SOL    HW132958   4.036   1.154   8.299 -1.3425  0.3180 -1.1232
10140SOL    HW232959   3.964   1.020   8.301 -0.4480 -0.1589  0.2790
10141SOL     OW32960   0.370   8.528   1.527 -0.0683 -0.1783 -0.3056
10141SOL    HW132961   0.459   8.492   1.524  0.1876  0.3565  0.6842
10141SOL    HW232962   0.352   8.556   1.437  1.6403  1.8033 -0.0535
10142SOL     OW32963   4.432   9.117   7.644  0.1975  0.6720  0.0379
10142SOL    HW132964   4.432   9.076   7.730  0.6990  0.7738  0.0924
10142SOL    HW232965   4.513   9.168   7.642  0.9418 -0.5110 -1.0499
10143SOL     OW32966   2.711   2.466   9.993 -0.3714  0.4547  0.0951
10143SOL    HW132967   2.753   2.447  10.076 -0.7567  0.9757  0.4112
10143SOL    HW232968   2.756   2.410   9.930 -0.1453 -0.0111  0.6682
10144SOL     OW32969   3.332   7.490   6.682  0.7489 -0.2248 -0.4431
10144SOL    HW132970   3.297   7.539   6.608  0.2244  0.7939  0.4482
10144SOL    HW232971   3.255   7.461   6.730  1.0724  0.6792  0.6729
10145SOL     OW32972   8.984   3.181   8.630 -0.3561 -0.2016  0.2757
10145SOL    HW132973   8.986   3.096   8.674 -0.1699 -1.1577 -1.4959
10145SOL    HW232974   8.949   3.162   8.543  0.8716  1.3162 -0.5976
10146SOL     OW32975   6.606   6.085   2.835 -0.6125 -0.2898 -0.6865
10146SOL    HW132976   6.610   6.038   2.919  1.4826 -0.9818 -1.1409
10146SOL    HW232977   6.615   6.177   2.859 -1.2663 -0.3831 -0.0605
10147SOL     OW32978   0.731   2.554   1.604 -0.8172 -0.0002  0.3040
10147SOL    HW132979   0.719   2.627   1.543 -0.8580  0.6278  1.0566
10147SOL    HW232980   0.710   2.591   1.690 -1.1101 -0.9727  0.6573
10148SOL     OW32981   6.502   2.509   3.056  0.1181  0.6005 -0.4673
10148SOL    HW132982   6.464   2.445   2.996  0.9505  0.1006 -0.4628
10148SOL    HW232983   6.530   2.458   3.132  0.9990  0.9280 -0.5640
10149SOL     OW32984   1.721   4.359   6.853 -0.5484 -0.4805 -0.1062
10149SOL    HW132985   1.713   4.264   6.859 -0.8377 -0.3870  1.2613
10149SOL    HW232986   1.784   4.382   6.922  0.3720  0.2178 -1.1654
10150SOL     OW32987   4.080   5.827   4.481  0.5719 -0.1644 -0.4963
10150SOL    HW132988   4.167   5.857   4.507  0.4827 -2.4465  2.7094
10150SOL    HW232989   4.084   5.732   4.487 -1.6385 -0.4081 -2.1017
10151SOL     OW32990   5.165   1.880   0.299 -0.4628 -0.3059 -0.1136
10151SOL    HW132991   5.146   1.787   0.309 -0.5811 -0.1817  0.8210
10151SOL    HW232992   5.082   1.918   0.269 -0.6512 -0.3601  0.3461
10152SOL     OW32993   0.366   9.168   7.754  0.6145 -0.0065 -1.1112
10152SOL    HW132994   0.338   9.222   7.828  1.5209  0.0147 -0.7743
10152SOL    HW232995   0.461   9.164   7.763  0.5651 -1.5226 -1.2281
10153SOL     OW32996   1.876   8.439   2.296  0.2118  0.0980  0.0561
10153SOL    HW132997   1.784   8.413   2.295  0.8343 -2.1938  0.2089
10153SOL    HW232998   1.895   8.455   2.388 -0.4181  2.1473 -0.1312
10154SOL     OW32999   7.197   4.448   1.357 -0.4017  0.3694  0.4658
10154SOL    HW133000   7.171   4.357   1.373 -0.7548  0.4797  0.5331
10154SOL    HW233001   7.114   4.493   1.339 -0.2065  0.6406  0.2549
10155SOL     OW33002   0.023   5.865   4.064 -0.1079  0.0064  0.0580
10155SOL    HW133003   0.047   5.889   3.974  1.8293 -1.2962  0.1867
10155SOL    HW233004  -0.070   5.844   4.060 -0.3033  1.0796 -1.4051
10156SOL     OW33005   4.615   3.266   0.666 -0.5565 -0.0864  0.0489
10156SOL    HW133006   4.630   3.186   0.717 -3.2618 -2.1257 -2.1205
10156SOL    HW233007   4.519   3.274   0.662 -0.3702  1.7678 -2.0051
10157SOL     OW33008   0.420   5.468   2.677 -0.2142  0.6799  0.1663
10157SOL    HW133009   0.430   5.374   2.691  0.4097  0.6071 -0.7550
10157SOL    HW233010   0.431   5.507   2.764 -1.4460 -0.1714  0.7185
10158SOL     OW33011   0.826   8.452   8.915  0.1690 -0.3340 -0.4180
10158SOL    HW133012   0.870   8.422   8.994 -0.1042  0.5298  0.0638
10158SOL    HW233013   0.734   8.434   8.930  0.2670 -1.4984 -1.1412
10159SOL     OW33014   5.155   0.411   6.722  0.1074  0.5392  0.4239
10159SOL    HW133015   5.234   0.359   6.732 -0.8541 -1.4994 -1.9888
10159SOL    HW233016   5.098   0.383   6.793 -0.1857 -1.3314 -0.5339
10160SOL     OW33017   8.615   2.494   3.089  0.2185 -0.2243  0.7871
10160SOL    HW133018   8.705   2.495   3.121  0.9849  0.5371 -1.2975
10160SOL    HW233019   8.608   2.412   3.041  0.5679  0.8204 -1.0858
10161SOL     OW33020   0.572  10.174   9.632  0.2708 -0.4609 -0.1200
10161SOL    HW133021   0.507  10.243   9.638  0.7550 -0.0082 -0.0837
10161SOL    HW233022   0.639  10.198   9.695  0.4558 -0.9471 -0.1259
10162SOL     OW33023   5.446   6.295   1.433  0.0171 -0.4706 -0.0343
10162SOL    HW133024   5.413   6.365   1.489  1.0416  1.2998 -1.5670
10162SOL    HW233025   5.542   6.306   1.436  0.1173 -0.9387 -1.3444
10163SOL     OW33026   0.912   6.613   9.580  0.3462  0.4536 -0.0660
10163SOL    HW133027   0.827   6.570   9.571 -0.0473  1.0132  0.8300
10163SOL    HW233028   0.912   6.646   9.670  1.0501  1.4418 -0.4192
10164SOL     OW33029   8.621   4.227   3.545  0.0516  0.7249  0.3678
10164SOL    HW133030   8.710   4.237   3.579 -0.1500 -0.1314  1.1756
10164SOL    HW233031   8.613   4.294   3.477  1.1606  1.0973  0.6008
10165SOL     OW33032   4.120   1.498   7.921 -0.4928 -0.1001  0.7398
10165SOL    HW133033   4.207   1.528   7.947 -0.6841 -0.6707  2.0390
10165SOL    HW233034   4.073   1.483   8.003 -1.4742 -0.8095  0.0650
10166SOL     OW33035   1.198   5.957   4.904 -0.0402  0.1539  0.2816
10166SOL    HW133036   1.217   5.881   4.958  0.0427  0.3121  0.4722
10166SOL    HW233037   1.273   5.965   4.845  0.1948  0.3985  0.6102
10167SOL     OW33038   1.465   9.784   3.364 -0.1988 -0.1145 -0.2870
10167SOL    HW133039   1.536   9.755   3.420 -0.3532 -0.2371 -0.1551
10167SOL    HW233040   1.507   9.839   3.298 -0.0127 -0.0113 -0.0803
10168SOL     OW33041   5.487   5.903   4.529  0.5398 -0.0402  1.0520
10168SOL    HW133042   5.410   5.933   4.576 -0.1997 -0.7755  0.3307
10168SOL    HW233043   5.458   5.896   4.438  1.0893 -1.5631  0.9818
10169SOL     OW33044   6.854   6.083   9.678 -0.1793 -0.5065  0.1520
10169SOL    HW133045   6.796   6.115   9.747  0.1583  0.1980  0.1226
10169SOL    HW233046   6.861   6.157   9.617 -0.0190 -0.9225 -0.3374
10170SOL     OW33047   1.280   6.152   8.060 -0.5113  0.5125 -0.0049
10170SOL    HW133048   1.190   6.176   8.039 -0.9046  0.0765  1.1693
10170SOL    HW233049   1.275   6.114   8.147  0.4034 -1.9636 -0.9992
10171SOL     OW33050   3.851   9.751   7.696  0.2698  0.0732  0.2334
10171SOL    HW133051   3.864   9.692   7.770  1.6693  1.7567  1.3467
10171SOL    HW233052   3.887   9.703   7.621 -1.5817 -1.8279  0.5380
10172SOL     OW33053   1.532   7.298   4.775 -0.0162  0.2848 -0.0507
10172SOL    HW133054   1.590   7.361   4.819  0.3410 -2.1039  3.0468
10172SOL    HW233055   1.589   7.249   4.717  0.4482  0.1504  0.5155
10173SOL     OW33056   9.275   3.481   7.960  0.6618  0.0325 -0.0530
10173SOL    HW133057   9.234   3.398   7.985  1.0324 -0.1934 -0.1942
10173SOL    HW233058   9.235   3.546   8.018  0.0534 -0.1746 -0.2262
10174SOL     OW33059   1.582   2.333   7.390 -0.3418  0.2143 -0.3484
10174SOL    HW133060   1.639   2.313   7.316  1.0500 -2.3526  1.3481
10174SOL    HW233061   1.641   2.372   7.455 -0.8946 -0.5624  0.6292
10175SOL     OW33062   6.678   9.238   6.238  0.1204 -0.3085  0.0497
10175SOL    HW133063   6.757   9.281   6.271  0.2695 -0.5030 -0.0600
10175SOL    HW233064   6.608   9.272   6.294 -0.0362  1.4249 -1.1572
10176SOL     OW33065   2.288   8.249   0.632 -0.2150  0.3515  0.1959
10176SOL    HW133066   2.313   8.214   0.717  2.1285 -1.0303 -0.9985
10176SOL    HW233067   2.362   8.229   0.575 -2.1726  0.3049 -2.4378
10177SOL     OW33068   7.237   1.290   1.971 -0.3715  0.0277 -0.2452
10177SOL    HW133069   7.313   1.348   1.966 -0.1265 -0.0201  2.0738
10177SOL    HW233070   7.261   1.214   1.918  0.6987  0.5453 -0.5213
10178SOL     OW33071   1.671   0.741   8.352 -0.4124 -0.4569  0.0528
10178SOL    HW133072   1.674   0.647   8.334 -1.2469 -0.5661  0.4758
10178SOL    HW233073   1.615   0.777   8.283  1.2343 -0.0273 -1.0885
10179SOL     OW33074   4.428   5.549  10.026 -0.4708 -0.5351  0.2902
10179SOL    HW133075   4.368   5.514  10.091  0.6309  1.2227  2.2739
10179SOL    HW233076   4.515   5.535  10.063  0.1524  0.8667 -0.5942
10180SOL     OW33077   7.422   2.361   5.544 -0.1778 -0.2213  0.4131
10180SOL    HW133078   7.360   2.341   5.614  0.0025  0.4525  0.7691
10180SOL    HW233079   7.496   2.303   5.560 -0.6428 -0.9282  0.0697
10181SOL     OW33080   8.312   0.786   4.053 -1.0156  0.3208  0.0122
10181SOL    HW133081   8.280   0.826   3.972 -0.6459  0.7810  0.0874
10181SOL    HW233082   8.407   0.786   4.044 -0.9509  0.7244  0.6045
10182SOL     OW33083   2.926   8.427   3.506 -0.2002 -0.6470  0.1623
10182SOL    HW133084   2.984   8.414   3.432 -0.6471  0.4471 -0.3971
10182SOL    HW233085   2.978   8.476   3.570 -0.6314  0.7374 -0.5273
10183SOL     OW33086   2.288   9.765   9.597  0.1440  0.0801  0.8845
10183SOL    HW133087   2.283   9.847   9.549 -1.1595  0.1983  1.1948
10183SOL    HW233088   2.269   9.789   9.688 -0.8873 -0.6541  0.8691
10184SOL     OW33089   9.342   6.790  10.011  0.2780  0.1209  0.2835
10184SOL    HW133090   9.340   6.833   9.925  1.2657  1.0124  0.7010
10184SOL    HW233091   9.343   6.862  10.074  1.1399 -0.5237  1.0124
10185SOL     OW33092   4.980   0.086   7.471 -0.4232 -0.2227  0.3681
10185SOL    HW133093   4.945   0.148   7.407 -0.0090 -0.7276 -0.3603
10185SOL    HW233094   4.923   0.095   7.548 -3.5029 -2.4932 -1.5220
10186SOL     OW33095   0.630   2.510   0.888  0.0839  0.1342 -0.0292
10186SOL    HW133096   0.583   2.517   0.971  0.6491  1.4011  0.1982
10186SOL    HW233097   0.664   2.598   0.872 -0.7464  0.1298 -2.0382
10187SOL     OW33098   7.880   7.989   0.329 -0.3883 -0.1821  0.3459
10187SOL    HW133099   7.859   7.997   0.236  1.2676  1.7192  0.1023
10187SOL    HW233100   7.948   7.922   0.333  0.4028  0.5977  0.0440
10188SOL     OW33101   2.769   3.397   7.457 -0.2331  0.8308 -0.0883
10188SOL    HW133102   2.683   3.400   7.498 -0.2654 -1.1251  0.0445
10188SOL    HW233103   2.824   3.450   7.513 -0.7382 -0.1679  1.3879
10189SOL     OW33104   9.344   0.239   0.171 -0.5059  0.2454 -0.6405
10189SOL    HW133105   9.406   0.192   0.116  0.4363  0.7676 -0.0340
10189SOL    HW233106   9.398   0.299   0.222 -1.7365  2.4752 -1.8779
10190SOL     OW33107   9.772   8.973   8.912 -0.8439 -0.5756  0.0183
10190SOL    HW133108   9.840   8.994   8.976 -0.8163  1.1450 -0.5475
10190SOL    HW233109   9.735   8.889   8.942  1.2513 -1.3354  0.5310
10191SOL     OW33110   3.323   7.026   9.813  0.0807  0.2156 -0.0910
10191SOL    HW133111   3.313   7.120   9.823  0.1277  0.1874  0.2130
10191SOL    HW233112   3.359   6.996   9.896  2.3146  0.2479 -1.0164
10192SOL     OW33113   0.493   1.461   4.986  0.2434 -0.0369  0.3107
10192SOL    HW133114   0.461   1.519   5.055  2.1657  0.4673  0.8147
10192SOL    HW233115   0.497   1.516   4.908 -0.7435 -0.2825  0.0780
10193SOL     OW33116   9.275  10.136   1.319 -0.1319  0.2851  0.1492
10193SOL    HW133117   9.258  10.209   1.378 -0.2840  0.3012  0.0865
10193SOL    HW233118   9.370  10.124   1.321 -0.1045  0.4997  0.1409
10194SOL     OW33119   6.680   1.951   2.239  0.0270  0.3972  0.5034
10194SOL    HW133120   6.610   1.945   2.175 -0.4593  3.1155  0.7342
10194SOL    HW233121   6.759   1.927   2.191 -0.5665  0.7809 -0.6708
10195SOL     OW33122   2.368   0.351   0.243  0.5273  0.1774  0.1438
10195SOL    HW133123   2.424   0.298   0.300 -0.5768 -0.0171  1.0631
10195SOL    HW233124   2.392   0.324   0.154  1.0353 -0.7772  0.5643
10196SOL     OW33125   2.410   9.648   6.234 -0.4241  0.6728  0.0860
10196SOL    HW133126   2.376   9.733   6.207  0.7642  0.8557 -0.8503
10196SOL    HW233127   2.332   9.596   6.253 -1.1729  1.7135 -0.1193
10197SOL     OW33128   3.918   9.204   9.164 -0.7027  0.3194 -0.4292
10197SOL    HW133129   3.898   9.285   9.116 -2.2038 -0.6053 -1.4004
10197SOL    HW233130   3.997   9.170   9.121 -0.9979  0.4350 -1.0729
10198SOL     OW33131   7.758   5.064   7.471 -0.7204  0.1037  0.2541
10198SOL    HW133132   7.702   5.142   7.474 -1.3611 -0.2905 -1.1730
10198SOL    HW233133   7.726   5.015   7.396  0.0543 -1.2673  0.8162
10199SOL     OW33134   4.466   1.040   8.571  0.2735  0.1454 -0.4229
10199SOL    HW133135   4.439   0.953   8.543 -0.0702  0.2074 -0.2842
10199SOL    HW233136   4.562   1.035   8.576  0.2513 -0.2366 -0.3690
10200SOL     OW33137   8.973   1.669  10.031  0.0354  0.0425 -0.3207
10200SOL    HW133138   9.015   1.616  10.099 -0.1701 -0.1640 -0.3540
10200SOL    HW233139   8.879   1.658  10.047 -0.0711 -1.5560 -1.8029
10201SOL     OW33140   6.996   6.480   0.918  0.0797 -0.7650 -0.1818
10201SOL    HW133141   7.004   6.544   0.989  0.4467 -0.6573 -0.3158
10201SOL    HW233142   7.078   6.430   0.922  1.0107  0.5524 -1.7937
10202SOL     OW33143  10.146   6.255   6.093 -0.1580  0.2469  0.1753
10202SOL    HW133144  10.134   6.230   6.185 -2.5256 -0.7067 -0.3577
10202SOL    HW233145  10.188   6.340   6.097 -0.2806  0.2469  2.1659
10203SOL     OW33146   6.917   6.911   2.661 -0.2577 -0.0086 -0.4695
10203SOL    HW133147   6.946   7.002   2.648  0.4304  0.4425  3.5658
10203SOL    HW233148   6.978   6.859   2.608  0.8385  1.7105 -0.9359
10204SOL     OW33149   8.103   8.408   3.867 -0.1893 -0.7169  0.0211
10204SOL    HW133150   8.137   8.349   3.935 -0.1827  0.5278  1.1189
10204SOL    HW233151   8.133   8.495   3.893 -1.1531 -0.0745 -0.9693
10205SOL     OW33152   4.422   1.088   5.076  0.1499 -0.0088  0.1136
10205SOL    HW133153   4.459   1.168   5.113  0.2183  0.1642 -0.3264
10205SOL    HW233154   4.455   1.086   4.986 -1.6186  0.5916 -0.5602
10206SOL     OW33155   4.048   1.806   8.454  0.2582 -0.7345  0.2122
10206SOL    HW133156   4.020   1.896   8.445  1.1374 -0.1520  2.7478
10206SOL    HW233157   4.078   1.780   8.367 -0.4635  1.2424 -0.6304
10207SOL     OW33158   5.570   4.522   3.786  0.1066  0.2744  0.0198
10207SOL    HW133159   5.628   4.458   3.745 -1.0230 -0.4075 -0.5555
10207SOL    HW233160   5.609   4.607   3.765  1.0708 -0.1847 -0.0641
10208SOL     OW33161   3.144   3.087   4.318 -0.0647 -0.5134  0.2723
10208SOL    HW133162   3.189   3.081   4.403  0.1609  1.3572  0.3177
10208SOL    HW233163   3.212   3.118   4.258 -0.0889 -2.3679 -0.7174
10209SOL     OW33164   4.453   8.379   4.007 -0.0534  0.0308  0.1014
10209SOL    HW133165   4.544   8.404   3.993  0.1433 -0.3844  0.6010
10209SOL    HW233166   4.419   8.442   4.070 -0.0091 -0.0206  0.1779
10210SOL     OW33167   3.078   4.617   8.274  0.1004 -0.0896  0.4229
10210SOL    HW133168   3.099   4.644   8.185  0.7285 -0.0271  0.5893
10210SOL    HW233169   3.114   4.685   8.330 -0.9380  0.2530  0.7006
10211SOL     OW33170   1.727   2.634   1.330 -0.5125 -0.3784  0.0758
10211SOL    HW133171   1.819   2.658   1.333 -0.4418 -0.5416 -0.6985
10211SOL    HW233172   1.708   2.598   1.416  0.3746 -1.1724 -0.0657
10212SOL     OW33173   1.207   3.751   2.169 -0.5829  0.1303  0.3907
10212SOL    HW133174   1.157   3.778   2.093  1.3151 -0.6514 -1.1820
10212SOL    HW233175   1.178   3.810   2.239 -1.2786  1.8450 -1.2974
10213SOL     OW33176   3.497   5.735   8.907 -0.4602 -1.0807  0.5921
10213SOL    HW133177   3.575   5.791   8.901 -0.9397 -0.5790 -1.6372
10213SOL    HW233178   3.472   5.738   8.999  0.2802  1.3461  0.7546
10214SOL     OW33179   7.007   3.415   2.951 -0.4825  0.5444  0.3886
10214SOL    HW133180   6.988   3.489   2.893  0.2331  0.4515  0.0302
10214SOL    HW233181   6.992   3.338   2.896  1.8762  0.4716 -0.2401
10215SOL     OW33182   4.816   6.057   6.511 -0.4287 -0.8304 -0.1538
10215SOL    HW133183   4.805   6.139   6.464 -0.1543  1.1102  3.0426
10215SOL    HW233184   4.731   6.013   6.502 -0.6484 -0.1268 -1.6681
10216SOL     OW33185   4.560   4.759   3.518 -0.1217  0.3252 -0.3052
10216SOL    HW133186   4.614   4.805   3.583 -0.6781  2.7544 -1.5107
10216SOL    HW233187   4.520   4.687   3.567  1.9032  0.2216  1.2945
10217SOL     OW33188   3.710   1.924   6.666  0.5023  0.1770 -0.3327
10217SOL    HW133189   3.763   1.972   6.603  1.8508 -0.1444  0.5246
10217SOL    HW233190   3.771   1.861   6.705 -0.4879 -0.1290  0.7524
10218SOL     OW33191   4.123  10.087   9.904 -0.5105 -0.1977  0.2296
10218SOL    HW133192   4.194  10.150   9.919  0.4587 -0.9020 -1.2589
10218SOL    HW233193   4.131  10.025   9.977 -0.9597  0.9197  1.2546
10219SOL     OW33194   5.285   3.242   0.692 -0.0083  0.1817 -0.4526
10219SOL    HW133195   5.222   3.302   0.733 -1.6569 -1.2050 -0.8915
10219SOL    HW233196   5.278   3.162   0.743  1.4260  0.0134 -0.5142
10220SOL     OW33197   8.308   9.840   4.728 -0.1181 -0.1959 -0.2590
10220SOL    HW133198   8.303   9.773   4.796 -1.2363 -1.3619 -1.4525
10220SOL    HW233199   8.401   9.853   4.712  0.1211 -0.6411  0.7920
10221SOL     OW33200   6.605   5.560   3.016 -0.6457  0.3235  0.3133
10221SOL    HW133201   6.558   5.505   2.953 -0.4723 -0.5335  0.9185
10221SOL    HW233202   6.663   5.499   3.062  2.1721  1.5814 -1.4462
10222SOL     OW33203   4.146   1.367   0.812 -0.1725 -0.4561 -0.0731
10222SOL    HW133204   4.099   1.302   0.865  0.9321  0.5338  2.1811
10222SOL    HW233205   4.125   1.451   0.853  3.1597  0.0518  0.7439
10223SOL     OW33206   8.716   5.435   8.585 -0.3704  0.1542  0.2206
10223SOL    HW133207   8.789   5.442   8.645 -0.8698 -1.3363  1.0295
10223SOL    HW233208   8.640   5.416   8.641 -0.7837 -1.5654 -0.8958
10224SOL     OW33209   4.216   7.497   8.853 -0.2550  0.3774  0.1131
10224SOL    HW133210   4.161   7.535   8.922 -0.7832 -1.2175  0.5909
10224SOL    HW233211   4.298   7.546   8.858 -0.4561  0.5911  1.5834
10225SOL     OW33212   7.421   1.436   3.133 -0.7255 -0.0350 -0.0334
10225SOL    HW133213   7.411   1.343   3.154 -1.7391 -0.0825 -0.6808
10225SOL    HW233214   7.514   1.454   3.146 -0.5915 -1.0460  0.4700
10226SOL     OW33215   6.490   2.854   5.224  0.0214 -0.7045 -0.9236
10226SOL    HW133216   6.547   2.837   5.300 -0.9484 -0.1663 -0.0543
10226SOL    HW233217   6.488   2.949   5.218 -0.0707 -0.7462 -1.5024
10227SOL     OW33218   8.238   1.826   8.936 -1.2256 -0.2423 -0.1288
10227SOL    HW133219   8.175   1.838   9.007 -1.0657 -1.3792  0.2229
10227SOL    HW233220   8.209   1.886   8.867 -2.0590  0.0306  0.4492
10228SOL     OW33221   2.156   1.008   0.401 -0.2847  0.1437  0.0271
10228SOL    HW133222   2.158   0.948   0.327  3.4558  0.1028  0.0559
10228SOL    HW233223   2.081   0.979   0.454 -1.4070 -1.4591 -2.3623
10229SOL     OW33224   1.179   4.448   6.995 -0.4105 -0.5788  0.2811
10229SOL    HW133225   1.230   4.454   7.076  0.5730 -2.0847 -0.1930
10229SOL    HW233226   1.241   4.413   6.930 -0.8827  1.6109 -1.4055
10230SOL     OW33227   9.831   8.085   4.765 -1.0702 -0.2379  0.0060
10230SOL    HW133228   9.921   8.108   4.742 -0.9272 -0.3068  0.4892
10230SOL    HW233229   9.815   8.132   4.847 -1.5467 -0.0583 -0.1861
10231SOL     OW33230   9.722   0.378   0.636  0.0301 -0.0962  0.5318
10231SOL    HW133231   9.665   0.320   0.686  0.3490  0.5365  1.6517
10231SOL    HW233232   9.810   0.344   0.651 -0.0325 -0.9720 -1.0585
10232SOL     OW33233   0.190   4.798   0.191 -0.2794 -0.7008  0.2422
10232SOL    HW133234   0.245   4.875   0.207  1.9536 -2.1173 -0.3766
10232SOL    HW233235   0.239   4.725   0.229 -0.8691 -2.2559 -1.8716
10233SOL     OW33236   9.030   2.185   3.777 -0.0666 -0.0111 -0.2592
10233SOL    HW133237   9.082   2.265   3.770 -1.7197  1.2318  1.5715
10233SOL    HW233238   9.084   2.126   3.830  0.0104  0.8294  0.5996
10234SOL     OW33239   8.368   0.449   3.371 -0.0625 -0.1216  0.7281
10234SOL    HW133240   8.442   0.414   3.421 -0.3054 -2.1233 -0.2781
10234SOL    HW233241   8.295   0.389   3.391 -0.3408 -0.5515 -1.4547
10235SOL     OW33242  10.076   8.394   0.072  0.4129  0.1723  0.1900
10235SOL    HW133243  10.055   8.309   0.033  1.9734 -0.7612  1.3438
10235SOL    HW233244  10.040   8.390   0.160 -3.1104  2.2825 -1.0404
10236SOL     OW33245   0.989   9.276   8.080  0.5228 -0.1207 -0.0925
10236SOL    HW133246   1.002   9.267   8.174  0.1023  1.1261  0.0951
10236SOL    HW233247   0.984   9.186   8.048 -0.0709 -0.5569  1.1801
10237SOL     OW33248  10.201  10.090   1.523  0.1821  0.2387  0.0910
10237SOL    HW133249  10.165  10.002   1.512  0.0507  0.2351  0.5204
10237SOL    HW233250  10.129  10.140   1.561  0.5768  0.2769  0.7928
10238SOL     OW33251   8.971   3.442   6.128  0.1876 -0.0681 -0.5304
10238SOL    HW133252   8.987   3.536   6.127 -1.0516  0.1563 -2.5303
10238SOL    HW233253   8.940   3.424   6.217  2.0074  1.0968  0.3791
10239SOL     OW33254   9.400   5.571   9.184 -0.0708  0.3996  0.5948
10239SOL    HW133255   9.453   5.594   9.108 -2.3865 -0.7232 -1.4674
10239SOL    HW233256   9.448   5.501   9.227 -0.5646 -1.7721 -2.1923
10240SOL     OW33257   2.173   9.252   0.815 -0.1214 -0.9018 -0.1407
10240SOL    HW133258   2.164   9.156   0.818 -0.6461 -0.8775 -0.8058
10240SOL    HW233259   2.190   9.271   0.722  1.9405 -0.5164  0.2868
10241SOL     OW33260   1.820   8.312   0.004  0.2578  0.3042 -0.3143
10241SOL    HW133261   1.900   8.357  -0.022 -0.2948  1.5648  0.1273
10241SOL    HW233262   1.801   8.252  -0.068  2.6977 -1.4683  0.4797
10242SOL     OW33263   1.043   8.648   1.852 -0.1745  0.0619 -0.4225
10242SOL    HW133264   1.088   8.649   1.768 -0.5312  0.3034 -0.6140
10242SOL    HW233265   0.961   8.601   1.836  0.7155 -1.7744  0.3059
10243SOL     OW33266   1.864   1.513   7.726  0.3646  0.1362 -0.0708
10243SOL    HW133267   1.907   1.589   7.687 -0.4013  0.5596 -0.0806
10243SOL    HW233268   1.932   1.473   7.781  0.2153  1.8892  1.4074
10244SOL     OW33269   8.205   4.823   3.611  0.7983  0.2523 -0.4197
10244SOL    HW133270   8.269   4.868   3.556  1.0882  0.6180  0.2055
10244SOL    HW233271   8.248   4.815   3.696  0.2938 -0.1523 -0.2009
10245SOL     OW33272   3.877   5.377   1.679  0.0202  0.6315  0.2270
10245SOL    HW133273   3.802   5.338   1.723 -0.6473  0.5911 -0.9450
10245SOL    HW233274   3.862   5.471   1.685 -0.9161  0.6026 -1.3421
10246SOL     OW33275   5.945   9.070   4.481 -0.0268 -0.2025 -0.1758
10246SOL    HW133276   5.910   8.981   4.486 -2.2594  0.6685  0.2164
10246SOL    HW233277   5.877   9.120   4.436  0.3249  1.7527  1.4135
10247SOL     OW33278   6.759   3.766   3.464  0.0278  0.5809 -0.4470
10247SOL    HW133279   6.777   3.779   3.557  0.6339  0.1078 -0.4964
10247SOL    HW233280   6.684   3.823   3.446 -0.9564 -0.3541  0.6306
10248SOL     OW33281   0.483   6.054   2.923  0.1689  0.1808  0.0741
10248SOL    HW133282   0.534   5.993   2.976  0.2763  0.9979  0.9124
10248SOL    HW233283   0.463   6.005   2.843 -0.0817 -1.0925  0.9061
10249SOL     OW33284   0.528   0.512   8.727  0.2088 -0.4714 -0.9776
10249SOL    HW133285   0.600   0.562   8.765  0.4168  0.2767 -2.3268
10249SOL    HW233286   0.455   0.574   8.725 -0.1412 -0.8723 -0.6975
10250SOL     OW33287   3.645   5.714   9.646 -0.0114 -0.1213 -0.3393
10250SOL    HW133288   3.715   5.648   9.646 -2.0291 -2.3192 -0.1232
10250SOL    HW233289   3.644   5.748   9.735  0.4186 -0.4450 -0.2102
10251SOL     OW33290   7.593   8.639  10.120  0.7333 -0.2926 -0.0818
10251SOL    HW133291   7.679   8.597  10.121  1.0550  0.3752 -0.0240
10251SOL    HW233292   7.599   8.705  10.052  0.4946  0.2324  0.4022
10252SOL     OW33293   9.128   1.309   8.229  0.3984  0.6436 -0.3534
10252SOL    HW133294   9.130   1.353   8.144 -1.0483  0.6880 -0.3827
10252SOL    HW233295   9.037   1.279   8.237  0.9457 -0.8466  0.4123
10253SOL     OW33296   9.534   6.426   5.403 -0.1400 -0.1157 -0.4940
10253SOL    HW133297   9.527   6.473   5.320  0.3778 -0.5623 -0.7916
10253SOL    HW233298   9.583   6.485   5.460  0.3981 -0.2399 -0.8283
10254SOL     OW33299   6.965   2.568   5.870 -0.2634  0.3679 -0.0286
10254SOL    HW133300   6.904   2.495   5.858 -0.8821  0.9067 -0.2208
10254SOL    HW233301   6.980   2.602   5.782  2.1945 -1.2446 -0.2571
10255SOL     OW33302  10.115   9.444   3.639  0.4768  0.1243 -0.0094
10255SOL    HW133303  10.167   9.492   3.703  1.3953  0.6739 -1.1536
10255SOL    HW233304  10.024   9.460   3.665  0.8251  0.8510  0.7793
10256SOL     OW33305   7.739   5.727   1.133 -0.4049  0.8998  0.4239
10256SOL    HW133306   7.798   5.694   1.066 -1.1525  1.2079 -0.3932
10256SOL    HW233307   7.796   5.776   1.193  0.7114 -1.8840  1.6886
10257SOL     OW33308   8.350   5.693   7.160  0.1119 -0.2969 -0.0653
10257SOL    HW133309   8.367   5.724   7.071 -0.6377 -1.0950 -0.4980
10257SOL    HW233310   8.389   5.606   7.163  1.5902  0.3697  0.9201
10258SOL     OW33311   2.611   2.810   4.626  0.5504 -0.3839  0.1031
10258SOL    HW133312   2.613   2.900   4.594 -1.6224 -0.5966 -0.7049
10258SOL    HW233313   2.636   2.816   4.718  1.6929  0.8743 -0.2824
10259SOL     OW33314   9.037   5.362   6.542 -0.1081 -0.5901  0.2816
10259SOL    HW133315   8.949   5.397   6.557  0.1739  0.7642 -1.1363
10259SOL    HW233316   9.061   5.321   6.625 -1.9255 -0.6384  0.7999
10260SOL     OW33317   5.960   0.595   0.474  0.1075 -0.7809  0.4516
10260SOL    HW133318   5.970   0.684   0.441 -0.1187 -1.0210 -0.2600
10260SOL    HW233319   5.945   0.542   0.396  2.0798 -1.7251  0.6799
10261SOL     OW33320   3.572   7.693   8.739  0.4675 -0.0240 -0.3309
10261SOL    HW133321   3.652   7.721   8.695 -0.2579 -0.5730 -2.0434
10261SOL    HW233322   3.582   7.599   8.749 -0.9190 -0.4507 -2.6155
10262SOL     OW33323   7.773   8.125   4.587  0.0913  0.5370 -0.3187
10262SOL    HW133324   7.747   8.154   4.499 -1.0692  1.9589  0.4817
10262SOL    HW233325   7.847   8.181   4.609 -0.2556  0.8618  0.0174
10263SOL     OW33326   3.535   3.710   6.208 -0.5845  0.4490 -0.1697
10263SOL    HW133327   3.478   3.710   6.131  0.2971  0.0497 -0.8188
10263SOL    HW233328   3.617   3.749   6.178 -0.3746  0.6852  0.6759
10264SOL     OW33329   5.850   1.908   7.717  0.0332 -0.0463  0.0010
10264SOL    HW133330   5.852   1.949   7.630  1.3229  0.6334  0.3502
10264SOL    HW233331   5.867   1.980   7.778  1.5897 -0.9626  0.6617
10265SOL     OW33332   5.111   2.899   0.370 -0.0172 -0.6069  0.0450
10265SOL    HW133333   5.163   2.896   0.289 -1.0217 -0.5898 -0.6093
10265SOL    HW233334   5.090   2.808   0.389 -0.1066 -0.5816  0.0700
10266SOL     OW33335   0.827   8.339   7.360  0.0079  0.7831 -0.1379
10266SOL    HW133336   0.853   8.285   7.435 -2.4355 -0.1109  0.1220
10266SOL    HW233337   0.794   8.277   7.295  1.9928  1.5606 -1.9358
10267SOL     OW33338   2.597   3.307   3.300 -0.1670 -0.1526  0.1376
10267SOL    HW133339   2.609   3.252   3.222 -1.4890  0.2577 -0.3617
10267SOL    HW233340   2.512   3.282   3.335  0.0291  0.2989  0.9500
10268SOL     OW33341   3.630   6.472   8.923 -0.3143 -0.8015  0.0822
10268SOL    HW133342   3.554   6.414   8.917 -0.2391 -0.8939  0.0189
10268SOL    HW233343   3.666   6.455   9.011  0.7789 -2.1869 -0.6192
10269SOL     OW33344   0.568   5.403   8.756  0.0330 -0.1567  0.2144
10269SOL    HW133345   0.472   5.402   8.750  0.0799 -0.7065 -0.4403
10269SOL    HW233346   0.592   5.492   8.728 -0.2379 -0.2466 -0.3060
10270SOL     OW33347   2.029   9.291   7.954  0.0514  0.0085 -0.0194
10270SOL    HW133348   2.090   9.344   8.004 -0.1278  0.1860  0.0084
10270SOL    HW233349   2.056   9.304   7.863  0.8122 -0.8517  0.0685
10271SOL     OW33350   0.354  10.157   3.568  0.7332 -0.4142 -0.7465
10271SOL    HW133351   0.362  10.245   3.605 -1.6650 -0.0592 -0.9561
10271SOL    HW233352   0.331  10.101   3.642  2.5189 -0.9248 -0.5688
10272SOL     OW33353   0.239   8.363   3.279 -0.6727  0.0037  0.3548
10272SOL    HW133354   0.227   8.413   3.359  1.7949 -0.1468  0.8470
10272SOL    HW233355   0.291   8.287   3.305 -2.4826 -1.6948 -0.8070
10273SOL     OW33356   0.642   5.520   5.889 -0.0493 -0.3831 -0.1448
10273SOL    HW133357   0.613   5.529   5.980  0.9969  1.0288  0.0848
10273SOL    HW233358   0.584   5.454   5.851 -0.6249 -0.8534  1.4934
10274SOL     OW33359   0.011   0.775   6.134  0.5031  0.1054 -0.4005
10274SOL    HW133360   0.015   0.870   6.145  1.2276  0.2568 -1.7805
10274SOL    HW233361  -0.072   0.750   6.175 -1.7149  1.8714 -3.5487
10275SOL     OW33362   4.559   8.287   9.259  0.5389 -0.1558 -0.1447
10275SOL    HW133363   4.534   8.377   9.281 -0.4414  0.0400 -1.9649
10275SOL    HW233364   4.632   8.267   9.318  0.9524  1.9241  0.0868
10276SOL     OW33365   4.991   6.999   3.622 -0.1100 -0.1800  0.0258
10276SOL    HW133366   4.951   6.991   3.709  0.3469 -0.3235  0.2261
10276SOL    HW233367   4.917   7.002   3.562 -0.4297 -0.1665  0.4145
10277SOL     OW33368   0.671   3.694   0.938 -0.5708  0.4556 -0.4181
10277SOL    HW133369   0.597   3.732   0.891 -0.6979  0.3003 -0.3476
10277SOL    HW233370   0.639   3.608   0.967 -0.3048  0.3120 -0.5399
10278SOL     OW33371   3.181   8.307   2.625  0.1750 -0.3665  0.5437
10278SOL    HW133372   3.271   8.304   2.594  0.3482  0.4927  0.9503
10278SOL    HW233373   3.153   8.215   2.628  0.9115 -0.6033  0.0620
10279SOL     OW33374   1.767  10.127   9.164  0.0419  0.5046  0.8123
10279SOL    HW133375   1.712  10.078   9.226  0.5263 -1.0370  0.0504
10279SOL    HW233376   1.761  10.078   9.082 -0.3123  2.3331 -0.2876
10280SOL     OW33377   1.796   2.925   3.205  0.5635  0.1901 -0.2434
10280SOL    HW133378   1.825   2.938   3.296 -1.6620  2.1362  0.2585
10280SOL    HW233379   1.791   3.014   3.169 -1.5205 -0.3299 -1.2995
10281SOL     OW33380   1.274   0.924   6.640  0.2467  0.1059 -0.4946
10281SOL    HW133381   1.352   0.874   6.619 -0.2814 -0.2647 -1.6362
10281SOL    HW233382   1.213   0.904   6.569 -0.8542  0.4488  0.3382
10282SOL     OW33383   5.526   4.454   3.433  0.8084 -0.0677 -0.1079
10282SOL    HW133384   5.478   4.430   3.354  1.1089  1.1192 -0.6603
10282SOL    HW233385   5.616   4.470   3.403  1.2800 -1.1229  0.7276
10283SOL     OW33386   6.847   2.925   7.565 -0.0161 -0.1141 -0.8323
10283SOL    HW133387   6.942   2.928   7.569 -0.0006 -1.9399  0.3482
10283SOL    HW233388   6.824   2.834   7.582 -1.9859  0.3078 -1.0494
10284SOL     OW33389   1.336   1.017   8.149  0.1234  0.2419 -0.3343
10284SOL    HW133390   1.250   1.009   8.190 -1.0575  1.5596 -2.4864
10284SOL    HW233391   1.362   1.108   8.164  1.3948 -0.2925  0.7694
10285SOL     OW33392   2.412   7.129   8.700 -0.2571  0.5193  0.0132
10285SOL    HW133393   2.347   7.149   8.632 -0.5791 -0.2073  0.0959
10285SOL    HW233394   2.406   7.034   8.711 -1.1107  0.7767  1.9608
10286SOL     OW33395   7.414   4.714   8.020 -0.0544 -0.0206 -0.0746
10286SOL    HW133396   7.424   4.789   7.962  0.5220  0.1680  0.2691
10286SOL    HW233397   7.500   4.673   8.022  0.8983  1.9336  3.3347
10287SOL     OW33398   1.780   7.055   7.070 -0.0262 -0.4049  0.5270
10287SOL    HW133399   1.696   7.009   7.072 -1.2393  1.7213  0.4083
10287SOL    HW233400   1.783   7.104   7.152  0.0151  1.3453 -0.4879
10288SOL     OW33401   0.580   6.765   5.270 -0.6610 -0.3737  0.4597
10288SOL    HW133402   0.645   6.835   5.281 -0.6841 -0.0197 -1.6381
10288SOL    HW233403   0.629   6.685   5.291 -0.1818  0.1070  1.2141
10289SOL     OW33404   9.421   9.835   3.709 -0.0627  0.1078  0.0484
10289SOL    HW133405   9.444   9.920   3.672 -0.7528  0.0466 -0.5136
10289SOL    HW233406   9.407   9.778   3.633  1.8279 -0.9008  0.4139
10290SOL     OW33407   5.215   8.228   0.487 -0.4735  0.7002  0.0073
10290SOL    HW133408   5.299   8.255   0.451 -1.2289 -0.8181 -3.0375
10290SOL    HW233409   5.219   8.132   0.488 -1.5922  0.6407  1.3076
10291SOL     OW33410   5.714   5.508   8.459 -0.2443  0.3197 -0.6313
10291SOL    HW133411   5.646   5.490   8.524 -0.2553  0.1073 -0.7013
10291SOL    HW233412   5.723   5.604   8.459 -0.5468  0.3483 -0.6269
10292SOL     OW33413   7.699   6.811   7.672 -0.1860  0.1100  0.2014
10292SOL    HW133414   7.704   6.896   7.716 -1.3893  0.2148  0.1552
10292SOL    HW233415   7.665   6.751   7.739 -0.0295 -0.1871  0.0184
10293SOL     OW33416   6.433   0.861   8.770 -0.3030 -0.3873  0.1053
10293SOL    HW133417   6.486   0.806   8.828 -1.0747 -1.7228 -0.4374
10293SOL    HW233418   6.344   0.853   8.805 -0.5105  0.0838 -0.3174
10294SOL     OW33419   1.151   7.861   8.207 -0.3186 -0.4620  0.1898
10294SOL    HW133420   1.211   7.936   8.206 -0.1369 -0.6179 -0.6753
10294SOL    HW233421   1.144   7.838   8.300  0.9418 -0.4198  0.3127
10295SOL     OW33422   0.303   9.364   1.529  0.5750  0.4163  0.0506
10295SOL    HW133423   0.218   9.400   1.552  1.3969  1.8054  1.0609
10295SOL    HW233424   0.294   9.336   1.438 -1.6156 -1.6202  0.8806
10296SOL     OW33425   9.735   7.201   6.186  0.1548 -0.1364  0.1264
10296SOL    HW133426   9.793   7.125   6.192  1.2700  0.7778  0.9970
10296SOL    HW233427   9.753   7.252   6.265 -0.9494  0.7897 -0.2007
10297SOL     OW33428   0.565   5.575   6.791 -0.3150 -0.3563  0.1208
10297SOL    HW133429   0.623   5.539   6.858 -1.3346 -2.6121 -0.1670
10297SOL    HW233430   0.602   5.546   6.708  0.0042  1.0090 -0.2159
10298SOL     OW33431   3.642   0.887   6.693  0.0279  0.0665 -0.4526
10298SOL    HW133432   3.603   0.850   6.614  0.1363 -1.0758  0.0180
10298SOL    HW233433   3.717   0.831   6.710 -0.1587  0.1486  0.6246
10299SOL     OW33434   2.709   8.168   6.704  0.1068  0.0933  0.1319
10299SOL    HW133435   2.779   8.105   6.725 -1.5857 -2.1896 -0.8450
10299SOL    HW233436   2.649   8.163   6.779 -0.0969  0.4651 -0.0065
10300SOL     OW33437   3.953   2.297   0.968 -0.3453 -1.1625 -0.2911
10300SOL    HW133438   4.020   2.318   0.903  0.7097  0.0845  1.1302
10300SOL    HW233439   3.916   2.214   0.940 -0.2512 -0.4196 -2.7251
10301SOL     OW33440   8.049   3.481   8.325 -0.4223 -0.0346 -0.8119
10301SOL    HW133441   7.963   3.440   8.325 -0.6236  0.3951 -0.2576
10301SOL    HW233442   8.109   3.411   8.350 -0.8849  0.2440  1.1446
10302SOL     OW33443  10.059   0.615   9.789 -0.1595 -0.7267 -0.1224
10302SOL    HW133444  10.088   0.535   9.745 -0.4701 -1.3521  0.7917
10302SOL    HW233445   9.965   0.620   9.770 -0.4795 -1.4787  1.1840
10303SOL     OW33446   3.495   2.596   6.839 -0.2279 -0.1882  0.4779
10303SOL    HW133447   3.587   2.571   6.845  0.0337  1.0222  1.7570
10303SOL    HW233448   3.465   2.560   6.755  1.8307  0.8289 -0.7263
10304SOL     OW33449   5.708   7.467   6.391 -0.3321  0.3225  0.3210
10304SOL    HW133450   5.753   7.388   6.421  1.5407  1.5353  0.8058
10304SOL    HW233451   5.647   7.436   6.324  1.4743 -1.3536 -0.6129
10305SOL     OW33452   1.608   6.637   4.330 -0.4459  0.3192  0.3324
10305SOL    HW133453   1.682   6.696   4.345  0.4598 -0.0073 -2.5539
10305SOL    HW233454   1.640   6.574   4.266 -2.8742 -0.5457 -0.0813
10306SOL     OW33455   3.249   6.039   2.434 -0.2725  0.1703  0.1393
10306SOL    HW133456   3.170   6.028   2.487 -0.9908  0.3191 -0.8768
10306SOL    HW233457   3.277   5.950   2.413 -0.6440  0.1304 -0.1877
10307SOL     OW33458   3.366   4.666   9.647 -0.4628  0.0158  0.2869
10307SOL    HW133459   3.402   4.650   9.734  0.4352  0.8812  0.0826
10307SOL    HW233460   3.367   4.762   9.638  1.2570 -0.1375 -1.4227
10308SOL     OW33461   5.050   8.465   7.746  0.2319  0.0500  1.0008
10308SOL    HW133462   5.067   8.524   7.673 -1.6553  0.2328  0.6877
10308SOL    HW233463   5.137   8.443   7.780  1.0758  0.8397 -0.5933
10309SOL     OW33464   7.645   9.227   0.534 -0.2006  0.1675  0.2581
10309SOL    HW133465   7.680   9.227   0.623 -0.5436  2.5450  0.4393
10309SOL    HW233466   7.550   9.237   0.546 -0.5888 -2.4393 -0.3225
10310SOL     OW33467   6.672   4.524   1.455  0.7950 -0.5015  0.0988
10310SOL    HW133468   6.606   4.590   1.435  1.4906  0.6545  1.5309
10310SOL    HW233469   6.690   4.482   1.371 -3.2316 -2.2584  0.0255
10311SOL     OW33470   4.561   3.144   5.150 -0.1163  0.1561 -0.1545
10311SOL    HW133471   4.631   3.125   5.087  1.7283  2.0398  1.2666
10311SOL    HW233472   4.541   3.237   5.138 -0.4868  0.2822  1.2949
10312SOL     OW33473  10.170   7.608   2.597 -0.1824  0.5090 -0.1696
10312SOL    HW133474  10.265   7.620   2.594 -0.0036 -1.1887 -2.0690
10312SOL    HW233475  10.137   7.652   2.519 -0.8411  0.0009 -0.1889
10313SOL     OW33476   7.443   1.239   7.183 -0.4452  0.2745 -0.2212
10313SOL    HW133477   7.380   1.194   7.240  1.6858  0.5458  2.4341
10313SOL    HW233478   7.392   1.309   7.142 -1.5549  1.5973  3.2320
10314SOL     OW33479   7.366   4.672   2.054  0.1398 -0.0492  0.0796
10314SOL    HW133480   7.402   4.758   2.032 -0.1277 -0.0019 -0.1825
10314SOL    HW233481   7.432   4.610   2.023  0.6657  0.0832  0.9241
10315SOL     OW33482   7.772   4.658   4.898 -0.0924 -0.6894  0.0565
10315SOL    HW133483   7.851   4.699   4.932 -1.4005  0.7691  1.4260
10315SOL    HW233484   7.792   4.564   4.896  1.6411 -0.3403  0.4098
10316SOL     OW33485   9.946   8.713   8.811 -0.3397  0.0925  0.2222
10316SOL    HW133486   9.990   8.786   8.855  1.7006 -0.7302 -0.3776
10316SOL    HW233487   9.872   8.692   8.867 -0.2924  1.8871  0.9960
10317SOL     OW33488   2.275   3.341   4.385 -0.0346 -0.4200 -0.0237
10317SOL    HW133489   2.353   3.396   4.397 -0.5304  0.0619  0.9822
10317SOL    HW233490   2.306   3.253   4.405  0.2936 -0.2528  0.2244
10318SOL     OW33491   4.014   4.585   6.492 -0.0733  0.1870 -0.1854
10318SOL    HW133492   4.028   4.492   6.513 -0.4180  0.1365 -0.1594
10318SOL    HW233493   4.055   4.632   6.564 -1.3904  0.0103  0.7052
10319SOL     OW33494   8.369   5.610   3.915  0.4886  0.6278  0.7068
10319SOL    HW133495   8.411   5.534   3.875  1.2886  1.1047  0.6263
10319SOL    HW233496   8.369   5.591   4.009 -0.4506 -0.0296  0.5770
10320SOL     OW33497   8.869   3.932   9.087 -0.6662  0.0218  0.3864
10320SOL    HW133498   8.923   3.965   9.015 -0.7158  0.0321  0.3545
10320SOL    HW233499   8.856   3.839   9.067  1.9101 -0.7317  1.9654
10321SOL     OW33500   0.498   1.507   5.930 -0.0308 -0.4394 -0.1803
10321SOL    HW133501   0.453   1.589   5.907  0.3751 -0.3524 -0.6714
10321SOL    HW233502   0.459   1.441   5.872  0.3174 -0.4046 -0.4587
10322SOL     OW33503  10.151   2.298   0.054  0.0502  0.1461  0.0670
10322SOL    HW133504  10.110   2.212   0.045  0.1692  0.1546 -0.5448
10322SOL    HW233505  10.226   2.296  -0.005 -0.2034  0.8235 -0.2956
10323SOL     OW33506   3.279   3.098   2.033 -0.1587  0.2259  0.0136
10323SOL    HW133507   3.250   3.178   1.990 -1.6295 -0.0470  0.4871
10323SOL    HW233508   3.292   3.036   1.961  0.9580  0.8688 -0.3509
10324SOL     OW33509   8.403   4.069   1.273  0.4846 -0.6591 -0.3163
10324SOL    HW133510   8.428   4.150   1.318 -2.1371 -1.2863  2.4188
10324SOL    HW233511   8.453   4.071   1.192  2.3923  2.4709  0.8303
10325SOL     OW33512   3.231   8.003   8.413 -0.0790 -0.4626 -0.4249
10325SOL    HW133513   3.216   8.093   8.384  1.1878 -0.3076 -0.6557
10325SOL    HW233514   3.145   7.969   8.435 -0.4495  1.1720  0.7212
10326SOL     OW33515   0.513   5.145   9.247 -0.0796 -0.3133 -0.0319
10326SOL    HW133516   0.586   5.135   9.186  0.3240  0.3367  0.3424
10326SOL    HW233517   0.524   5.233   9.283 -0.2971 -0.7067  1.0093
10327SOL     OW33518   3.569   3.568   4.816 -0.2263  0.0601 -0.0071
10327SOL    HW133519   3.564   3.633   4.886  0.7005  0.2898 -0.1548
10327SOL    HW233520   3.504   3.502   4.840  0.8479 -0.4184  1.6400
10328SOL     OW33521   1.801   5.960   2.367  0.6562  0.1550 -0.9821
10328SOL    HW133522   1.893   5.981   2.353  1.0902 -0.8129  0.3068
10328SOL    HW233523   1.778   5.902   2.294  1.4131 -0.5763 -0.6488
10329SOL     OW33524   4.441   7.501   7.930 -0.1441  0.4481  0.2509
10329SOL    HW133525   4.530   7.473   7.952 -0.7776 -1.6644  0.2562
10329SOL    HW233526   4.439   7.501   7.834 -1.0345 -2.6958  0.2042
10330SOL     OW33527   0.680   4.982   6.831  0.4662  0.4849 -0.4399
10330SOL    HW133528   0.683   5.064   6.781  0.2022  0.7525 -0.0168
10330SOL    HW233529   0.627   4.924   6.778 -1.0967  1.2609  0.2561
10331SOL     OW33530   0.287   7.860   6.385 -0.8788  0.1685  0.3603
10331SOL    HW133531   0.273   7.900   6.471  0.8881 -0.8255  1.1302
10331SOL    HW233532   0.375   7.822   6.391 -0.5991  0.4115 -2.0098
10332SOL     OW33533   3.434   0.603   4.199  0.3263  0.1597  0.5516
10332SOL    HW133534   3.464   0.692   4.216  1.4439 -0.0371 -0.3335
10332SOL    HW233535   3.340   0.606   4.215  0.3074  1.5771  0.2292
10333SOL     OW33536   6.557   6.580   3.388 -0.1443  0.0046  0.1949
10333SOL    HW133537   6.559   6.675   3.403 -0.6191 -0.0190  0.4177
10333SOL    HW233538   6.643   6.550   3.418 -0.4389  0.2026  1.2863
10334SOL     OW33539  10.149  10.151   3.370  0.0717  0.4565 -0.3867
10334SOL    HW133540  10.128  10.145   3.277 -0.9882  3.3525 -0.4059
10334SOL    HW233541  10.226  10.208   3.374  1.2651 -1.1821  0.4080
10335SOL     OW33542   4.398   0.864   5.865  0.0222 -0.1373  0.4142
10335SOL    HW133543   4.370   0.785   5.819  0.6618 -1.0346  1.5237
10335SOL    HW233544   4.358   0.856   5.952  0.1471  0.7352  0.5579
10336SOL     OW33545   7.065   6.253   6.019 -0.2394 -0.2861  0.2411
10336SOL    HW133546   7.148   6.230   5.978  0.0341 -0.0341  0.6421
10336SOL    HW233547   7.004   6.264   5.946  0.6160  1.6929 -0.2230
10337SOL     OW33548   0.299   3.019   9.749 -0.3950  0.6777  0.0567
10337SOL    HW133549   0.234   3.077   9.709  1.2106  0.8789 -2.3328
10337SOL    HW233550   0.321   3.062   9.832 -2.9182  0.8539  0.6554
10338SOL     OW33551   4.607  10.024   2.918  0.6021 -0.5721 -0.6893
10338SOL    HW133552   4.606  10.050   2.826 -0.9280 -1.1152 -0.8338
10338SOL    HW233553   4.642   9.935   2.917 -0.5225 -1.0227 -0.8765
10339SOL     OW33554   9.342   6.177   1.694 -0.1791 -0.2256  0.0887
10339SOL    HW133555   9.335   6.262   1.738 -0.0905 -0.7611  1.1675
10339SOL    HW233556   9.258   6.167   1.648  0.2276  0.9081 -0.9049
10340SOL     OW33557   3.198   0.060   5.137 -0.1018  0.3370 -0.3173
10340SOL    HW133558   3.121   0.012   5.107 -1.4425  1.1482  1.7051
10340SOL    HW233559   3.169   0.105   5.216  2.6778  0.0122  0.9693
10341SOL     OW33560   1.667   8.389   4.090 -0.4513  0.1721 -0.2803
10341SOL    HW133561   1.684   8.380   4.184 -0.2405 -2.4248 -0.5313
10341SOL    HW233562   1.660   8.483   4.076  1.6967  0.7239  1.9647
10342SOL     OW33563  10.002   5.835   5.951 -0.1616  0.6984 -1.2459
10342SOL    HW133564   9.972   5.859   5.863  0.0001  0.4140 -1.3783
10342SOL    HW233565  10.087   5.879   5.960 -0.5033  1.3021 -0.9640
10343SOL     OW33566   0.033   5.683   2.678  0.3665 -0.7173  0.0879
10343SOL    HW133567   0.124   5.695   2.651  0.1870 -0.2919 -0.3384
10343SOL    HW233568   0.039   5.632   2.759  0.9675 -0.9473 -0.0946
10344SOL     OW33569   6.626   0.477   1.006 -0.2713 -0.1235  0.0594
10344SOL    HW133570   6.666   0.479   1.093  0.1877 -0.4587 -0.1383
10344SOL    HW233571   6.598   0.567   0.990  0.5068  0.1441  0.1661
10345SOL     OW33572   7.974   0.500   0.375 -0.4267  0.2331 -0.5805
10345SOL    HW133573   8.031   0.423   0.382  0.1440  0.6844 -0.2611
10345SOL    HW233574   7.920   0.496   0.455 -0.1029  0.4001 -0.3526
10346SOL     OW33575   2.957   6.886   3.860  0.1676  0.3977 -0.2259
10346SOL    HW133576   2.950   6.974   3.822 -0.7517  0.4810  0.1295
10346SOL    HW233577   3.002   6.834   3.794 -1.4222  0.5399 -1.4355
10347SOL     OW33578   1.296   2.058   9.608 -0.4030  0.0400  0.3706
10347SOL    HW133579   1.292   1.987   9.673 -2.7021 -0.0018  0.2503
10347SOL    HW233580   1.257   2.133   9.652 -3.1900 -0.3340 -1.3110
10348SOL     OW33581  10.036   5.119   5.145 -0.2796 -0.2773  0.4278
10348SOL    HW133582  10.130   5.100   5.148 -0.1538  0.4773  1.9501
10348SOL    HW233583   9.996   5.053   5.201 -0.6066 -0.2958  0.1757
10349SOL     OW33584   3.179   7.046   3.308 -0.0840  0.0687 -0.1252
10349SOL    HW133585   3.130   7.113   3.260  0.2739 -1.5969 -2.9215
10349SOL    HW233586   3.114   6.980   3.332 -0.2210  0.7807  1.5765
10350SOL     OW33587   3.275   2.817   6.259 -0.5429 -0.3367 -0.2152
10350SOL    HW133588   3.353   2.872   6.256 -0.1358 -0.9037 -0.0982
10350SOL    HW233589   3.209   2.865   6.209 -0.1945  0.2637 -0.0955
10351SOL     OW33590   9.622   1.286   5.096  0.0686  0.6362  0.4291
10351SOL    HW133591   9.592   1.368   5.136 -1.2238 -0.1607  1.1037
10351SOL    HW233592   9.615   1.221   5.165  1.6659  0.0448  0.0734
10352SOL     OW33593   4.340   6.085   5.122 -0.5288  0.0194  0.4237
10352SOL    HW133594   4.253   6.053   5.098 -0.1288 -1.6219  1.0849
10352SOL    HW233595   4.324   6.169   5.165 -1.5762  0.9353 -1.6888
10353SOL     OW33596   8.882   1.828   2.268  0.1660  0.0333 -0.0266
10353SOL    HW133597   8.801   1.782   2.290  1.2670 -1.5499  0.8388
10353SOL    HW233598   8.929   1.768   2.210 -0.1140  1.7631 -2.1056
10354SOL     OW33599   0.228   9.348   3.756 -0.2777  0.0496 -0.6590
10354SOL    HW133600   0.182   9.426   3.786  1.0792  0.2959  0.8700
10354SOL    HW233601   0.302   9.339   3.817  0.4376 -1.5633 -1.7311
10355SOL     OW33602   3.685   8.721   8.349 -0.0450  0.1463 -0.1327
10355SOL    HW133603   3.657   8.655   8.412  0.2758 -0.2711 -0.4210
10355SOL    HW233604   3.637   8.800   8.374  0.4314  0.1132  0.9182
10356SOL     OW33605   6.857   9.304   4.142  0.3024 -0.2667 -0.5460
10356SOL    HW133606   6.851   9.330   4.050  0.7715  0.0451 -0.4910
10356SOL    HW233607   6.878   9.211   4.139  0.9019 -0.1305 -0.7644
10357SOL     OW33608   8.399   6.925   2.433 -0.0161  0.0278  0.3315
10357SOL    HW133609   8.480   6.922   2.382 -0.0249 -3.3044  0.3766
10357SOL    HW233610   8.333   6.884   2.376 -0.5132 -1.7902  2.1415
10358SOL     OW33611   8.211   5.112   7.517  0.0589 -0.2538  0.4628
10358SOL    HW133612   8.275   5.048   7.486 -1.2623 -2.6931  2.5537
10358SOL    HW233613   8.252   5.153   7.593 -0.6971 -1.6287  1.6417
10359SOL     OW33614   1.179  10.191   7.825 -0.5038 -0.2563  0.3471
10359SOL    HW133615   1.220  10.104   7.819 -0.5644 -0.3064  0.6723
10359SOL    HW233616   1.121  10.185   7.901  0.3622  0.4368  1.0778
10360SOL     OW33617   3.701   3.222   0.540 -0.0673  0.3305 -0.2760
10360SOL    HW133618   3.649   3.277   0.482 -0.8205 -1.0489 -0.9391
10360SOL    HW233619   3.766   3.181   0.483 -1.0794 -1.3592 -0.2542
10361SOL     OW33620   4.626   7.187   8.870  0.3051 -0.0055  0.3709
10361SOL    HW133621   4.667   7.171   8.954  0.3722  1.4174  0.6328
10361SOL    HW233622   4.580   7.106   8.849  0.4416 -0.4278  1.6808
10362SOL     OW33623   9.154   6.689   6.746  0.0003 -0.6588 -0.5178
10362SOL    HW133624   9.065   6.659   6.729  0.1573 -1.2965 -0.2081
10362SOL    HW233625   9.203   6.610   6.766  0.1369 -0.0780  1.5288
10363SOL     OW33626   3.576   7.521   2.514 -0.4685  0.3190  0.0049
10363SOL    HW133627   3.551   7.462   2.584 -1.3890  0.1177 -0.4856
10363SOL    HW233628   3.554   7.474   2.433  0.7911  0.4461 -0.4287
10364SOL     OW33629   1.920   4.884   3.619  0.1135 -0.4598 -0.7737
10364SOL    HW133630   1.918   4.837   3.535  1.6259 -0.1991 -0.9660
10364SOL    HW233631   1.977   4.959   3.603  2.3169 -1.6615  1.0988
10365SOL     OW33632   7.317   3.514   1.745 -0.3553 -0.2648  0.3720
10365SOL    HW133633   7.359   3.561   1.817 -2.6724  0.4246  1.2977
10365SOL    HW233634   7.390   3.477   1.695  1.3348  0.6668  2.1010
10366SOL     OW33635   7.906   9.532   9.140  0.4082  0.2846  0.4080
10366SOL    HW133636   7.986   9.553   9.188  1.3814 -1.9441 -0.1723
10366SOL    HW233637   7.870   9.617   9.116  1.8687  1.3543  1.8649
10367SOL     OW33638   1.624   1.744   9.031  0.1469 -0.0894 -0.2044
10367SOL    HW133639   1.570   1.690   8.974  1.1611 -1.3476  0.0271
10367SOL    HW233640   1.714   1.725   9.006  0.5319  1.4017 -0.0383
10368SOL     OW33641   3.684   5.749   7.691 -0.2544  0.5363 -0.1025
10368SOL    HW133642   3.618   5.686   7.718 -0.8441  1.2319  0.1117
10368SOL    HW233643   3.751   5.697   7.645 -0.6144 -0.2613  0.2727
10369SOL     OW33644   2.092   3.059   8.265  0.1135 -0.3811 -0.1050
10369SOL    HW133645   2.122   2.968   8.264  0.8133 -0.1542 -2.0833
10369SOL    HW233646   2.082   3.080   8.358  0.8522 -2.1851  0.4007
10370SOL     OW33647   3.582   2.380   5.960 -0.1193 -0.2977  0.2029
10370SOL    HW133648   3.632   2.302   5.935 -0.5896 -0.4965 -0.1289
10370SOL    HW233649   3.516   2.389   5.891  1.6823  2.0193 -1.2744
10371SOL     OW33650   6.068   1.839   6.371  0.1630 -0.6711  0.0319
10371SOL    HW133651   6.051   1.909   6.434 -0.9569 -0.8434 -0.0721
10371SOL    HW233652   6.065   1.882   6.285 -0.8489 -0.8855 -0.0539
10372SOL     OW33653   4.899   9.625   5.151  0.4495  0.0979  0.1365
10372SOL    HW133654   4.905   9.712   5.190  1.4732  0.1178 -0.0579
10372SOL    HW233655   4.972   9.620   5.090  0.3355 -0.8615  0.0628
10373SOL     OW33656   6.011   0.728   6.015 -0.1401 -0.7121  0.4309
10373SOL    HW133657   6.062   0.806   6.038 -0.5594 -0.6107  1.0384
10373SOL    HW233658   6.076   0.661   5.997  0.2313 -1.2783  3.5945
10374SOL     OW33659   1.073   6.557   4.641 -0.1650  0.3396 -0.1422
10374SOL    HW133660   1.049   6.465   4.653 -0.9595  0.4359 -0.9068
10374SOL    HW233661   0.990   6.603   4.634  0.2272  1.2615  1.2272
10375SOL     OW33662   7.100   2.549   0.127 -0.1394  0.2210 -0.1128
10375SOL    HW133663   7.129   2.640   0.118  0.6466  0.0197  0.3250
10375SOL    HW233664   7.174   2.497   0.094 -0.5448 -0.2648 -0.2655
10376SOL     OW33665   0.540   8.316   9.453  0.4435 -0.4992  0.3487
10376SOL    HW133666   0.523   8.223   9.466  1.3702 -0.8060 -0.5587
10376SOL    HW233667   0.552   8.351   9.542 -0.2584 -1.1745  0.7121
10377SOL     OW33668   9.186   7.564   9.504 -0.2170 -0.6216  0.1963
10377SOL    HW133669   9.114   7.569   9.566 -0.4242  0.1859 -0.1120
10377SOL    HW233670   9.228   7.480   9.523  1.0130  0.5588  2.8511
10378SOL     OW33671   2.040   9.174   4.110  0.7639  0.5131  0.3952
10378SOL    HW133672   1.990   9.120   4.170 -1.6151 -0.8233 -2.6540
10378SOL    HW233673   2.113   9.119   4.082 -0.2476 -0.2547 -0.7809
10379SOL     OW33674   3.862   0.545   9.450  0.0510  1.0353 -0.1504
10379SOL    HW133675   3.940   0.579   9.496  1.1036 -0.0903 -1.0686
10379SOL    HW233676   3.861   0.593   9.368 -0.3632  1.2015 -0.0490
10380SOL     OW33677   9.010   0.816   9.332 -0.4326  0.6407  0.0506
10380SOL    HW133678   9.032   0.894   9.282 -0.8027  0.1367 -0.9163
10380SOL    HW233679   8.972   0.757   9.268  0.0680 -0.4312  0.7324
10381SOL     OW33680   0.880   0.246   9.475 -0.0554 -0.1701 -0.7300
10381SOL    HW133681   0.947   0.298   9.432 -0.0487  0.6519  0.2567
10381SOL    HW233682   0.886   0.270   9.567 -1.9415  0.1876 -0.6784
10382SOL     OW33683   6.256   2.859   1.038  0.3703  0.0895  0.4254
10382SOL    HW133684   6.268   2.888   1.129  1.2203  2.0670 -0.2756
10382SOL    HW233685   6.260   2.763   1.043 -1.4066  0.0843  2.6960
10383SOL     OW33686   6.004   0.305   5.070 -0.2292 -0.3979  0.2414
10383SOL    HW133687   6.084   0.265   5.034 -0.8452 -1.8292  0.4097
10383SOL    HW233688   5.940   0.234   5.069 -1.3038  0.5553  0.7603
10384SOL     OW33689   4.118   5.358   7.139 -0.5570 -0.3044 -0.0562
10384SOL    HW133690   4.136   5.447   7.107 -1.4104  0.0577  0.4509
10384SOL    HW233691   4.168   5.301   7.081 -1.5426  0.3856 -1.6433
10385SOL     OW33692   0.858   2.801   0.905 -0.5322 -0.7428 -0.0853
10385SOL    HW133693   0.840   2.806   0.811 -2.5162 -0.3332  0.2989
10385SOL    HW233694   0.772   2.805   0.947  0.4745  2.0892  1.8949
10386SOL     OW33695   4.421   5.930   3.932 -0.3089 -0.0554 -0.1783
10386SOL    HW133696   4.341   5.929   3.879 -1.2460 -1.7362  1.2125
10386SOL    HW233697   4.391   5.957   4.019  0.5917 -0.9531  0.4153
10387SOL     OW33698   5.786   1.948   6.299 -0.3043  0.2841 -0.0196
10387SOL    HW133699   5.855   1.949   6.233  0.6805  0.5306  1.0091
10387SOL    HW233700   5.705   1.942   6.248  0.4645 -0.0186 -1.2306
10388SOL     OW33701   3.894   9.840   2.429 -0.1660  0.0412 -0.0477
10388SOL    HW133702   3.949   9.803   2.360 -2.3147 -1.5018 -0.9471
10388SOL    HW233703   3.913   9.786   2.506  0.7772  0.5445  0.0831
10389SOL     OW33704   4.733   5.894   4.375 -0.6220 -0.0268  0.4990
10389SOL    HW133705   4.656   5.932   4.417  0.3411  2.5885 -0.0667
10389SOL    HW233706   4.699   5.855   4.294 -1.0108  3.2594 -0.9628
10390SOL     OW33707   2.298   3.267   3.437  0.0528  0.1710  0.0978
10390SOL    HW133708   2.301   3.330   3.509 -0.7992 -0.4709  0.7033
10390SOL    HW233709   2.339   3.188   3.472 -0.4336 -0.1709 -0.1066
10391SOL     OW33710   2.763   4.603   5.759  0.0531  0.1669  0.4374
10391SOL    HW133711   2.841   4.579   5.808  0.6453  0.2671 -0.4425
10391SOL    HW233712   2.705   4.643   5.824  0.5250 -0.3591  1.1905
10392SOL     OW33713   0.132   9.504   0.436 -0.3538  0.0020 -0.0378
10392SOL    HW133714   0.149   9.596   0.417  0.6147  0.1438  1.4234
10392SOL    HW233715   0.170   9.457   0.361 -0.2353  0.7515 -0.4517
10393SOL     OW33716   9.868   7.323   1.934 -0.2165  0.0880 -0.2118
10393SOL    HW133717   9.807   7.254   1.907 -1.0291  1.1380 -1.1335
10393SOL    HW233718   9.823   7.367   2.006  0.9839 -1.3055  1.4330
10394SOL     OW33719   4.620   6.550   9.951 -0.2517 -0.0643 -1.0511
10394SOL    HW133720   4.657   6.583   9.869 -0.9010 -0.1651 -1.3828
10394SOL    HW233721   4.539   6.599   9.962  0.9487  1.6222  0.7076
10395SOL     OW33722   5.833   8.519   3.313  0.1812  0.3038  0.7680
10395SOL    HW133723   5.746   8.523   3.352  0.3383  1.1038  1.0451
10395SOL    HW233724   5.864   8.609   3.313  1.6271 -0.1691  2.0774
10396SOL     OW33725   5.214   9.578   7.889  0.0436 -0.4777 -0.1503
10396SOL    HW133726   5.176   9.641   7.952 -0.9728 -0.5288 -0.7029
10396SOL    HW233727   5.302   9.611   7.873 -1.2392  2.1211 -2.1773
10397SOL     OW33728   0.183   7.384   9.565  0.1803  0.3899  0.0678
10397SOL    HW133729   0.201   7.416   9.477  1.0137 -0.1678  0.0333
10397SOL    HW233730   0.269   7.365   9.602 -0.1972  0.0513  0.7862
10398SOL     OW33731   3.119   9.892   3.281  0.0706  0.2285  0.3126
10398SOL    HW133732   3.052   9.957   3.302 -0.6168 -0.3417 -0.0547
10398SOL    HW233733   3.181   9.938   3.224  0.4269  0.9853  1.2902
10399SOL     OW33734   4.747   5.123   1.223 -0.1245  1.1605 -0.6426
10399SOL    HW133735   4.672   5.078   1.185 -1.7882  2.7046  0.7724
10399SOL    HW233736   4.810   5.053   1.242 -1.1628 -0.1281 -1.8667
10400SOL     OW33737   4.833   5.364   7.775  0.1044  0.2985 -0.0513
10400SOL    HW133738   4.792   5.285   7.811 -0.1282 -0.8443 -2.6757
10400SOL    HW233739   4.761   5.409   7.731  0.5586  1.1672  0.0969
10401SOL     OW33740   0.052   0.191   4.461 -0.4208  0.4703  0.5125
10401SOL    HW133741  -0.021   0.146   4.504 -0.5835  1.2158  1.0405
10401SOL    HW233742   0.024   0.203   4.371 -0.4061 -0.4129  0.3900
10402SOL     OW33743   0.977   4.353   1.348 -0.7154 -0.0498 -0.4585
10402SOL    HW133744   1.042   4.283   1.348  0.3908  0.9517 -0.7170
10402SOL    HW233745   0.990   4.397   1.264 -0.0613  1.6520  0.5013
10403SOL     OW33746   2.211   6.988   8.355  0.1209 -0.3894 -0.4385
10403SOL    HW133747   2.175   6.974   8.268 -1.1541 -0.9214  0.1673
10403SOL    HW233748   2.136   7.013   8.408  0.9241  0.1239  0.4674
10404SOL     OW33749   0.251   5.886   8.751  0.1648  0.2333  0.1198
10404SOL    HW133750   0.278   5.899   8.660 -0.0196  1.0386  0.1712
10404SOL    HW233751   0.245   5.791   8.762  1.7395  0.0729 -0.2570
10405SOL     OW33752   9.714   7.011   7.229  0.3308 -0.4920  0.1919
10405SOL    HW133753   9.733   6.935   7.174  0.6227  0.2389 -0.7345
10405SOL    HW233754   9.792   7.066   7.221 -0.2848  0.3734  0.0345
10406SOL     OW33755   3.532   3.953   5.332 -0.1641 -0.3438  0.3762
10406SOL    HW133756   3.511   4.030   5.280 -1.4621 -1.0929 -0.2234
10406SOL    HW233757   3.556   3.886   5.268  0.4678 -0.6013  0.8673
10407SOL     OW33758   1.210   1.012   5.858  0.1233 -0.0193 -0.5936
10407SOL    HW133759   1.252   0.928   5.842  1.8298  0.6797  0.1267
10407SOL    HW233760   1.209   1.055   5.772 -1.2403 -0.9907 -1.0651
10408SOL     OW33761   0.981   9.199   6.946  0.5148 -0.1393  0.5080
10408SOL    HW133762   0.998   9.238   7.032  1.9316  0.9521 -0.2399
10408SOL    HW233763   0.891   9.222   6.927  0.6618  0.9108  1.0487
10409SOL     OW33764   7.913   9.882   6.245  0.4882  0.3609  0.6520
10409SOL    HW133765   7.828   9.883   6.287  0.6098 -0.1811  0.9241
10409SOL    HW233766   7.975   9.861   6.316  0.5936 -1.4372  0.0628
10410SOL     OW33767   9.057   0.187   2.847 -0.0752  0.1494 -0.2797
10410SOL    HW133768   9.030   0.241   2.921 -1.5286  0.5838 -1.1229
10410SOL    HW233769   8.986   0.195   2.784 -0.7525 -3.4866 -0.0484
10411SOL     OW33770   7.707   8.998   2.820 -0.0984 -0.1447  0.0883
10411SOL    HW133771   7.669   8.913   2.844 -0.0711 -0.1770  0.0147
10411SOL    HW233772   7.791   9.000   2.864 -1.1963  0.9490  2.2205
10412SOL     OW33773   3.894   5.338   3.330 -0.7138 -0.1547 -0.2994
10412SOL    HW133774   3.924   5.384   3.251  0.2152 -0.7190 -0.2774
10412SOL    HW233775   3.894   5.246   3.306  1.0613 -0.4727  0.8358
10413SOL     OW33776   6.394   4.668   0.711 -0.1331 -0.2412 -0.3949
10413SOL    HW133777   6.326   4.691   0.774 -0.2246 -1.6626  0.0436
10413SOL    HW233778   6.353   4.678   0.625 -0.4244  0.3654 -0.1867
10414SOL     OW33779   2.692   4.680   0.346  0.3649  0.3661 -0.5514
10414SOL    HW133780   2.632   4.748   0.377 -0.7241  0.5190 -2.9120
10414SOL    HW233781   2.649   4.598   0.370  0.8321  0.4827  0.7243
10415SOL     OW33782   7.708   5.081   2.952  0.1996 -0.3175  0.6817
10415SOL    HW133783   7.766   5.155   2.972 -0.7366  0.6511 -0.1056
10415SOL    HW233784   7.621   5.112   2.978 -0.5239 -0.3167 -1.6701
10416SOL     OW33785   0.711   9.607   3.086  0.4534 -0.1092 -0.0796
10416SOL    HW133786   0.680   9.602   3.177  0.2201 -0.0224 -0.1533
10416SOL    HW233787   0.704   9.700   3.064  0.9381 -0.0650 -0.0365
10417SOL     OW33788   4.923   8.823   3.093 -0.1035  0.1820  0.0592
10417SOL    HW133789   4.988   8.774   3.041  0.0350  0.5926 -0.1544
10417SOL    HW233790   4.875   8.874   3.029 -1.3692 -0.9349  0.0949
10418SOL     OW33791   6.450   1.640   3.466 -0.5033  0.1410 -0.1097
10418SOL    HW133792   6.519   1.589   3.423  1.2614  2.4113 -0.1051
10418SOL    HW233793   6.415   1.695   3.396 -0.1814  1.1944  0.5525
10419SOL     OW33794   0.165   3.246   6.489 -0.5221 -0.1533  0.8316
10419SOL    HW133795   0.114   3.193   6.428  0.7304  0.6412 -0.9352
10419SOL    HW233796   0.102   3.308   6.526 -1.1864 -0.3316  0.0049
10420SOL     OW33797   8.885   9.790   7.587 -0.2161  0.6000  0.0780
10420SOL    HW133798   8.901   9.750   7.501  0.8247 -0.2118  0.6323
10420SOL    HW233799   8.945   9.744   7.646 -2.3498 -0.2502  1.6331
10421SOL     OW33800   5.771   7.117   5.020  0.0813 -0.0744  0.1866
10421SOL    HW133801   5.707   7.179   5.054 -0.6244 -0.8864  0.3875
10421SOL    HW233802   5.718   7.047   4.982  0.8610  0.5472 -2.1270
10422SOL     OW33803   1.462   2.651   1.336  0.0213 -0.2887 -0.0763
10422SOL    HW133804   1.555   2.628   1.327  0.1251  0.4356 -0.9901
10422SOL    HW233805   1.419   2.602   1.266 -0.1724 -0.0146 -0.1481
10423SOL     OW33806   8.542   3.463   0.597 -0.4563 -0.3036 -0.2645
10423SOL    HW133807   8.636   3.445   0.598 -0.3273  0.2255 -1.7482
10423SOL    HW233808   8.506   3.407   0.667  0.9246 -0.6319  0.2019
10424SOL     OW33809  10.047   3.840   1.093  0.6820 -0.2614 -0.3332
10424SOL    HW133810  10.101   3.907   1.136  1.9684 -0.1005 -2.1322
10424SOL    HW233811   9.998   3.887   1.026  0.5112 -0.8863 -0.6560
10425SOL     OW33812   5.555   1.522   1.777 -0.1141 -0.3363 -0.1381
10425SOL    HW133813   5.612   1.487   1.708 -1.8903 -2.2564 -0.6650
10425SOL    HW233814   5.592   1.487   1.858  0.2314 -0.4980 -0.3612
10426SOL     OW33815   2.345   3.704   5.121 -0.4047 -0.7812 -0.5212
10426SOL    HW133816   2.318   3.792   5.147  2.1091 -0.9347  2.9506
10426SOL    HW233817   2.372   3.713   5.030 -1.8881  1.6050 -0.7751
10427SOL     OW33818   7.041   3.602   1.020 -0.0691 -0.3709  0.5579
10427SOL    HW133819   7.084   3.687   1.028  1.1956 -1.0676  1.4565
10427SOL    HW233820   7.030   3.573   1.111  0.2346 -1.5149  0.2335
10428SOL     OW33821   3.674   2.825   1.367  0.7048  0.0711  0.1667
10428SOL    HW133822   3.668   2.809   1.273 -0.2543  0.9123  0.0756
10428SOL    HW233823   3.729   2.904   1.374  1.4705 -0.4711  0.3646
10429SOL     OW33824   5.570   0.014   9.923 -0.2413  0.4832  0.2663
10429SOL    HW133825   5.665   0.018   9.917 -0.1951 -0.1512  0.4986
10429SOL    HW233826   5.547   0.077   9.992 -0.0732  1.3410 -0.4540
10430SOL     OW33827   4.269   3.656   3.046 -0.3213 -1.0790 -0.0937
10430SOL    HW133828   4.341   3.703   3.088 -0.3612  0.3097 -1.5241
10430SOL    HW233829   4.298   3.565   3.044  1.1902 -0.6139 -0.2091
10431SOL     OW33830  10.187   6.733   8.474  0.1225 -0.3407  0.5157
10431SOL    HW133831  10.205   6.640   8.487 -1.4284 -0.5107  1.6627
10431SOL    HW233832  10.190   6.770   8.563 -0.0617  0.5557  0.1547
10432SOL     OW33833   3.481   5.559   5.852 -0.2018  0.2759  0.6578
10432SOL    HW133834   3.402   5.569   5.905 -0.6497  0.8866 -0.1072
10432SOL    HW233835   3.536   5.634   5.876 -1.1261  1.5187 -0.9324
10433SOL     OW33836   3.525   4.240   5.180 -0.0091 -0.5976  0.2708
10433SOL    HW133837   3.514   4.281   5.265 -0.3445  0.9498 -0.5033
10433SOL    HW233838   3.617   4.211   5.179 -0.0703 -0.8541  1.2374
10434SOL     OW33839   2.527   4.601   1.924 -0.0638  0.1933  0.6447
10434SOL    HW133840   2.578   4.640   1.995 -0.0968 -1.0887  1.3750
10434SOL    HW233841   2.591   4.551   1.873 -0.1761  0.4913  0.2091
10435SOL     OW33842   9.911   6.187   5.897  0.1278  0.3427 -0.3764
10435SOL    HW133843   9.935   6.097   5.920  0.2841  0.6597  0.7305
10435SOL    HW233844   9.979   6.241   5.937  0.0886  0.9453 -1.1214
10436SOL     OW33845   6.284   1.466   6.619 -0.2850  0.0940 -0.2344
10436SOL    HW133846   6.230   1.498   6.691 -0.7840  0.7968 -0.9093
10436SOL    HW233847   6.288   1.540   6.558 -0.9306 -0.9061 -1.5097
10437SOL     OW33848   5.025   6.668   5.133  0.2006 -0.3097  0.6117
10437SOL    HW133849   4.942   6.633   5.101  0.6898  0.5573 -1.6901
10437SOL    HW233850   5.076   6.591   5.157  0.6049 -1.1815 -2.7282
10438SOL     OW33851   9.039   4.577   4.126 -0.6832 -0.0586  0.3075
10438SOL    HW133852   9.045   4.666   4.093  0.9405  0.1625  1.1335
10438SOL    HW233853   8.954   4.546   4.096 -0.0628  0.7659 -2.4406
10439SOL     OW33854   9.068   5.080   8.490  0.5078 -0.4902  0.2944
10439SOL    HW133855   9.134   5.034   8.438 -0.0755  0.2510 -1.1610
10439SOL    HW233856   9.117   5.123   8.559  1.1564 -2.5948  1.1721
10440SOL     OW33857   4.763   0.431   9.817  0.1025  0.8206 -0.0724
10440SOL    HW133858   4.674   0.404   9.842  0.1211  2.7411  2.2966
10440SOL    HW233859   4.820   0.375   9.869  0.2479  0.7010 -0.3620
10441SOL     OW33860   5.085   9.254   0.730  0.7261  0.1424 -0.3362
10441SOL    HW133861   5.034   9.181   0.692 -0.3174  0.3853  0.5989
10441SOL    HW233862   5.027   9.293   0.795  1.4262  1.5923 -0.5625
10442SOL     OW33863   3.705   0.164   6.723 -0.2086 -0.2933 -0.8440
10442SOL    HW133864   3.733   0.087   6.673 -0.3496 -0.0432 -1.3080
10442SOL    HW233865   3.655   0.217   6.660  1.3954  1.0534 -1.0188
10443SOL     OW33866   3.915   4.199   4.669  0.2901  0.1976  0.2623
10443SOL    HW133867   3.821   4.217   4.671  0.3314  0.7036 -1.6103
10443SOL    HW233868   3.955   4.282   4.645  1.0897 -0.3897 -0.4724
10444SOL     OW33869   9.293   4.524   9.354  0.0543  0.0537 -0.1115
10444SOL    HW133870   9.223   4.566   9.304  0.2382  0.3557 -0.1183
10444SOL    HW233871   9.324   4.453   9.297 -2.2847 -2.0504  1.1458
10445SOL     OW33872   8.962   2.132   7.281 -0.3739  0.0606 -0.4544
10445SOL    HW133873   9.004   2.201   7.230 -0.4759 -0.3286 -1.0716
10445SOL    HW233874   8.969   2.161   7.372 -1.9537  1.7081 -0.8475
10446SOL     OW33875   4.357   2.133   0.567  0.2950 -0.0791  0.2503
10446SOL    HW133876   4.350   2.228   0.579 -2.3739 -0.0801 -0.9514
10446SOL    HW233877   4.329   2.119   0.476  0.1671 -2.0891  0.5865
10447SOL     OW33878   4.308   8.262   0.582  0.0090 -0.1362  0.2225
10447SOL    HW133879   4.286   8.347   0.544  0.2183 -0.1180  0.1423
10447SOL    HW233880   4.305   8.277   0.676  0.2639  0.0145  0.2062
10448SOL     OW33881   5.128   6.801   2.761 -0.3335  0.2365  0.5092
10448SOL    HW133882   5.087   6.773   2.843 -2.4474 -1.2703 -1.0009
10448SOL    HW233883   5.178   6.725   2.733 -1.5613 -0.0918 -0.8010
10449SOL     OW33884   4.801   2.887   7.716  0.4078 -0.5479 -0.4483
10449SOL    HW133885   4.795   2.935   7.633  1.5606 -1.4970 -1.0999
10449SOL    HW233886   4.750   2.939   7.778 -0.7939 -0.0256 -1.8479
10450SOL     OW33887   3.754   6.414   1.647  0.2507  0.1255  0.3354
10450SOL    HW133888   3.719   6.489   1.599 -0.4937  1.0082  2.1921
10450SOL    HW233889   3.806   6.366   1.583 -2.0725  0.3461 -1.7742
10451SOL     OW33890   5.939   0.870   9.531  0.0519  0.5923 -0.4894
10451SOL    HW133891   6.020   0.883   9.482  0.5824 -2.9922 -0.7292
10451SOL    HW233892   5.871   0.861   9.465  0.1613 -0.5466 -0.4576
10452SOL     OW33893   6.926   6.199   6.642 -0.5939 -0.4250 -0.5352
10452SOL    HW133894   6.883   6.222   6.724 -1.6662 -1.6421 -0.7452
10452SOL    HW233895   6.945   6.105   6.651 -0.3531 -0.4678 -1.5197
10453SOL     OW33896   4.006   1.792   8.164 -0.2874  0.1172 -0.3740
10453SOL    HW133897   3.959   1.865   8.205  0.0707  0.2011 -0.1059
10453SOL    HW233898   3.987   1.801   8.070  0.3713  1.0120 -0.4322
10454SOL     OW33899   4.415   0.140   7.547  0.0118 -0.3915 -0.2133
10454SOL    HW133900   4.329   0.160   7.583 -1.1034 -2.0320 -1.8357
10454SOL    HW233901   4.418   0.044   7.545  1.0572 -0.3430 -2.0048
10455SOL     OW33902   5.485   7.638   3.289 -0.4640 -0.1056  0.0495
10455SOL    HW133903   5.580   7.645   3.297 -0.2397 -0.2930 -2.3459
10455SOL    HW233904   5.467   7.543   3.294 -0.5144 -0.0892  0.2113
10456SOL     OW33905   7.233   4.144   2.211 -0.4787 -0.5216 -0.6247
10456SOL    HW133906   7.262   4.233   2.186 -1.5816  0.0682  0.1760
10456SOL    HW233907   7.301   4.113   2.271 -1.4323  0.8541  1.2350
10457SOL     OW33908   0.977   2.958   5.039  0.2504 -0.7993  0.3257
10457SOL    HW133909   0.905   2.910   5.079  0.0522 -0.8154 -0.0454
10457SOL    HW233910   1.048   2.953   5.103  1.2009 -4.0148 -0.8959
10458SOL     OW33911   5.470   9.934   0.280 -0.2885  0.2212  0.0942
10458SOL    HW133912   5.479   9.930   0.184 -0.7562 -1.6057  0.1100
10458SOL    HW233913   5.549   9.891   0.313 -0.5232  0.1067  0.5073
10459SOL     OW33914   2.629   2.883   8.321  0.0494 -0.3017  0.2754
10459SOL    HW133915   2.575   2.845   8.252 -0.5446 -1.8953  1.5849
10459SOL    HW233916   2.707   2.914   8.276 -0.6482 -0.6634 -1.2166
10460SOL     OW33917  10.137   6.951   4.737 -0.7963 -0.3379 -0.2352
10460SOL    HW133918  10.149   6.868   4.692  0.0755 -0.4579  0.2108
10460SOL    HW233919  10.147   6.929   4.830 -0.7442  0.2326 -0.1059
10461SOL     OW33920   4.246   5.004   4.047 -0.1082  0.2210 -0.2879
10461SOL    HW133921   4.292   4.937   3.996  0.2255 -0.2968  0.6743
10461SOL    HW233922   4.315   5.045   4.099 -0.3147  1.3192 -0.8775
10462SOL     OW33923   6.954   7.763   1.166 -0.3056 -0.0651 -0.1177
10462SOL    HW133924   6.869   7.762   1.121 -0.0306 -1.0709 -0.6250
10462SOL    HW233925   6.941   7.708   1.243 -1.6518  3.9951  2.7333
10463SOL     OW33926   2.132   5.475   5.632 -0.4746 -0.4385 -0.3037
10463SOL    HW133927   2.101   5.406   5.575 -2.0315  1.6272 -2.0193
10463SOL    HW233928   2.053   5.521   5.661  0.4249 -0.1460  1.8408
10464SOL     OW33929   7.108   7.071   6.977 -0.2207  0.6092  0.1572
10464SOL    HW133930   7.175   7.127   7.016 -0.3625 -0.1074  1.4488
10464SOL    HW233931   7.025   7.104   7.014 -0.5524  1.2613 -1.1485
10465SOL     OW33932   7.427   1.109   6.909 -0.5285  0.2707  0.2782
10465SOL    HW133933   7.359   1.105   6.977 -1.1833 -1.8143 -0.4373
10465SOL    HW233934   7.509   1.110   6.958 -0.9965 -0.8735  1.1253
10466SOL     OW33935   9.184   3.296   7.471  0.3573  0.4772  0.4863
10466SOL    HW133936   9.265   3.292   7.420 -0.0334  0.5597 -0.1492
10466SOL    HW233937   9.199   3.238   7.545  0.8301  0.1339  0.1216
10467SOL     OW33938   3.158   8.236   8.809 -0.2093  0.6557  0.0867
10467SOL    HW133939   3.119   8.149   8.796  0.1390 -0.0427  3.2433
10467SOL    HW233940   3.252   8.219   8.819 -0.0832  1.4593  0.2830
10468SOL     OW33941  10.092   3.473   1.902 -0.3407  0.0269  0.4704
10468SOL    HW133942  10.032   3.533   1.946 -1.4346 -0.8746  0.2261
10468SOL    HW233943  10.085   3.391   1.950 -0.2344 -0.4495 -0.3066
10469SOL     OW33944   3.409   1.115   2.220  0.1459  0.4104  0.4616
10469SOL    HW133945   3.362   1.179   2.273 -1.2523  0.4663 -0.7963
10469SOL    HW233946   3.432   1.162   2.140 -0.1902 -0.4186 -0.1398
10470SOL     OW33947   3.994   6.049   0.132 -0.3090  0.0331  0.1106
10470SOL    HW133948   3.963   6.126   0.181  0.4383  1.3345 -1.4049
10470SOL    HW233949   4.083   6.073   0.106 -1.0502 -0.2176 -2.7385
10471SOL     OW33950   9.058   7.537   9.223  0.2949  0.3749 -0.5009
10471SOL    HW133951   9.054   7.587   9.304 -2.7506 -1.3650  0.4870
10471SOL    HW233952   9.048   7.602   9.154 -0.7711  1.4555  0.6515
10472SOL     OW33953   3.391   6.988   2.775 -0.2092  0.2230 -0.2742
10472SOL    HW133954   3.474   7.030   2.797 -0.0624 -0.3680  0.3152
10472SOL    HW233955   3.344   6.984   2.858  1.0479 -3.6201  0.3533
10473SOL     OW33956   2.511   4.078   8.901 -0.8798  0.3774  0.8514
10473SOL    HW133957   2.448   4.125   8.955 -0.3952 -0.7736  2.4728
10473SOL    HW233958   2.590   4.073   8.955 -0.5863 -1.3564  0.3079
10474SOL     OW33959   8.800   9.533   2.538 -0.1457 -0.5424 -0.2862
10474SOL    HW133960   8.805   9.437   2.538 -1.8451 -0.6512  0.1813
10474SOL    HW233961   8.820   9.557   2.628  1.3716 -0.3750 -0.6573
10475SOL     OW33962   0.967   7.568   5.664 -0.3204  0.2002  0.6127
10475SOL    HW133963   0.932   7.598   5.580  0.6504 -0.8525 -0.1839
10475SOL    HW233964   1.030   7.635   5.690 -0.4210  0.3937  0.3573
10476SOL     OW33965   7.921   3.769   5.374 -0.6746 -0.2610 -0.2774
10476SOL    HW133966   7.869   3.743   5.297  1.6959 -1.9124 -1.3855
10476SOL    HW233967   7.953   3.686   5.410 -0.0317  0.6350  1.2563
10477SOL     OW33968   1.274   1.417   0.352  0.2546 -0.0040  0.5129
10477SOL    HW133969   1.282   1.390   0.260 -2.1569  1.1176 -0.0728
10477SOL    HW233970   1.230   1.344   0.395 -0.3354  0.2630  0.3621
10478SOL     OW33971   3.105   2.321   4.619 -0.0025  0.3416  0.1184
10478SOL    HW133972   3.187   2.371   4.622 -0.0169  0.3516  0.3530
10478SOL    HW233973   3.102   2.286   4.530  1.2544 -1.3245  0.7069
10479SOL     OW33974   3.012   2.861   0.038  0.1493 -0.1218 -0.3283
10479SOL    HW133975   2.949   2.797   0.070 -0.1751  0.2194 -0.2721
10479SOL    HW233976   2.995   2.866  -0.056  0.3843 -0.3491 -0.3810
10480SOL     OW33977   6.897   0.669   4.469  0.4048  0.1156 -0.6964
10480SOL    HW133978   6.941   0.588   4.441 -0.6615 -0.1194 -1.7787
10480SOL    HW233979   6.928   0.684   4.558  0.4708 -1.6087 -0.4027
10481SOL     OW33980   7.454   7.203   8.492 -0.0657  0.3527  0.6012
10481SOL    HW133981   7.436   7.296   8.501  0.6739  0.4752  0.8412
10481SOL    HW233982   7.505   7.196   8.411  0.1616  0.1952  0.7576
10482SOL     OW33983   8.684   8.783   1.637 -0.0607  0.2087 -0.3877
10482SOL    HW133984   8.737   8.709   1.608 -0.1005  0.3863 -0.9083
10482SOL    HW233985   8.595   8.749   1.641  0.0963 -0.1023  0.5411
10483SOL     OW33986   1.271   1.474   5.418 -0.0204 -0.1920 -0.3685
10483SOL    HW133987   1.327   1.442   5.489 -0.4569  1.1317  0.5901
10483SOL    HW233988   1.207   1.531   5.461 -0.5346  0.3253 -1.7781
10484SOL     OW33989   9.809   0.669   0.223  0.2079 -0.4547 -0.4009
10484SOL    HW133990   9.740   0.646   0.286  1.4273  0.5687  1.3420
10484SOL    HW233991   9.773   0.742   0.173  0.8906  1.6861  2.1226
10485SOL     OW33992   8.838   7.158   6.213  0.8305 -0.6129 -0.2786
10485SOL    HW133993   8.778   7.140   6.140  1.5437  1.5028 -1.4456
10485SOL    HW233994   8.862   7.250   6.200  2.3764 -0.7479  1.6174
10486SOL     OW33995   4.283   5.406   0.062  0.2247 -0.3707 -1.0227
10486SOL    HW133996   4.289   5.311   0.063  0.2283 -0.3914 -2.1850
10486SOL    HW233997   4.270   5.431   0.154  3.1151 -1.3108 -0.3018
10487SOL     OW33998   6.592   6.458   4.569 -0.5115 -0.4617 -0.2801
10487SOL    HW133999   6.680   6.459   4.530  0.2773 -0.1900  1.4528
10487SOL    HW234000   6.599   6.396   4.642 -1.9859 -1.0369 -0.6052
10488SOL     OW34001   7.695   5.297   5.255 -0.0296  0.4596  0.4567
10488SOL    HW134002   7.732   5.221   5.210 -0.6505  0.3818  0.0667
10488SOL    HW234003   7.770   5.347   5.286  0.3862  0.1241 -0.0244
10489SOL     OW34004   8.287   3.131   3.832 -0.2261 -0.0014  0.0194
10489SOL    HW134005   8.238   3.143   3.913  0.5854  1.2271  0.3417
10489SOL    HW234006   8.284   3.037   3.816  0.9456 -0.4676  2.3236
10490SOL     OW34007   2.632   9.290   1.488  0.2374  0.7062  0.0898
10490SOL    HW134008   2.584   9.254   1.413 -1.0124  0.8393  0.8088
10490SOL    HW234009   2.724   9.273   1.468 -0.2483 -1.7922 -0.1807
10491SOL     OW34010   9.277   1.039   5.826  0.3219 -0.6867  0.6107
10491SOL    HW134011   9.219   1.014   5.754 -1.0729  0.5528  1.2658
10491SOL    HW234012   9.253   0.981   5.898 -0.4643  0.1300  1.0263
10492SOL     OW34013   2.467   9.393   2.265  0.2680  0.2492  0.2885
10492SOL    HW134014   2.536   9.448   2.229 -0.1774  0.5668 -0.0885
10492SOL    HW234015   2.450   9.429   2.352 -0.0161  0.7078  0.0446
10493SOL     OW34016   6.331   0.619   2.004  0.6361  0.1187 -0.5131
10493SOL    HW134017   6.350   0.712   2.017  0.2404  0.4367 -2.1917
10493SOL    HW234018   6.303   0.612   1.913 -0.4684 -1.4714 -0.0661
10494SOL     OW34019  10.132   3.298   7.036  0.0393 -0.3276 -0.0404
10494SOL    HW134020  10.162   3.210   7.056 -2.4078 -1.1656  0.1286
10494SOL    HW234021  10.050   3.286   6.989  0.3584  1.8445 -1.2269
10495SOL     OW34022   6.862   4.268   9.044 -0.0734  1.0504  0.4320
10495SOL    HW134023   6.829   4.346   9.088 -0.2661  0.4769  1.3027
10495SOL    HW234024   6.934   4.237   9.098 -1.9896 -1.1741  1.8224
10496SOL     OW34025   5.097   5.807   0.970  0.1526  0.3608 -0.0885
10496SOL    HW134026   5.146   5.774   1.045  0.8972  1.2017 -0.1856
10496SOL    HW234027   5.039   5.736   0.945  1.0607 -0.5166  0.2766
10497SOL     OW34028   9.916   4.380   5.102 -0.0503 -0.2732 -0.4884
10497SOL    HW134029   9.934   4.447   5.035  1.1858 -1.0286 -0.9423
10497SOL    HW234030   9.878   4.429   5.175  0.7596  0.9348 -0.8430
10498SOL     OW34031   9.712   5.880   9.978 -0.9155  0.5149  0.5961
10498SOL    HW134032   9.790   5.861  10.030 -0.9784  0.8379  0.8130
10498SOL    HW234033   9.742   5.875   9.887 -1.0586 -1.1543  0.6243
10499SOL     OW34034   0.368   1.628   5.172 -0.1587  0.2007 -0.1987
10499SOL    HW134035   0.331   1.698   5.118 -1.7786 -0.2840  0.2649
10499SOL    HW234036   0.312   1.625   5.249 -0.4768 -2.0301 -0.5009
10500SOL     OW34037   6.918   6.252   5.180  0.5520  0.2597 -0.3338
10500SOL    HW134038   6.857   6.179   5.192  0.6961  0.1875 -0.0312
10500SOL    HW234039   6.926   6.261   5.085  1.5315 -0.9574 -0.3874
10501SOL     OW34040   8.480   7.946   0.243  0.0950 -0.2237  0.7302
10501SOL    HW134041   8.571   7.960   0.218  0.5122 -0.6820  1.9438
10501SOL    HW234042   8.485   7.900   0.327 -1.2531  0.1133  1.0125
10502SOL     OW34043   5.175   4.173   4.842  0.3969 -0.1172 -0.3485
10502SOL    HW134044   5.123   4.222   4.779 -0.0614 -0.2301 -0.0630
10502SOL    HW234045   5.112   4.117   4.887  0.4435  1.1047  1.3050
10503SOL     OW34046   6.305   0.534   0.612  0.1973  0.1555 -0.1968
10503SOL    HW134047   6.255   0.581   0.680  0.2317 -0.0744 -0.0120
10503SOL    HW234048   6.388   0.581   0.608 -0.6113  1.5078 -1.6090
10504SOL     OW34049   0.073   5.194   2.101  0.7784  0.2849  0.4001
10504SOL    HW134050   0.003   5.130   2.114  0.6204  0.5855  1.0440
10504SOL    HW234051   0.150   5.152   2.139  0.5152  0.7815  1.5114
10505SOL     OW34052   2.341   9.181   1.046  0.1693 -0.2565  0.2312
10505SOL    HW134053   2.378   9.117   0.985  0.8745  1.1211 -0.8196
10505SOL    HW234054   2.280   9.232   0.992  0.7095  0.9002  0.7002
10506SOL     OW34055   7.578   6.625   6.813 -0.3313 -0.0884  0.1044
10506SOL    HW134056   7.666   6.646   6.782 -0.1663 -0.3349  0.3947
10506SOL    HW234057   7.527   6.609   6.734  0.3668 -1.8266 -0.0333
10507SOL     OW34058   5.272   4.591   1.576  0.0489 -0.4223 -0.2346
10507SOL    HW134059   5.307   4.674   1.608  0.3639  0.3404 -2.4392
10507SOL    HW234060   5.190   4.614   1.533 -0.3025 -1.3802 -0.0964
10508SOL     OW34061   8.502   8.893   5.287  0.2153 -0.1650 -0.0059
10508SOL    HW134062   8.485   8.934   5.371 -1.7940  0.2372 -0.5865
10508SOL    HW234063   8.583   8.843   5.301 -1.2910 -1.9558  2.8249
10509SOL     OW34064   2.973   8.746   0.406 -0.3517 -0.0702 -0.0729
10509SOL    HW134065   2.929   8.695   0.474  0.6964  0.5261  1.0683
10509SOL    HW234066   2.921   8.826   0.399 -0.7945 -0.3825 -0.3829
10510SOL     OW34067   5.708   7.621   0.924 -0.8449 -0.0145 -0.1795
10510SOL    HW134068   5.765   7.567   0.870 -1.3724  1.8368 -2.6455
10510SOL    HW234069   5.735   7.711   0.906 -2.4168  0.7360  1.0646
10511SOL     OW34070   5.356   6.268   6.531 -0.2327  0.1747 -0.0779
10511SOL    HW134071   5.278   6.231   6.571  0.4496 -1.7616 -0.4958
10511SOL    HW234072   5.326   6.350   6.491 -1.3112  1.1644  2.6625
10512SOL     OW34073   0.409   6.956   7.921 -0.1535 -0.0663 -0.6387
10512SOL    HW134074   0.372   6.872   7.893 -1.0206  0.7907 -2.1019
10512SOL    HW234075   0.467   6.981   7.849 -0.9637  1.2637 -0.8401
10513SOL     OW34076   1.631   0.044   5.161 -0.0772  0.3861 -0.0622
10513SOL    HW134077   1.579   0.060   5.240  0.6059  2.7121 -0.0549
10513SOL    HW234078   1.720   0.027   5.195 -0.3598 -1.4713 -0.1939
10514SOL     OW34079   6.667   9.295   2.704  0.1589 -0.1005 -0.4881
10514SOL    HW134080   6.571   9.299   2.700  0.1972 -0.2094 -1.8637
10514SOL    HW234081   6.685   9.226   2.768 -0.6845 -0.2753 -0.4316
10515SOL     OW34082   8.397   6.128   4.395  0.5578  0.0233  0.3403
10515SOL    HW134083   8.418   6.141   4.302 -0.8962  2.1323  0.2760
10515SOL    HW234084   8.305   6.155   4.403  0.6752 -0.1193  2.4085
10516SOL     OW34085   8.580   1.188   3.621  0.2365  0.3232 -0.2621
10516SOL    HW134086   8.536   1.272   3.632 -1.0100  0.0038 -2.5629
10516SOL    HW234087   8.513   1.123   3.639  0.6762 -0.1818 -0.4219
10517SOL     OW34088   9.779   0.219   5.953  0.0106  0.7963 -0.0862
10517SOL    HW134089   9.810   0.217   5.862  0.2979  1.1408  0.0022
10517SOL    HW234090   9.688   0.192   5.948  0.1291  0.4531 -0.4362
10518SOL     OW34091   9.864   2.835   7.431  0.0485  0.2097  0.2138
10518SOL    HW134092   9.797   2.896   7.461 -0.1324  0.5642 -0.8727
10518SOL    HW234093   9.928   2.832   7.502  0.2178  1.9174  0.1651
10519SOL     OW34094   8.355   7.563   8.333  0.5157 -0.0674  0.2563
10519SOL    HW134095   8.333   7.635   8.274  0.4288 -2.5352 -2.8554
10519SOL    HW234096   8.440   7.588   8.370  0.3836  1.7346 -0.6076
10520SOL     OW34097   0.586   0.167   5.836  0.2841 -0.3709 -0.0081
10520SOL    HW134098   0.604   0.230   5.905 -1.5292  0.5508 -0.3401
10520SOL    HW234099   0.647   0.190   5.766 -1.7745  2.4278 -0.9670
10521SOL     OW34100   3.460   3.559   9.527 -0.5133  0.1695  0.0965
10521SOL    HW134101   3.525   3.489   9.540 -0.9976 -0.3022  0.0105
10521SOL    HW234102   3.380   3.524   9.567 -0.6109  0.9120  0.5535
10522SOL     OW34103   7.905  10.065   8.198 -0.1833 -0.2753 -0.1168
10522SOL    HW134104   7.950  10.148   8.185 -0.6725  0.0379  0.1759
10522SOL    HW234105   7.812  10.088   8.201 -0.3166 -0.8240  0.0286
10523SOL     OW34106   0.944   5.340   6.040  0.2491  0.0573  0.4345
10523SOL    HW134107   0.867   5.298   6.001 -0.6991  0.8090  1.4717
10523SOL    HW234108   1.016   5.316   5.982 -0.6663 -1.1244 -0.2381
10524SOL     OW34109   7.064   8.844   4.951  0.2521 -0.1659 -0.0552
10524SOL    HW134110   7.103   8.889   4.875 -0.9409  1.3892  0.2208
10524SOL    HW234111   7.116   8.873   5.025 -1.0166  1.4691  0.2362
10525SOL     OW34112   9.559   1.193   4.841  0.3524 -0.0607  0.4663
10525SOL    HW134113   9.645   1.223   4.812 -0.1655  1.3632  0.3790
10525SOL    HW234114   9.557   1.211   4.935  0.0594  0.1081  0.4282
10526SOL     OW34115   3.411   0.966   2.699 -0.3971 -0.6825  0.4485
10526SOL    HW134116   3.443   0.973   2.789 -1.8337 -1.2670  1.0317
10526SOL    HW234117   3.484   0.995   2.645  0.8315 -1.2843  1.7555
10527SOL     OW34118   6.823   2.746   0.308  0.2910  0.0586 -1.1049
10527SOL    HW134119   6.824   2.708   0.220 -0.8701 -2.6329  0.0142
10527SOL    HW234120   6.751   2.702   0.353  0.7543  1.5361  1.1569
10528SOL     OW34121   0.526   1.613   9.453 -0.7277 -0.5195 -0.1592
10528SOL    HW134122   0.597   1.568   9.499 -0.4516 -0.3488 -0.4129
10528SOL    HW234123   0.568   1.653   9.377 -1.3524 -1.5652 -1.0661
10529SOL     OW34124   0.682   8.209   3.703 -0.0414 -0.2241  0.1451
10529SOL    HW134125   0.764   8.252   3.678  1.0403 -1.9935  0.5874
10529SOL    HW234126   0.676   8.133   3.645 -0.6785 -0.8580  1.0231
10530SOL     OW34127   0.664   1.410   4.196  0.1973 -0.6798 -0.7015
10530SOL    HW134128   0.618   1.338   4.239 -0.6668 -0.8784 -1.9577
10530SOL    HW234129   0.598   1.451   4.140  1.2825 -0.3415 -1.7467
10531SOL     OW34130   0.626   5.977   9.953 -0.1992 -0.0800 -0.3808
10531SOL    HW134131   0.619   5.905   9.890 -1.5699 -1.3230  1.1530
10531SOL    HW234132   0.672   5.940  10.028 -1.7810  0.3400  0.8315
10532SOL     OW34133   5.514   3.518   1.326  0.3364 -0.4901  0.2076
10532SOL    HW134134   5.531   3.525   1.232  1.8843 -0.3087  0.4875
10532SOL    HW234135   5.534   3.427   1.347  0.5598 -0.3824  0.4651
10533SOL     OW34136   3.080   9.507   7.903  0.1167 -0.3224 -0.1585
10533SOL    HW134137   3.022   9.468   7.968 -1.7410  1.3243 -0.7741
10533SOL    HW234138   3.127   9.575   7.951  1.9178 -1.9444  0.4449
10534SOL     OW34139   3.726   3.897   2.382 -0.3176  0.1590 -0.8656
10534SOL    HW134140   3.700   3.975   2.333  0.4021  1.0216  0.1048
10534SOL    HW234141   3.820   3.889   2.367  0.0052  0.7194  0.7507
10535SOL     OW34142   7.569   3.906   3.951 -0.0454 -0.2143  0.6373
10535SOL    HW134143   7.521   3.878   3.873  0.5723  0.2317  0.0934
10535SOL    HW234144   7.506   3.897   4.022 -0.9452  0.3689 -0.0651
10536SOL     OW34145   6.326   3.937   0.747 -0.4321  0.3561 -0.0655
10536SOL    HW134146   6.395   3.982   0.795  0.2557 -1.1058  0.3511
10536SOL    HW234147   6.359   3.931   0.657  0.0768 -0.5249  0.1793
10537SOL     OW34148   3.215   6.823   6.802  0.1771  0.5093  0.6077
10537SOL    HW134149   3.216   6.729   6.783  1.3543  1.2594 -3.5388
10537SOL    HW234150   3.302   6.842   6.836  0.3580  0.3029  0.2628
10538SOL     OW34151   9.257   4.108   1.790  0.2263  0.2693 -0.5393
10538SOL    HW134152   9.265   4.198   1.758 -0.4510  0.4719 -0.1507
10538SOL    HW234153   9.226   4.117   1.880  1.4714 -0.3139 -0.0282
10539SOL     OW34154   2.500   7.758   4.641  0.0761  0.3760 -0.0727
10539SOL    HW134155   2.498   7.804   4.725 -0.6242 -0.7536  0.5412
10539SOL    HW234156   2.469   7.670   4.662 -0.6442  0.2604 -1.6328
10540SOL     OW34157   7.665   3.342   7.373 -0.4008 -0.9975  0.7897
10540SOL    HW134158   7.589   3.393   7.403 -0.8176 -0.0771 -1.6876
10540SOL    HW234159   7.695   3.296   7.451 -0.5099  2.3934  2.9642
10541SOL     OW34160   3.649   2.780   4.640 -0.2861 -0.4681  1.0149
10541SOL    HW134161   3.644   2.686   4.625 -0.4409 -0.2321 -0.4708
10541SOL    HW234162   3.736   2.794   4.677  1.1552 -0.7571 -2.1333
10542SOL     OW34163   5.795   4.674   2.126 -0.2064 -0.6214  0.4656
10542SOL    HW134164   5.759   4.745   2.179 -0.4352 -0.0776 -0.4117
10542SOL    HW234165   5.852   4.717   2.063 -2.3000 -0.9260 -1.7449
10543SOL     OW34166   6.022   3.468   9.485 -0.0163 -0.6120 -0.3935
10543SOL    HW134167   6.055   3.526   9.553  1.6281 -2.7943  0.7573
10543SOL    HW234168   5.955   3.416   9.528 -0.6989 -0.3237 -1.1068
10544SOL     OW34169   0.156   1.314   7.850  0.3796  0.0393  0.4643
10544SOL    HW134170   0.217   1.307   7.776 -0.0728 -0.0339  0.0969
10544SOL    HW234171   0.211   1.338   7.924  0.8110  0.2915  0.0639
10545SOL     OW34172   6.073   3.250   3.974  0.8739 -0.4706  0.3070
10545SOL    HW134173   6.076   3.331   4.025  0.1139  0.1485 -0.6204
10545SOL    HW234174   6.163   3.216   3.978  1.1973  0.4048  0.7065
10546SOL     OW34175   1.512   7.731   6.368 -0.0307  0.0177  0.2875
10546SOL    HW134176   1.525   7.699   6.457 -1.0321 -0.1341  0.3927
10546SOL    HW234177   1.564   7.672   6.313  1.6005  0.8783  0.8778
10547SOL     OW34178   8.839   6.172   5.761  0.1940  0.7375 -0.0169
10547SOL    HW134179   8.808   6.175   5.671 -1.0032  3.2254  0.4360
10547SOL    HW234180   8.759   6.176   5.814  0.9616  0.9211  1.1490
10548SOL     OW34181   8.873   5.796   9.137 -0.5113 -0.4052 -0.4787
10548SOL    HW134182   8.853   5.734   9.207  0.1850  0.1159  0.2010
10548SOL    HW234183   8.791   5.843   9.123 -0.2644  0.5798  1.1237
10549SOL     OW34184   0.608   6.864   5.718 -0.2763  0.0562 -0.2776
10549SOL    HW134185   0.702   6.879   5.712  0.0605 -2.0754 -0.7779
10549SOL    HW234186   0.580   6.918   5.791  1.8606 -1.5592  1.8191
10550SOL     OW34187   9.960   8.869   2.296  0.2482  0.4205  0.3030
10550SOL    HW134188  10.036   8.861   2.353  0.2862  1.5378  0.4192
10550SOL    HW234189   9.938   8.963   2.297  0.7957  0.6298 -2.1772
10551SOL     OW34190   1.839   2.580   3.267 -0.4849 -0.3117 -0.2991
10551SOL    HW134191   1.934   2.584   3.259 -0.0916 -0.2502  3.5872
10551SOL    HW234192   1.822   2.495   3.307 -1.8597  0.6735  1.2433
10552SOL     OW34193   9.178   5.548   3.236  0.2715 -0.2182  0.1830
10552SOL    HW134194   9.140   5.615   3.178  0.7391 -1.1742 -1.2670
10552SOL    HW234195   9.272   5.553   3.219  0.5293  0.2221  1.6805
10553SOL     OW34196   9.153   6.131   5.400 -0.0892 -0.1511 -0.5383
10553SOL    HW134197   9.157   6.103   5.491  1.7913 -0.4491 -0.6804
10553SOL    HW234198   9.133   6.224   5.404  1.1663  0.1077  0.2536
10554SOL     OW34199   9.301   4.297   0.041  0.1997  0.2515 -0.4559
10554SOL    HW134200   9.235   4.345  -0.008 -0.2604  1.0464  0.9325
10554SOL    HW234201   9.337   4.360   0.102  0.3848 -0.8583  0.6099
10555SOL     OW34202   6.323   0.237   4.305 -0.1036  0.1901  0.0110
10555SOL    HW134203   6.328   0.222   4.399  0.5155  2.3069  0.3457
10555SOL    HW234204   6.260   0.309   4.296  2.3696  2.3351 -0.8747
10556SOL     OW34205   3.401   7.540  10.183 -0.2778  0.0391  0.3874
10556SOL    HW134206   3.431   7.568  10.270 -0.4431  0.5616  0.2789
10556SOL    HW234207   3.481   7.533  10.131 -0.1574 -0.4787  0.6361
10557SOL     OW34208   2.814   0.256   0.816 -0.6530  0.5109  0.1210
10557SOL    HW134209   2.762   0.203   0.877 -0.3460  0.7819  0.6275
10557SOL    HW234210   2.750   0.299   0.761 -0.9352  0.2100  0.2099
10558SOL     OW34211   3.620   4.012   4.845  0.4859 -0.0650  0.0746
10558SOL    HW134212   3.586   3.935   4.891 -1.0060  0.1898 -0.5794
10558SOL    HW234213   3.706   3.984   4.813  0.5450 -1.0015  1.0136
10559SOL     OW34214   6.125   5.921   9.987  0.4799 -0.6022 -0.7384
10559SOL    HW134215   6.173   6.002   9.968  1.0719 -0.8832 -0.4474
10559SOL    HW234216   6.170   5.884  10.063 -0.3578 -0.7438 -0.3129
10560SOL     OW34217   0.970   0.028   0.071 -0.2482 -0.0793 -0.0879
10560SOL    HW134218   1.038   0.082   0.111  2.1671 -2.3430 -1.0867
10560SOL    HW234219   0.946   0.075  -0.009 -0.7467  1.3251  0.8641
10561SOL     OW34220   0.109   6.115   9.379  0.1351  0.0758  0.2587
10561SOL    HW134221   0.192   6.143   9.340 -0.4348 -0.0890 -1.1037
10561SOL    HW234222   0.110   6.151   9.467  1.4105  0.5452  0.0559
10562SOL     OW34223   5.318   2.121   6.155 -0.1888  0.3917  0.2248
10562SOL    HW134224   5.251   2.091   6.094  0.2500  1.4548 -0.7963
10562SOL    HW234225   5.394   2.067   6.136 -0.2492  0.2911  0.2685
10563SOL     OW34226   9.591   5.160   1.906 -0.2482  0.3121  0.0092
10563SOL    HW134227   9.526   5.165   1.976  0.4353 -0.1054  0.6871
10563SOL    HW234228   9.576   5.075   1.865  0.5992 -0.2802  0.9038
10564SOL     OW34229   4.333   9.301   6.083  0.6040 -0.2152  0.0128
10564SOL    HW134230   4.391   9.228   6.107 -0.5616 -1.1252  0.0898
10564SOL    HW234231   4.249   9.260   6.063 -0.1611  1.1418  0.3753
10565SOL     OW34232   6.607   3.544   4.111 -0.5366  0.1950  0.5023
10565SOL    HW134233   6.633   3.471   4.169 -0.1395  1.2122  1.6316
10565SOL    HW234234   6.615   3.508   4.023  0.7202 -0.8168  0.9981
10566SOL     OW34235   6.391   3.462   2.047  0.1306  0.0438 -0.0516
10566SOL    HW134236   6.466   3.405   2.063 -0.4289 -0.6955  0.0078
10566SOL    HW234237   6.428   3.542   2.010  0.9578 -0.2463  0.1445
10567SOL     OW34238   2.205   9.195   6.746 -0.1902 -0.2667  0.0351
10567SOL    HW134239   2.112   9.179   6.734  0.0606 -0.6979 -1.4672
10567SOL    HW234240   2.229   9.142   6.822 -1.1852 -0.0879  0.4713
10568SOL     OW34241   0.891   2.278   1.880 -0.4450 -0.5089 -0.3967
10568SOL    HW134242   0.841   2.317   1.952 -1.6283 -0.0310 -1.4567
10568SOL    HW234243   0.975   2.323   1.882 -0.0996 -1.2085  1.3162
10569SOL     OW34244   2.688   3.928   7.059  0.6735 -0.2600  0.0851
10569SOL    HW134245   2.753   3.993   7.034  2.2223 -1.1875  1.6034
10569SOL    HW234246   2.636   3.914   6.979  0.8583  2.1559 -0.4941
10570SOL     OW34247   6.336   6.516   9.156  0.1493  0.3682  0.0777
10570SOL    HW134248   6.372   6.601   9.130  0.8782  0.1079  0.2258
10570SOL    HW234249   6.351   6.459   9.080 -1.2645  0.6230 -0.4261
10571SOL     OW34250   3.526   1.557   9.234  0.3867  0.5445  0.3145
10571SOL    HW134251   3.441   1.586   9.268 -0.2215  1.9829 -2.3126
10571SOL    HW234252   3.505   1.483   9.177  0.7160  1.7394 -1.3887
10572SOL     OW34253   2.485   7.082   0.941  0.4235  0.2759 -0.2145
10572SOL    HW134254   2.471   7.077   1.036  2.8691  0.3160  0.1688
10572SOL    HW234255   2.454   7.170   0.918  1.9227  1.1175  0.9284
10573SOL     OW34256   7.458   8.953   4.817  0.6148  0.4910  0.4115
10573SOL    HW134257   7.416   8.872   4.847 -0.7889  0.6333 -1.1530
10573SOL    HW234258   7.534   8.923   4.767 -1.4264  0.0109 -2.5197
10574SOL     OW34259   4.206   8.650   4.403 -0.4450 -0.9669  0.6502
10574SOL    HW134260   4.268   8.580   4.425 -1.5063 -1.8371  0.9242
10574SOL    HW234261   4.132   8.635   4.461  1.0114  2.8910  3.7424
10575SOL     OW34262   5.182   7.059   2.710  0.4648 -0.6972  0.4381
10575SOL    HW134263   5.161   6.968   2.733  0.9726 -0.7243  0.7882
10575SOL    HW234264   5.159   7.109   2.789  0.0674 -0.5004  0.2032
10576SOL     OW34265   9.491   4.610   1.572  0.0950 -0.8007  0.1726
10576SOL    HW134266   9.433   4.673   1.615  0.5818 -0.0784 -0.2286
10576SOL    HW234267   9.534   4.564   1.644  1.7464  1.1677  0.4899
10577SOL     OW34268   2.938   2.433   4.795 -0.3057 -0.0622  0.1580
10577SOL    HW134269   2.982   2.384   4.725 -0.9129 -0.3775 -0.0095
10577SOL    HW234270   2.925   2.521   4.760 -0.5732 -0.2095 -0.1147
10578SOL     OW34271   4.836   0.603   0.257 -0.2354  0.1908  0.6390
10578SOL    HW134272   4.781   0.672   0.293 -1.7021 -1.1365  1.0146
10578SOL    HW234273   4.775   0.532   0.237  1.2301 -0.9679  0.1905
10579SOL     OW34274   0.628   8.371   9.696 -0.0535 -0.2408  1.0148
10579SOL    HW134275   0.714   8.328   9.693  0.1263  0.1406  0.6125
10579SOL    HW234276   0.601   8.363   9.787 -0.2207 -1.5856  0.8518
10580SOL     OW34277   9.327   7.477   9.259 -0.0099 -0.4870  0.9975
10580SOL    HW134278   9.235   7.460   9.280 -0.2898 -1.1716 -0.6914
10580SOL    HW234279   9.333   7.459   9.165  1.5647  0.8130  0.8500
10581SOL     OW34280   2.011   9.638   6.738  0.8480 -0.0732 -0.0961
10581SOL    HW134281   1.941   9.576   6.718  0.2100  0.6814 -0.2362
10581SOL    HW234282   2.003   9.706   6.671  0.4079  1.0734  1.0945
10582SOL     OW34283   0.848   2.434   3.824  0.0295  0.0212 -0.3932
10582SOL    HW134284   0.899   2.512   3.805  0.8052 -0.9910 -2.7290
10582SOL    HW234285   0.767   2.445   3.773 -0.3614 -0.1923  0.1664
10583SOL     OW34286   1.096   8.426   4.221 -0.0402  0.9067  0.2946
10583SOL    HW134287   1.191   8.434   4.217  0.3619 -3.2052 -1.6407
10583SOL    HW234288   1.067   8.432   4.129 -1.1956 -1.3802  0.4618
10584SOL     OW34289   2.730   4.591   9.385 -0.5334  0.5046  0.3616
10584SOL    HW134290   2.817   4.578   9.422 -0.4268  1.4751  0.4536
10584SOL    HW234291   2.687   4.506   9.395 -0.0512  0.3863  1.5144
10585SOL     OW34292   2.748   9.438   2.133 -0.8146  0.1202  0.3832
10585SOL    HW134293   2.746   9.342   2.131 -0.3649  0.1305 -1.0161
10585SOL    HW234294   2.772   9.459   2.223 -2.8340 -1.0381  1.2379
10586SOL     OW34295   0.568   5.732   8.681  0.1605 -0.7870  0.1934
10586SOL    HW134296   0.492   5.691   8.721  0.2022 -1.6068 -0.5765
10586SOL    HW234297   0.538   5.762   8.596  0.3616  0.0176  0.4012
10587SOL     OW34298   7.074   3.571   3.205  0.3638  0.0597  0.2092
10587SOL    HW134299   6.995   3.550   3.155  0.3464  0.4264  0.0851
10587SOL    HW234300   7.084   3.497   3.265  1.0627 -0.9691 -1.1573
10588SOL     OW34301   9.665   9.147   4.553  0.7643  0.1356  0.2383
10588SOL    HW134302   9.589   9.125   4.607  1.1859 -1.2005  0.3183
10588SOL    HW234303   9.731   9.180   4.614  1.3534 -1.6728  0.6068
10589SOL     OW34304   4.711   2.650   4.209  0.4154  0.2427  0.1345
10589SOL    HW134305   4.652   2.677   4.279  0.1237  0.0131 -0.0204
10589SOL    HW234306   4.687   2.705   4.135  1.6485  1.4415  0.6128
10590SOL     OW34307   1.472   0.003   3.742  0.3326 -0.1482 -0.2257
10590SOL    HW134308   1.399   0.058   3.711  0.3847  0.0536  0.0094
10590SOL    HW234309   1.485  -0.061   3.672  0.3735  0.2388 -0.5721
10591SOL     OW34310   8.757   3.993   6.629 -0.1162 -0.1606  0.6264
10591SOL    HW134311   8.797   4.080   6.633  1.3188 -0.6775 -1.4423
10591SOL    HW234312   8.821   3.936   6.671 -1.8387 -0.0239  3.5939
10592SOL     OW34313   0.390   3.033   3.280  0.0084 -0.7180  0.0736
10592SOL    HW134314   0.416   3.066   3.194 -1.0200  0.5150  0.2063
10592SOL    HW234315   0.303   2.996   3.265 -2.0293  3.2779  1.3628
10593SOL     OW34316   0.925   8.215   6.066 -0.2574 -0.1229 -0.2500
10593SOL    HW134317   0.978   8.188   5.991  0.5644  1.6209 -0.3118
10593SOL    HW234318   0.988   8.237   6.134 -0.9100  1.0853 -0.0120
10594SOL     OW34319   7.642   0.689   2.782  0.0872  0.1250 -0.1335
10594SOL    HW134320   7.620   0.678   2.690  0.0804 -2.0605  0.1041
10594SOL    HW234321   7.725   0.643   2.793 -0.9382 -1.4630  1.3498
10595SOL     OW34322   3.619   5.076   9.733 -0.6407  0.2226  0.6907
10595SOL    HW134323   3.633   5.160   9.689  1.6891 -0.0946  0.7432
10595SOL    HW234324   3.548   5.035   9.685 -0.8770  1.6397 -0.1936
10596SOL     OW34325   7.156   3.333   0.602  0.5560  0.3967 -0.2406
10596SOL    HW134326   7.151   3.273   0.677  0.5178 -0.0274 -0.5826
10596SOL    HW234327   7.073   3.380   0.604 -0.6016 -1.5085 -1.6008
10597SOL     OW34328   7.802   7.184   1.767 -0.6463  0.2451 -0.7323
10597SOL    HW134329   7.879   7.235   1.743 -0.2655 -0.2306 -0.5356
10597SOL    HW234330   7.791   7.201   1.861 -0.6060  0.0882 -0.6982
10598SOL     OW34331   5.867   8.778   9.682 -0.1401  0.0260  0.0102
10598SOL    HW134332   5.937   8.714   9.666 -1.1028 -1.1896  0.5834
10598SOL    HW234333   5.810   8.770   9.606 -1.3075 -1.2027  1.0082
10599SOL     OW34334   3.747   8.398   1.931  0.0713  0.6017 -0.1286
10599SOL    HW134335   3.823   8.438   1.889  0.6111  1.4051  1.5403
10599SOL    HW234336   3.779   8.372   2.018 -0.8608 -1.4751 -0.3747
10600SOL     OW34337   0.258   0.875   0.898 -0.2656  0.8218  0.2300
10600SOL    HW134338   0.326   0.834   0.951 -1.2316  0.8443  1.5040
10600SOL    HW234339   0.302   0.947   0.853  0.9521 -0.2647 -0.3470
10601SOL     OW34340   7.959   2.861   5.531  0.2214 -0.2613  0.7668
10601SOL    HW134341   7.950   2.942   5.580  0.1463 -0.6509  1.4058
10601SOL    HW234342   7.893   2.802   5.569 -0.1471 -0.4247 -0.1001
10602SOL     OW34343   7.213   8.211   1.957 -0.5768  0.3225 -0.7258
10602SOL    HW134344   7.135   8.194   1.904  0.2964 -1.2108 -1.5290
10602SOL    HW234345   7.256   8.126   1.966  1.5638  1.3192 -1.1840
10603SOL     OW34346   4.069   1.033   9.556 -0.6979 -0.2176 -0.4055
10603SOL    HW134347   4.074   1.058   9.648  0.4533 -0.4180 -0.4011
10603SOL    HW234348   3.988   1.072   9.524  0.0108  1.7691  0.1292
10604SOL     OW34349   3.973   2.535   6.557 -0.5230  0.2391 -0.1387
10604SOL    HW134350   4.038   2.542   6.487  0.6159 -0.8694  0.7880
10604SOL    HW234351   3.892   2.509   6.512 -0.7442  3.0787 -1.4895
10605SOL     OW34352   2.621   5.549   4.275  0.1137 -0.0365 -0.0183
10605SOL    HW134353   2.576   5.484   4.222  1.1526 -0.7724 -0.0162
10605SOL    HW234354   2.551   5.594   4.322 -0.6495 -0.8466 -0.3591
10606SOL     OW34355   4.390   2.009   1.928  0.1141 -0.6679  0.2997
10606SOL    HW134356   4.380   1.945   1.857  0.0157  1.2131 -1.4266
10606SOL    HW234357   4.307   2.004   1.976 -0.0511 -1.5485 -0.0609
10607SOL     OW34358   4.346   4.706   3.221  0.5319 -0.1596  0.1527
10607SOL    HW134359   4.357   4.732   3.312 -0.8603 -2.4388  1.0166
10607SOL    HW234360   4.356   4.610   3.222  0.7320 -0.1913 -2.1172
10608SOL     OW34361   2.626   5.527   9.877  0.1575 -0.1984 -0.2568
10608SOL    HW134362   2.532   5.544   9.887  0.1045  0.1742 -1.3678
10608SOL    HW234363   2.632   5.433   9.862  0.0442 -0.3798  0.8291
10609SOL     OW34364   5.568   4.913   8.260  0.5475 -0.6900  0.6670
10609SOL    HW134365   5.659   4.901   8.289  1.1440  0.8311 -0.5352
10609SOL    HW234366   5.575   4.940   8.169 -1.2999 -4.8363 -0.8141
10610SOL     OW34367   5.058   3.167   7.265  0.3605  0.2017 -0.2181
10610SOL    HW134368   5.014   3.101   7.213  0.6852  1.1108 -1.6815
10610SOL    HW234369   5.151   3.143   7.262  0.4413  0.5419 -0.4880
10611SOL     OW34370   7.821   8.723   2.593 -0.4939  0.3982  0.5891
10611SOL    HW134371   7.880   8.770   2.652  0.9680 -0.1919 -0.3407
10611SOL    HW234372   7.875   8.652   2.558 -2.2224 -1.0691  0.8342
10612SOL     OW34373   4.771   8.022   7.905 -0.5928 -0.5398  0.0967
10612SOL    HW134374   4.864   8.006   7.920  0.1889  2.8626 -0.8499
10612SOL    HW234375   4.760   8.013   7.810 -0.9723  0.3730  0.0541
10613SOL     OW34376   7.521   1.225   4.722 -0.5904  0.3881  0.3997
10613SOL    HW134377   7.538   1.137   4.686 -0.7871 -0.4271  2.2317
10613SOL    HW234378   7.441   1.254   4.678 -0.1837 -0.0893 -0.6770
10614SOL     OW34379   5.328   2.722   3.240 -0.1271  0.5195 -0.7247
10614SOL    HW134380   5.319   2.719   3.145  0.6623 -1.1796 -0.7690
10614SOL    HW234381   5.421   2.736   3.255 -0.1660  0.2114 -0.2015
10615SOL     OW34382   3.412   9.842   7.399 -0.8813  0.6614 -0.0323
10615SOL    HW134383   3.398   9.768   7.458  1.3049  0.0002 -0.2937
10615SOL    HW234384   3.392   9.807   7.312 -0.3571  0.5030 -0.0953
10616SOL     OW34385   5.822   7.573   3.701  0.3039 -0.2564  0.1735
10616SOL    HW134386   5.914   7.577   3.678  0.0811 -2.4669 -1.2860
10616SOL    HW234387   5.822   7.552   3.795  1.2632  0.2286  0.2908
10617SOL     OW34388   9.367   6.202   2.859  0.2864  0.0542 -0.0595
10617SOL    HW134389   9.322   6.129   2.816 -0.3043 -0.5658  1.5793
10617SOL    HW234390   9.453   6.167   2.883 -0.2796 -0.3566  1.4120
10618SOL     OW34391   7.507   0.690   4.407  0.1731 -0.4947 -0.3642
10618SOL    HW134392   7.583   0.665   4.459  0.5902  1.2916 -0.0981
10618SOL    HW234393   7.531   0.667   4.317  0.3533 -1.4776 -0.0679
10619SOL     OW34394   8.081   7.654   5.863 -0.2020 -0.5988  0.4292
10619SOL    HW134395   8.110   7.718   5.929  1.1481 -2.0794  1.3137
10619SOL    HW234396   8.000   7.691   5.828  0.0006  1.0894  1.6648
10620SOL     OW34397   3.097   2.374   0.516 -0.0410 -0.1306 -0.2536
10620SOL    HW134398   3.152   2.299   0.496 -0.1993 -0.5206  0.7657
10620SOL    HW234399   3.007   2.341   0.508 -0.1514  0.4156 -1.5720
10621SOL     OW34400   2.997   9.945   8.853  0.1455 -0.3004 -0.0868
10621SOL    HW134401   2.993   9.962   8.947 -0.0810 -1.0859  0.0476
10621SOL    HW234402   2.932  10.004   8.814  0.4166  0.2017  0.2220
10622SOL     OW34403   2.007   7.260   5.771  0.1005 -0.1576  0.3356
10622SOL    HW134404   1.997   7.206   5.693  2.7577  1.3699 -1.1557
10622SOL    HW234405   2.046   7.202   5.837 -0.5473 -1.0008 -0.0161
10623SOL     OW34406   1.532   3.526   0.856  0.1557  0.0704  0.1604
10623SOL    HW134407   1.444   3.553   0.831 -1.4666 -3.1901  1.9999
10623SOL    HW234408   1.531   3.526   0.952  1.7603 -1.1025  0.2093
10624SOL     OW34409   3.719   7.140   1.463 -0.6010  0.0727  0.3723
10624SOL    HW134410   3.710   7.088   1.543 -0.3126 -1.0238 -0.3147
10624SOL    HW234411   3.785   7.206   1.485 -0.0410 -0.6367  0.8197
10625SOL     OW34412   9.915   4.420   0.682 -0.0554  0.3007  0.5264
10625SOL    HW134413   9.909   4.465   0.598  1.4822  2.1807  1.3967
10625SOL    HW234414   9.893   4.487   0.747 -0.7606 -1.0105  1.6603
10626SOL     OW34415   4.151   8.817   2.996  0.1002 -0.2624  0.1837
10626SOL    HW134416   4.085   8.761   3.037 -0.1883 -0.5927 -0.7002
10626SOL    HW234417   4.233   8.769   3.006  0.2267  0.1773  1.3357
10627SOL     OW34418   5.498   6.030   6.716 -0.2588 -0.4105 -0.4568
10627SOL    HW134419   5.413   6.031   6.759  0.7935 -0.8633  1.7459
10627SOL    HW234420   5.514   6.121   6.693 -1.4516 -0.3632 -1.1182
10628SOL     OW34421   3.273   7.520   0.606 -0.0314  0.5009 -0.0455
10628SOL    HW134422   3.273   7.436   0.652 -0.2784  0.2667 -0.4642
10628SOL    HW234423   3.348   7.515   0.547 -0.6206  0.1703 -0.7828
10629SOL     OW34424   9.839   5.681   1.195  0.5136 -0.4005 -0.2629
10629SOL    HW134425   9.934   5.671   1.195  0.5297 -0.4317  1.6877
10629SOL    HW234426   9.824   5.769   1.160  1.3762  0.4685  1.5253
10630SOL     OW34427   6.762   0.048   2.245 -0.2644 -0.1192  0.5473
10630SOL    HW134428   6.712   0.128   2.228 -1.3432 -0.9764 -0.3760
10630SOL    HW234429   6.696  -0.022   2.247  0.7254 -1.0624  0.8301
10631SOL     OW34430   0.383   4.457   5.689  0.6105 -0.6443 -0.0011
10631SOL    HW134431   0.344   4.494   5.769  0.0832  0.9354 -0.9549
10631SOL    HW234432   0.387   4.363   5.705 -0.7201 -0.4904  1.3667
10632SOL     OW34433   1.944   9.894   8.509 -0.4179  0.5148  0.5977
10632SOL    HW134434   1.961   9.983   8.480 -0.4858  0.5247  0.5877
10632SOL    HW234435   2.014   9.876   8.572  0.5181  0.0196 -0.5609
10633SOL     OW34436   1.175   2.203   7.950  0.3144  0.5885 -0.4178
10633SOL    HW134437   1.091   2.209   7.904 -0.1737 -0.5100  0.3082
10633SOL    HW234438   1.177   2.114   7.984  1.0083  1.1456  1.0340
10634SOL     OW34439   9.437   7.519   7.810 -0.5750  0.1578 -0.3708
10634SOL    HW134440   9.421   7.497   7.902 -0.5034 -0.7269 -0.5630
10634SOL    HW234441   9.356   7.560   7.781 -1.4969 -1.7192 -0.5559
10635SOL     OW34442   8.344   2.682   6.575 -0.2520  0.1687 -0.2897
10635SOL    HW134443   8.277   2.621   6.606  1.0326 -0.6902  0.8670
10635SOL    HW234444   8.423   2.629   6.567  0.4725  1.3196 -0.9269
10636SOL     OW34445   4.225   7.290   4.334  0.3610  0.0786 -0.1800
10636SOL    HW134446   4.229   7.316   4.426  1.1586  0.6465 -0.3667
10636SOL    HW234447   4.154   7.227   4.330  1.0896 -0.8387  1.0430
10637SOL     OW34448   7.567   6.968   9.522 -0.9464 -0.0202  0.5385
10637SOL    HW134449   7.652   6.956   9.566 -0.6561  1.6821  0.4985
10637SOL    HW234450   7.542   7.058   9.543 -2.7244 -0.4813  0.4861
10638SOL     OW34451   3.888   3.708   1.627 -0.3261 -0.0967  0.2519
10638SOL    HW134452   3.884   3.731   1.534 -0.7994  1.0712  0.5472
10638SOL    HW234453   3.799   3.725   1.660 -0.6890 -2.3444  0.5044
10639SOL     OW34454   0.205   2.115   5.908 -0.0418 -0.1056  0.2738
10639SOL    HW134455   0.143   2.157   5.849  1.1270 -0.5893 -1.3536
10639SOL    HW234456   0.272   2.182   5.923  0.1088 -0.2688  0.3308
10640SOL     OW34457   1.630   8.695   5.565  0.3419  0.0954 -0.3649
10640SOL    HW134458   1.570   8.769   5.572 -2.4919 -1.6962 -3.8631
10640SOL    HW234459   1.689   8.718   5.493  1.1995  0.0544  0.3089
10641SOL     OW34460   7.366   7.924   3.090  0.3560  0.0040 -0.5356
10641SOL    HW134461   7.294   7.862   3.078 -0.8443  1.0432  1.1437
10641SOL    HW234462   7.387   7.920   3.183  0.6974  1.6302 -0.5229
10642SOL     OW34463   6.524   8.114   0.018  0.6381 -0.2338  0.2667
10642SOL    HW134464   6.459   8.045   0.006  0.2608  0.3647 -1.2280
10642SOL    HW234465   6.473   8.191   0.042  0.9274 -0.1075  0.4813
10643SOL     OW34466  10.099   2.582   0.057 -0.3278  1.0586  0.2665
10643SOL    HW134467  10.110   2.600  -0.037 -0.8042  1.1139  0.2210
10643SOL    HW234468  10.120   2.489   0.066  0.2018  1.1684  0.1863
10644SOL     OW34469   3.576   8.610   8.796 -0.1724  0.5102  0.5657
10644SOL    HW134470   3.496   8.663   8.800 -1.8976 -2.0932  1.4567
10644SOL    HW234471   3.550   8.524   8.828  2.7205 -0.7475 -0.2848
10645SOL     OW34472   2.213   6.542   3.013  0.4190  0.7937  0.2231
10645SOL    HW134473   2.219   6.476   3.083  0.5729  3.2378  2.6215
10645SOL    HW234474   2.293   6.529   2.962  0.5537 -0.7277  0.7763
10646SOL     OW34475   5.246   8.878   3.462 -0.1635  0.0484  0.1205
10646SOL    HW134476   5.253   8.882   3.367 -0.9360 -0.9820  0.0098
10646SOL    HW234477   5.253   8.969   3.491  0.7204  0.3008 -0.8706
10647SOL     OW34478   3.553   7.561   3.803  0.3497  0.0778 -0.1467
10647SOL    HW134479   3.473   7.574   3.752 -0.6816 -0.2899  1.3493
10647SOL    HW234480   3.571   7.647   3.842 -0.0570 -0.1683  0.5802
10648SOL     OW34481   3.691   4.892   8.835 -0.0584 -0.0750  0.1119
10648SOL    HW134482   3.622   4.951   8.865 -0.0899 -0.2319  0.3463
10648SOL    HW234483   3.762   4.904   8.898  0.2411  0.3085 -0.3001
10649SOL     OW34484   2.290   4.590   2.929  0.1414  0.0179  0.7708
10649SOL    HW134485   2.290   4.501   2.895  0.2882  0.0714  0.6303
10649SOL    HW234486   2.368   4.630   2.891 -0.2922  0.4145  0.2813
10650SOL     OW34487   3.002   3.720   4.552  0.1948  0.2709  0.2485
10650SOL    HW134488   3.044   3.784   4.609  1.5183 -0.7984  0.5054
10650SOL    HW234489   3.074   3.670   4.515 -0.6608  0.9077 -2.3401
10651SOL     OW34490   9.294   1.807   7.524  0.2626  0.2647  0.4093
10651SOL    HW134491   9.366   1.788   7.584 -0.6818 -1.2629  1.0743
10651SOL    HW234492   9.311   1.752   7.448  0.0233  0.2174  0.3907
10652SOL     OW34493   9.126   0.957   4.789  0.6560 -0.1009  0.1417
10652SOL    HW134494   9.214   0.987   4.767  1.1251 -0.5946  1.3165
10652SOL    HW234495   9.083   0.943   4.705  1.4611  0.8266 -0.4346
10653SOL     OW34496   6.669   8.410   4.347  0.5957  0.6294  0.2112
10653SOL    HW134497   6.641   8.386   4.259  1.0600  1.5449 -0.1931
10653SOL    HW234498   6.720   8.490   4.335  1.1548  0.4379  1.2433
10654SOL     OW34499   8.295   1.929   8.225  0.0756  0.0558 -0.0239
10654SOL    HW134500   8.260   1.968   8.144  0.8258 -1.0165 -0.8847
10654SOL    HW234501   8.278   1.994   8.292 -2.8777 -0.1151 -0.5546
10655SOL     OW34502   0.984   5.397   6.641 -0.0682  0.3341  0.3677
10655SOL    HW134503   1.048   5.401   6.569  2.1159  0.6501  2.2551
10655SOL    HW234504   0.985   5.485   6.678 -2.0725  0.4953  0.0650
10656SOL     OW34505   4.229   8.575   8.782  0.0740 -0.4100  0.1984
10656SOL    HW134506   4.259   8.665   8.789 -1.9406  0.5052 -2.0366
10656SOL    HW234507   4.303   8.522   8.813  1.8205  1.9357  0.1578
10657SOL     OW34508   0.588   2.476   7.710  0.5268  0.0625 -0.0857
10657SOL    HW134509   0.560   2.530   7.784 -3.9389 -2.3293  0.1068
10657SOL    HW234510   0.621   2.540   7.646 -1.2667  2.7096  1.5168
10658SOL     OW34511   9.782   9.334   6.332 -0.0165  0.0914 -0.5280
10658SOL    HW134512   9.734   9.267   6.284 -1.6138  0.5375  0.4194
10658SOL    HW234513   9.857   9.287   6.370 -1.0364 -1.1338 -0.0087
10659SOL     OW34514   1.626   3.308   3.600  0.0835  0.2707 -0.5098
10659SOL    HW134515   1.675   3.344   3.526 -0.2603  0.9341 -0.4191
10659SOL    HW234516   1.692   3.263   3.653  0.4065  0.1860 -0.9773
10660SOL     OW34517   6.012   1.629   1.639  0.2276 -0.2720  0.0074
10660SOL    HW134518   6.044   1.614   1.728  0.4560  2.4309  0.4068
10660SOL    HW234519   5.923   1.594   1.639  0.2974 -0.4576  1.2422
10661SOL     OW34520   9.724   2.979   6.648 -0.3623  0.3615  0.7206
10661SOL    HW134521   9.720   2.932   6.731 -1.1949 -0.0858  0.4310
10661SOL    HW234522   9.654   3.045   6.654 -0.1546  0.6021  0.5396
10662SOL     OW34523   5.365   8.801   8.007  0.2547 -0.2384 -0.0479
10662SOL    HW134524   5.351   8.767   8.096  0.8476 -2.3945 -0.7346
10662SOL    HW234525   5.460   8.806   7.998  0.1715  1.6855  0.0407
10663SOL     OW34526   2.801   1.843   2.852 -0.0387 -0.0341  0.1231
10663SOL    HW134527   2.858   1.772   2.882  0.9580  1.3984  1.7187
10663SOL    HW234528   2.750   1.868   2.928 -1.4435 -0.0182 -0.8108
10664SOL     OW34529   7.723   0.343   1.431 -0.5879 -0.5558 -0.2743
10664SOL    HW134530   7.709   0.350   1.525 -1.4688 -1.6342 -0.3181
10664SOL    HW234531   7.727   0.249   1.414 -1.5903 -0.3964 -1.4786
10665SOL     OW34532   8.873   5.110   9.492 -0.2245 -0.1060  0.2419
10665SOL    HW134533   8.840   5.176   9.553  1.3812  1.4065 -0.4930
10665SOL    HW234534   8.829   5.029   9.519 -1.6832  1.1035  1.6041
10666SOL     OW34535   7.495   9.543   9.725  0.2836  0.3995 -0.0341
10666SOL    HW134536   7.586   9.545   9.695  0.5850 -2.1988  0.5741
10666SOL    HW234537   7.498   9.576   9.815  0.9946 -1.7471  0.7588
10667SOL     OW34538   7.900   7.791   6.402  0.1817 -0.1060 -0.1994
10667SOL    HW134539   7.923   7.883   6.387 -0.2936  0.1936  0.8196
10667SOL    HW234540   7.929   7.774   6.492 -0.4166 -0.7278 -0.1236
10668SOL     OW34541   2.991   1.515   2.017  0.0413  0.2703  0.0084
10668SOL    HW134542   3.038   1.486   2.096 -0.5592  2.4791  1.2159
10668SOL    HW234543   2.899   1.495   2.034 -0.0276  0.2318 -0.3915
10669SOL     OW34544   3.827   7.855   5.107 -0.1339 -0.1456 -0.4630
10669SOL    HW134545   3.755   7.852   5.044  0.2393 -0.2963 -0.8908
10669SOL    HW234546   3.813   7.779   5.164 -0.3539 -0.1328 -0.5009
10670SOL     OW34547   2.183   3.945   6.155 -0.3691 -0.0460 -0.0772
10670SOL    HW134548   2.256   3.993   6.115  1.2354 -1.3457  1.2101
10670SOL    HW234549   2.168   3.871   6.096  0.7402 -0.9067  0.6855
10671SOL     OW34550   6.739   4.433   5.467  0.3120 -0.1681 -0.1969
10671SOL    HW134551   6.646   4.433   5.492  0.2789 -0.2943 -0.3227
10671SOL    HW234552   6.768   4.523   5.483  0.2352 -0.1928  0.0936
10672SOL     OW34553   0.916  10.035   6.432 -0.4207 -0.3861  0.3115
10672SOL    HW134554   0.903  10.069   6.343  0.0015 -2.1866 -0.4630
10672SOL    HW234555   1.010  10.019   6.438 -0.3945  0.0455  1.2311
10673SOL     OW34556   4.001   6.577   9.570 -0.0525 -0.3149  0.3293
10673SOL    HW134557   3.956   6.639   9.513 -0.8352 -0.0938  1.1791
10673SOL    HW234558   3.968   6.491   9.543 -0.9559 -0.1602  0.9016
10674SOL     OW34559   7.314   2.468   2.762 -0.0346  0.5704 -0.2935
10674SOL    HW134560   7.391   2.429   2.719 -0.0726  2.2874 -1.9729
10674SOL    HW234561   7.270   2.394   2.803  1.5638 -0.7002 -0.8018
10675SOL     OW34562   0.933   4.020   8.964  0.3560 -0.1035  0.3623
10675SOL    HW134563   0.883   4.099   8.988 -0.7268 -1.0074  1.1388
10675SOL    HW234564   0.916   4.009   8.870  0.1062  0.3026  0.3571
10676SOL     OW34565   2.075   0.552   1.596  0.1552 -0.3385  0.2690
10676SOL    HW134566   1.989   0.559   1.637  0.3408  1.4013  0.3765
10676SOL    HW234567   2.080   0.461   1.567 -1.1938 -0.7887  1.4063
10677SOL     OW34568   1.896   7.276   3.876  0.0684  0.2757  0.4703
10677SOL    HW134569   1.952   7.277   3.797 -0.5976  2.6932 -0.0115
10677SOL    HW234570   1.807   7.276   3.842 -0.2758 -1.7489  1.2631
10678SOL     OW34571   8.857  10.071   3.760 -0.3272  0.1428 -0.0456
10678SOL    HW134572   8.853  10.141   3.826  0.3462  1.9961 -1.9397
10678SOL    HW234573   8.948  10.070   3.732  0.1903 -3.0344  1.5203
10679SOL     OW34574   7.307   5.447   8.340  0.3581 -0.2062 -0.3508
10679SOL    HW134575   7.265   5.396   8.408 -0.1205  0.4783 -0.1215
10679SOL    HW234576   7.284   5.402   8.259  0.1043 -0.4649 -0.1382
10680SOL     OW34577   9.356   6.378   0.744  0.6357  0.1536 -0.2788
10680SOL    HW134578   9.282   6.324   0.769 -0.7358  2.0500 -0.1737
10680SOL    HW234579   9.345   6.393   0.650  0.3821  1.1405 -0.1059
10681SOL     OW34580   2.708   8.138   5.426 -0.2037  0.5433  0.2505
10681SOL    HW134581   2.745   8.221   5.395 -0.3180  0.3384 -0.4435
10681SOL    HW234582   2.658   8.162   5.504  1.1442  0.8702  1.0364
10682SOL     OW34583   5.483   0.515   8.918  0.0393  0.5911 -0.1460
10682SOL    HW134584   5.439   0.492   8.836  0.1234  2.1294 -0.6325
10682SOL    HW234585   5.466   0.441   8.976  0.1018 -0.5838 -1.5971
10683SOL     OW34586   7.759   4.442   2.924  0.2552  0.2216 -0.7256
10683SOL    HW134587   7.806   4.441   3.008 -0.5330 -1.9483 -0.2787
10683SOL    HW234588   7.687   4.380   2.936 -3.0867  3.8562 -1.2419
10684SOL     OW34589   1.662  10.117   5.429  0.3795  0.4167 -0.8902
10684SOL    HW134590   1.746  10.073   5.433 -0.1272 -0.4839  0.0388
10684SOL    HW234591   1.677  10.202   5.472  1.1619  0.8523 -2.0109
10685SOL     OW34592   9.457   7.403   9.026 -0.0318 -0.5302  0.0564
10685SOL    HW134593   9.544   7.405   8.985  0.0287  0.7708  0.1982
10685SOL    HW234594   9.441   7.311   9.045  1.2884 -0.7992 -0.0530
10686SOL     OW34595   3.482   6.468   1.454  0.4437  0.1198  0.0305
10686SOL    HW134596   3.406   6.450   1.398  1.5324 -3.2062 -0.5425
10686SOL    HW234597   3.445   6.492   1.538 -1.2327  2.4362 -1.3142
10687SOL     OW34598   6.052   1.195   0.004 -0.8931 -0.0910  0.5889
10687SOL    HW134599   6.118   1.262  -0.010  0.8452 -1.8704  0.0092
10687SOL    HW234600   5.974   1.243   0.030  0.4194  2.1054  0.5803
10688SOL     OW34601   9.966   6.398   4.402  0.2345 -0.0645 -0.1366
10688SOL    HW134602   9.899   6.455   4.441  0.4687 -0.9068  1.5568
10688SOL    HW234603   9.916   6.334   4.351 -0.4295 -1.7774  2.5340
10689SOL     OW34604   5.516   8.986   8.639 -0.7071 -0.1969 -0.1509
10689SOL    HW134605   5.495   8.910   8.693 -1.7871  0.2520  0.0744
10689SOL    HW234606   5.431   9.017   8.607 -0.2183  0.5390 -0.7471
10690SOL     OW34607   2.101   9.006   1.603 -0.3659 -0.1298  0.2896
10690SOL    HW134608   2.122   9.090   1.563 -1.9230 -0.2487 -0.8012
10690SOL    HW234609   2.124   8.941   1.536  1.0743 -0.6089  1.2234
10691SOL     OW34610   0.808   6.542   3.234 -0.0134 -0.5741 -0.6364
10691SOL    HW134611   0.899   6.533   3.263 -0.0324  1.7241  0.2772
10691SOL    HW234612   0.771   6.606   3.295 -1.7053 -0.0470 -2.2055
10692SOL     OW34613   0.373   1.051   0.753  0.0639 -0.1444 -0.0033
10692SOL    HW134614   0.407   1.133   0.787 -0.2904  0.3010 -0.7152
10692SOL    HW234615   0.340   1.072   0.666 -1.6397 -0.6539  0.4908
10693SOL     OW34616   3.025   4.726   9.735 -0.0371  0.1352  0.3372
10693SOL    HW134617   3.110   4.748   9.773  0.7594  0.2840 -1.4839
10693SOL    HW234618   3.044   4.654   9.675 -1.0599  0.6633 -0.6318
10694SOL     OW34619   4.804   7.820   9.706  0.4309  0.5200 -0.4708
10694SOL    HW134620   4.891   7.831   9.744  0.1111  1.2422  0.0752
10694SOL    HW234621   4.815   7.841   9.613  1.2510 -1.4127 -0.8346
10695SOL     OW34622   8.004   2.725   0.806 -0.6319  0.7007 -0.4028
10695SOL    HW134623   8.016   2.639   0.846  0.6424  1.1320  0.1660
10695SOL    HW234624   8.066   2.782   0.852 -1.0675  1.7980 -1.1555
10696SOL     OW34625   4.547   8.890   5.171  0.2912  0.4367  0.2503
10696SOL    HW134626   4.630   8.868   5.129  0.1147 -0.2020  0.2331
10696SOL    HW234627   4.515   8.807   5.206 -0.0322  0.7944  0.8111
10697SOL     OW34628   6.913   2.872   3.296  0.2777 -0.3409  0.7133
10697SOL    HW134629   6.992   2.836   3.336 -1.5483 -0.1392  4.7003
10697SOL    HW234630   6.841   2.825   3.337 -1.8037  1.1571 -1.0610
10698SOL     OW34631   5.887   1.308   5.631  0.1557  0.6758 -0.4754
10698SOL    HW134632   5.837   1.301   5.550 -1.4144 -1.0579  0.6177
10698SOL    HW234633   5.943   1.230   5.631 -1.5811 -0.6067  1.2274
10699SOL     OW34634   8.468   1.633   6.041  0.5049 -0.5241 -0.1131
10699SOL    HW134635   8.436   1.558   6.092  0.4084 -0.9737 -0.8265
10699SOL    HW234636   8.557   1.608   6.016  0.0924 -0.8864 -1.2793
10700SOL     OW34637   7.704   4.233   6.133 -0.0285 -0.4596  0.1760
10700SOL    HW134638   7.643   4.209   6.062  0.3843  0.3699 -0.4624
10700SOL    HW234639   7.698   4.160   6.195 -1.0771 -0.7626 -0.2696
10701SOL     OW34640   5.813   8.326   8.887  0.3640  0.1941  0.2861
10701SOL    HW134641   5.725   8.290   8.877  0.1930  0.6574  0.1120
10701SOL    HW234642   5.813   8.365   8.974 -0.6527  3.0957 -0.9845
10702SOL     OW34643   0.161   3.224   7.341 -0.0625  0.2471  0.3533
10702SOL    HW134644   0.149   3.297   7.280  2.1365  1.6349  1.4895
10702SOL    HW234645   0.086   3.229   7.401 -0.1855  1.2850  0.1187
10703SOL     OW34646   3.706   9.122   4.569  0.7187 -0.3242  0.3409
10703SOL    HW134647   3.691   9.116   4.475  1.3604 -1.7789  0.3188
10703SOL    HW234648   3.726   9.214   4.584  0.0231  0.0364 -0.8517
10704SOL     OW34649   7.902   4.624   0.077 -0.5396 -0.7133 -0.0587
10704SOL    HW134650   7.931   4.584   0.159 -1.6143  0.5986  0.9882
10704SOL    HW234651   7.806   4.622   0.082 -0.6222  1.3768 -0.2477
10705SOL     OW34652   7.063   2.999   4.602 -0.4303  0.1648  0.0814
10705SOL    HW134653   7.077   2.921   4.655 -1.1262  0.1325  0.2274
10705SOL    HW234654   7.107   2.980   4.519 -0.1602 -0.1744  0.3035
10706SOL     OW34655   1.054   6.033   9.280  0.6680 -0.0301 -0.4613
10706SOL    HW134656   1.135   6.069   9.317  0.0568 -0.1687  1.0525
10706SOL    HW234657   0.998   6.110   9.267  0.8529  0.0095 -1.0412
10707SOL     OW34658   5.493   7.544   0.077 -0.1185 -0.2301 -0.1957
10707SOL    HW134659   5.569   7.602   0.071  0.1085 -0.6555 -1.4579
10707SOL    HW234660   5.432   7.591   0.133  0.2223  1.0662 -0.8993
10708SOL     OW34661   4.271   0.719   6.745  0.1282  0.3480  0.1518
10708SOL    HW134662   4.348   0.745   6.796  0.9136 -0.1773 -0.7484
10708SOL    HW234663   4.201   0.710   6.810  0.4866  2.1091  0.8196
10709SOL     OW34664   8.690   7.768   5.981 -0.2163  0.0324 -0.1743
10709SOL    HW134665   8.774   7.722   5.977 -0.9714 -1.4781  0.6157
10709SOL    HW234666   8.692   7.815   6.064 -1.0655 -1.8971  0.9750
10710SOL     OW34667   3.815   6.156   1.764 -0.0321 -0.4201 -0.2579
10710SOL    HW134668   3.771   6.220   1.708 -1.7592 -0.3362  1.1428
10710SOL    HW234669   3.878   6.208   1.813  0.2735 -0.2027 -0.8765
10711SOL     OW34670   6.412   0.032   8.423  0.5516  0.4059  0.1740
10711SOL    HW134671   6.339  -0.019   8.456  1.7785 -1.6575 -0.1962
10711SOL    HW234672   6.426   0.100   8.489 -1.5771  0.7171  0.3113
10712SOL     OW34673   7.469   3.245   0.575  0.3018 -0.2947 -0.5048
10712SOL    HW134674   7.417   3.176   0.617 -1.3022  1.9462  1.3511
10712SOL    HW234675   7.515   3.288   0.647  0.5594  1.1568 -1.5099
10713SOL     OW34676   9.431   8.121   1.173 -0.5594 -0.4406 -0.3060
10713SOL    HW134677   9.524   8.125   1.150 -0.8137 -0.0981 -1.3344
10713SOL    HW234678   9.407   8.211   1.192 -0.7559 -0.4763 -0.3850
10714SOL     OW34679   1.389   8.546   7.459  0.5221  0.1283  0.2053
10714SOL    HW134680   1.475   8.502   7.461  1.4606  1.7931 -1.8025
10714SOL    HW234681   1.363   8.544   7.367 -0.8178  1.1333  0.5520
10715SOL     OW34682   6.579   4.461   5.844 -0.0389  0.2906 -0.4418
10715SOL    HW134683   6.607   4.543   5.885  2.0529  0.0766 -1.4205
10715SOL    HW234684   6.616   4.393   5.900 -1.2562 -0.0055  0.0164
10716SOL     OW34685   9.900   4.136   5.636  0.1249 -0.2463 -0.0028
10716SOL    HW134686   9.820   4.087   5.616 -0.3652  1.2211 -1.7646
10716SOL    HW234687   9.970   4.088   5.592  0.2173 -1.4362  1.3992
10717SOL     OW34688   4.589   5.803   8.640  0.2379  0.4462 -0.6452
10717SOL    HW134689   4.608   5.897   8.649 -1.5726  0.8567 -0.9927
10717SOL    HW234690   4.675   5.762   8.638  1.0209  1.8801  1.8853
10718SOL     OW34691   1.883   6.989   7.857 -0.5336 -0.1907 -0.0768
10718SOL    HW134692   1.860   6.904   7.819 -2.5401  0.8622 -1.2777
10718SOL    HW234693   1.967   7.010   7.816 -0.1896 -1.4246 -0.0398
10719SOL     OW34694   1.995   4.631   5.448  0.5510  0.0987 -0.3100
10719SOL    HW134695   1.947   4.604   5.527 -0.1978  0.6286 -0.5821
10719SOL    HW234696   1.977   4.724   5.440  0.9149  0.1147 -0.9185
10720SOL     OW34697   6.447   9.273   8.180 -0.2928  0.2322  0.0948
10720SOL    HW134698   6.393   9.288   8.102 -0.9113 -1.0870  0.2661
10720SOL    HW234699   6.423   9.344   8.240 -0.1706  0.9718 -0.7258
10721SOL     OW34700   5.478   9.042   3.655 -0.1412 -0.0990 -0.2956
10721SOL    HW134701   5.495   9.135   3.644  0.1876 -0.4075 -2.6278
10721SOL    HW234702   5.565   9.003   3.666 -0.1135 -0.4095 -1.6259
10722SOL     OW34703   2.425   8.589   4.385 -0.0915 -0.3548  0.3662
10722SOL    HW134704   2.486   8.653   4.421  0.0100  0.3857 -1.0658
10722SOL    HW234705   2.381   8.635   4.313 -2.2633 -0.9256  1.3048
10723SOL     OW34706   8.489   0.082   6.888  0.1911  0.5721 -0.1671
10723SOL    HW134707   8.530   0.131   6.959  2.3519  0.1586 -1.1051
10723SOL    HW234708   8.446   0.149   6.835 -0.1338  1.0417  0.6679
10724SOL     OW34709   1.601   7.082   9.798 -0.5649 -0.1120 -0.1464
10724SOL    HW134710   1.547   7.126   9.864 -0.6334  0.5544 -0.6384
10724SOL    HW234711   1.645   7.153   9.752 -1.3293 -0.5052 -1.5195
10725SOL     OW34712   6.947   8.289   1.916 -0.5148  0.1354 -0.7001
10725SOL    HW134713   6.916   8.211   1.963  2.3546 -0.6839 -0.0398
10725SOL    HW234714   6.961   8.354   1.985  1.3854 -0.2743 -0.6758
10726SOL     OW34715   7.318   0.458   0.631  0.1147 -0.3453  0.6618
10726SOL    HW134716   7.295   0.371   0.597 -0.4124 -0.9661  2.5626
10726SOL    HW234717   7.306   0.451   0.726  0.4666  1.6874  0.8799
10727SOL     OW34718   9.021   1.183   2.139 -0.0292  0.3792 -0.4230
10727SOL    HW134719   9.010   1.117   2.206  0.7433  0.8522  0.1808
10727SOL    HW234720   8.980   1.146   2.061 -1.5093  0.0964  0.4745
10728SOL     OW34721   8.572   7.646   8.512  0.1870  0.3687  0.4159
10728SOL    HW134722   8.666   7.658   8.509  0.1119  0.8489  0.0277
10728SOL    HW234723   8.536   7.735   8.508 -0.2613  0.2317  1.2682
10729SOL     OW34724   1.765   9.300   6.282 -0.3450  0.2114 -0.3412
10729SOL    HW134725   1.799   9.377   6.329 -0.1360  0.3199 -0.6667
10729SOL    HW234726   1.671   9.301   6.301 -0.3228  0.4712 -0.2329
10730SOL     OW34727   3.321   7.711   8.838  0.5870 -0.1523 -0.6415
10730SOL    HW134728   3.412   7.728   8.815  0.5203 -1.1141 -1.6609
10730SOL    HW234729   3.270   7.750   8.766  0.2970 -1.6079 -1.2361
10731SOL     OW34730   7.388   7.312   7.847 -0.3284  0.5990  0.3254
10731SOL    HW134731   7.418   7.402   7.834 -0.6324  0.6836  0.1998
10731SOL    HW234732   7.430   7.262   7.777 -2.7362  1.2277 -1.6453
10732SOL     OW34733   5.884   7.657   5.004 -0.1612  0.4191 -0.0080
10732SOL    HW134734   5.893   7.749   4.979  1.0697  0.9945  2.3847
10732SOL    HW234735   5.847   7.615   4.927 -0.8757  2.9461 -1.1012
10733SOL     OW34736   7.180   7.867   3.991 -0.4342  0.0563  0.0313
10733SOL    HW134737   7.089   7.839   4.003 -0.8333  1.3476  0.0339
10733SOL    HW234738   7.175   7.940   3.930  0.8832 -1.6930 -2.2704
10734SOL     OW34739   9.029   9.802   3.465  0.4936  0.2117  0.1528
10734SOL    HW134740   9.004   9.767   3.379  0.3044  1.0565 -0.1503
10734SOL    HW234741   8.947   9.804   3.515  0.5220  0.1137  0.2041
10735SOL     OW34742   8.050   8.883   6.890  0.1373  0.0206  0.0116
10735SOL    HW134743   7.994   8.960   6.885  0.4501  0.2373 -0.1377
10735SOL    HW234744   7.991   8.812   6.915 -0.4856 -0.0382 -1.5512
10736SOL     OW34745   7.571   9.161   5.169  0.8052 -0.3105  0.1226
10736SOL    HW134746   7.604   9.073   5.153  0.8378 -0.1946 -0.4964
10736SOL    HW234747   7.482   9.148   5.202  0.8207 -0.5771  0.0620
10737SOL     OW34748   4.751   5.422   5.904  0.1618  0.9565 -0.1882
10737SOL    HW134749   4.753   5.328   5.884 -2.2627  1.4400 -3.0482
10737SOL    HW234750   4.830   5.437   5.956  1.0239 -2.5026 -0.3753
10738SOL     OW34751   5.955   9.252   5.097 -0.4306  0.6468  0.0943
10738SOL    HW134752   5.911   9.232   5.179 -0.6946  0.7866 -0.0143
10738SOL    HW234753   5.907   9.326   5.061 -0.6513  0.2379 -0.4531
10739SOL     OW34754   1.002   6.351   6.109 -0.0193 -0.2253 -0.3356
10739SOL    HW134755   1.052   6.394   6.040  0.9723 -0.8787 -0.0398
10739SOL    HW234756   0.919   6.326   6.067  0.7122 -0.9350 -1.3942
10740SOL     OW34757   0.753   1.465   7.037  0.1119  0.5176 -0.4369
10740SOL    HW134758   0.669   1.426   7.062  1.2476 -0.3442  2.1189
10740SOL    HW234759   0.743   1.558   7.059 -0.0478  0.3610  0.1454
10741SOL     OW34760   8.738   8.844   2.425  0.2054  0.2676  1.0071
10741SOL    HW134761   8.679   8.772   2.451  1.5894 -1.1146  0.3698
10741SOL    HW234762   8.690   8.890   2.357 -1.3801  0.9495  2.5247
10742SOL     OW34763   2.393   5.489   5.586  0.0101 -0.6071 -0.8259
10742SOL    HW134764   2.392   5.395   5.571 -0.1712 -0.5339 -1.3044
10742SOL    HW234765   2.304   5.510   5.614 -0.2166 -0.4383 -1.6588
10743SOL     OW34766   4.735   5.438   2.655  0.4030  0.2676  0.3576
10743SOL    HW134767   4.781   5.512   2.695 -0.2248  1.0299 -0.3149
10743SOL    HW234768   4.653   5.476   2.624 -0.9174 -1.1747  2.0016
10744SOL     OW34769   8.258   7.724   5.299  0.1291  0.6749  0.0315
10744SOL    HW134770   8.310   7.773   5.235  0.5786  2.3057  1.5886
10744SOL    HW234771   8.322   7.676   5.351  0.1335  2.6945  1.9584
10745SOL     OW34772   1.668   3.540   0.282 -0.2535 -0.1016 -0.2122
10745SOL    HW134773   1.598   3.577   0.228 -0.5048  1.5785  1.2213
10745SOL    HW234774   1.623   3.508   0.360  0.5844  1.2913  0.8673
10746SOL     OW34775   8.660   1.708   7.913 -0.6745  0.9334 -0.2184
10746SOL    HW134776   8.579   1.680   7.956 -0.5945  0.8921 -0.0981
10746SOL    HW234777   8.636   1.789   7.868 -0.5083  1.4985  0.7053
10747SOL     OW34778   1.800   8.461   5.388  0.2997 -0.2934 -0.0599
10747SOL    HW134779   1.884   8.495   5.358  0.0030  0.6666  0.1836
10747SOL    HW234780   1.810   8.455   5.483  0.1965 -0.4607 -0.0591
10748SOL     OW34781   3.612   6.669   2.946 -0.1841 -0.3961 -0.6828
10748SOL    HW134782   3.644   6.746   2.898  0.5187 -0.7869 -0.8499
10748SOL    HW234783   3.629   6.596   2.887 -1.6358 -0.5931 -0.8859
10749SOL     OW34784   6.408   3.034   6.196 -0.7319 -0.2583 -0.6401
10749SOL    HW134785   6.456   3.084   6.131 -1.1638  1.2306  0.1602
10749SOL    HW234786   6.316   3.057   6.182 -0.7924  0.4527  0.7722
10750SOL     OW34787   6.719   2.694   3.522  0.0895 -0.0131 -0.1070
10750SOL    HW134788   6.682   2.688   3.434 -2.9063 -0.1276  1.0894
10750SOL    HW234789   6.659   2.643   3.577  1.3303  0.8871  2.1796
10751SOL     OW34790   1.170   2.905   9.355  0.2538 -0.3915 -0.0842
10751SOL    HW134791   1.190   2.989   9.313 -1.4614  0.1602  0.1330
10751SOL    HW234792   1.203   2.839   9.294 -1.2423  0.4084 -1.8133
10752SOL     OW34793   9.423   8.910   1.549  0.3179  0.1480 -0.4432
10752SOL    HW134794   9.384   8.993   1.574 -1.1488 -1.1213  1.6374
10752SOL    HW234795   9.510   8.911   1.587 -0.6982 -0.3777  1.9641
10753SOL     OW34796   8.794   2.271   7.865  0.0888  0.1832  0.2726
10753SOL    HW134797   8.768   2.180   7.848  0.8877 -0.0003  0.0142
10753SOL    HW234798   8.804   2.310   7.779  0.3507  0.3396  0.3716
10754SOL     OW34799   0.381   6.075   7.957  0.1332 -0.3621 -0.5768
10754SOL    HW134800   0.394   5.982   7.939  2.8072  0.2142 -1.8647
10754SOL    HW234801   0.389   6.083   8.052  2.3183 -1.1292 -0.6636
10755SOL     OW34802   1.886   5.801   2.858  0.1856  0.1501 -0.3803
10755SOL    HW134803   1.859   5.748   2.783  0.6073 -0.9807  0.2573
10755SOL    HW234804   1.971   5.765   2.883  0.9558  1.7982 -0.5746
10756SOL     OW34805   9.291   2.772   5.309 -0.0181 -0.1712 -0.3036
10756SOL    HW134806   9.257   2.850   5.265  2.0612  0.3770 -0.9775
10756SOL    HW234807   9.324   2.804   5.393  0.1553 -0.4574 -0.2620
10757SOL     OW34808   8.891   7.349   5.586 -0.3684  0.2717  0.1652
10757SOL    HW134809   8.954   7.420   5.596  3.4163 -2.5035 -2.1924
10757SOL    HW234810   8.877   7.343   5.491 -1.0075 -1.7730  0.3696
10758SOL     OW34811   0.503   7.102   4.310 -0.0574 -0.2774  0.3119
10758SOL    HW134812   0.521   7.196   4.311  0.6892 -0.4255  0.7655
10758SOL    HW234813   0.498   7.079   4.403 -1.1768 -0.5058  0.2016
10759SOL     OW34814   8.543   3.798   6.735 -0.6432 -0.3698  0.3475
10759SOL    HW134815   8.462   3.827   6.776 -0.2992 -0.0483  0.8127
10759SOL    HW234816   8.556   3.857   6.661  1.0555  1.9677  2.4122
10760SOL     OW34817   8.734   3.614   9.565 -0.6103 -0.1199  0.3515
10760SOL    HW134818   8.756   3.535   9.615 -0.5234 -0.2779  0.0683
10760SOL    HW234819   8.643   3.633   9.589 -0.9607 -0.8847 -0.3286
10761SOL     OW34820   7.238   3.491   2.231  0.0254  0.4304  0.2039
10761SOL    HW134821   7.305   3.423   2.242 -2.0836 -1.5238  1.2487
10761SOL    HW234822   7.222   3.494   2.137  2.7585  2.1567 -0.2937
10762SOL     OW34823   9.659   9.636   3.043  0.7044 -0.1799  0.4429
10762SOL    HW134824   9.622   9.646   3.131 -0.2967 -0.2670  0.0361
10762SOL    HW234825   9.606   9.694   2.988  1.9482  0.6168  0.0663
10763SOL     OW34826   6.602   4.146   5.333 -0.7936 -0.1561 -0.0217
10763SOL    HW134827   6.538   4.117   5.268 -1.2865  1.8257 -0.4612
10763SOL    HW234828   6.566   4.227   5.368  0.9165  0.3766  0.5755
10764SOL     OW34829   0.059   5.105   0.483 -0.3317  0.2820  0.1752
10764SOL    HW134830   0.081   5.149   0.401 -1.7331  0.2455 -0.2367
10764SOL    HW234831   0.140   5.107   0.535 -0.1545  2.5960 -0.1645
10765SOL     OW34832   4.006   3.612   3.223  0.0313 -0.7342 -0.1815
10765SOL    HW134833   4.097   3.614   3.193 -0.1410 -0.9242 -0.7206
10765SOL    HW234834   4.006   3.552   3.298  0.4204 -0.4312  0.0634
10766SOL     OW34835   3.135   7.325   5.430  0.2507  0.3981  0.2391
10766SOL    HW134836   3.197   7.395   5.452  0.5452  0.4008 -0.5591
10766SOL    HW234837   3.169   7.288   5.349  0.3245 -0.9621  0.8873
10767SOL     OW34838   0.833   6.717   4.618 -0.4191  0.4201 -0.7306
10767SOL    HW134839   0.875   6.797   4.651 -0.1382 -0.0340  0.0288
10767SOL    HW234840   0.834   6.727   4.523  0.2914  0.9767 -0.6693
10768SOL     OW34841   6.265   1.604   7.384 -0.6079 -0.6233 -0.0660
10768SOL    HW134842   6.208   1.551   7.440 -0.2973  0.6721  1.4981
10768SOL    HW234843   6.245   1.694   7.408 -0.1348 -0.0687 -1.7286
10769SOL     OW34844   1.638   3.738   3.487  0.4342 -0.3843  0.0282
10769SOL    HW134845   1.703   3.800   3.518  1.3414 -0.4221 -1.7539
10769SOL    HW234846   1.616   3.685   3.564 -0.2083  1.9896  1.5173
10770SOL     OW34847   6.487   2.841   1.928  0.1055 -0.2376  0.0775
10770SOL    HW134848   6.427   2.774   1.962  0.9632 -0.8676  0.3702
10770SOL    HW234849   6.570   2.823   1.972 -0.2936  2.6167  2.1291
10771SOL     OW34850   4.713   0.506   8.545  0.0195 -0.2635 -0.5858
10771SOL    HW134851   4.745   0.562   8.616 -0.0789 -1.2196  0.2423
10771SOL    HW234852   4.664   0.564   8.488 -1.6116  0.1947  1.2141
10772SOL     OW34853   2.517   3.246   0.116 -0.5437 -0.1089  0.0209
10772SOL    HW134854   2.465   3.327   0.119 -0.5943 -0.1516  0.3077
10772SOL    HW234855   2.524   3.226   0.022 -1.1922 -0.1985 -0.0114
10773SOL     OW34856   2.423   0.643   6.969 -0.4744  0.1724 -0.7865
10773SOL    HW134857   2.340   0.645   6.921 -1.8361 -2.6576  1.2949
10773SOL    HW234858   2.406   0.694   7.048 -0.7546 -1.6584  0.3596
10774SOL     OW34859   6.013   1.421   1.332 -0.8442  0.3199  0.3134
10774SOL    HW134860   6.008   1.389   1.422  2.2355  0.4437  0.5783
10774SOL    HW234861   6.034   1.514   1.341 -1.8305  0.6287 -0.5329
10775SOL     OW34862   5.418   9.592   9.918  0.3706  0.0810  0.5551
10775SOL    HW134863   5.399   9.501   9.893  0.4595 -0.6201  2.8765
10775SOL    HW234864   5.463   9.584  10.002 -1.5951  2.3776  1.8690
10776SOL     OW34865   4.940   4.963   6.344 -0.2951  0.1816  0.4908
10776SOL    HW134866   4.971   5.048   6.378 -4.5240  1.8486  0.5654
10776SOL    HW234867   4.929   4.977   6.250  0.4645 -0.7848  0.2542
10777SOL     OW34868   2.761   3.519   4.236  0.0258 -0.1195  0.1447
10777SOL    HW134869   2.808   3.540   4.155  0.8825  1.1694  0.9575
10777SOL    HW234870   2.781   3.592   4.295  0.2613 -1.5463  1.8823
10778SOL     OW34871   4.722   3.108   4.562  0.9111 -0.3097  0.1313
10778SOL    HW134872   4.741   3.077   4.473 -0.6067  0.2726 -0.4147
10778SOL    HW234873   4.689   3.031   4.608 -2.1266  0.2311 -1.0020
10779SOL     OW34874   7.223   4.262   7.707  0.1559  0.4844 -0.9216
10779SOL    HW134875   7.208   4.256   7.801 -1.4170  1.5188 -1.0859
10779SOL    HW234876   7.252   4.175   7.681 -1.9961 -0.5693  0.0810
10780SOL     OW34877   4.290   5.521   6.525  0.2745  0.3965  0.5186
10780SOL    HW134878   4.354   5.454   6.550  0.2246  0.4811  0.8806
10780SOL    HW234879   4.344   5.594   6.493  0.3688  0.5602  1.0514
10781SOL     OW34880   0.083   1.911   5.562  0.4507 -0.1943  0.3217
10781SOL    HW134881   0.086   1.851   5.636 -0.0594  0.0809  0.5676
10781SOL    HW234882   0.011   1.879   5.508 -0.8163  1.0599  1.2113
10782SOL     OW34883   1.198   8.775   3.035  0.5888 -0.2269  0.6974
10782SOL    HW134884   1.257   8.794   3.108  0.3941  1.0303  0.5441
10782SOL    HW234885   1.175   8.861   3.000 -1.3689 -0.6914  0.7883
10783SOL     OW34886   7.603   4.198   9.051  0.0624 -0.0378 -0.8737
10783SOL    HW134887   7.638   4.255   9.120 -1.2629 -0.3439  0.0927
10783SOL    HW234888   7.572   4.259   8.984 -1.6281  0.4428  0.2937
10784SOL     OW34889   1.866   7.781   4.656  0.0996  0.0754  0.0323
10784SOL    HW134890   1.888   7.827   4.737  1.5605 -1.2078  0.3867
10784SOL    HW234891   1.943   7.790   4.601 -0.8851  0.9313 -1.2312
10785SOL     OW34892   0.208   9.738   1.438  0.2768  0.3398  0.4581
10785SOL    HW134893   0.295   9.698   1.439 -0.5250 -1.4879  0.1624
10785SOL    HW234894   0.167   9.702   1.359 -0.6040  1.4973  0.3823
10786SOL     OW34895   7.908   7.860   7.571 -0.2610 -0.1414 -0.1166
10786SOL    HW134896   7.936   7.951   7.569 -1.0418  0.1160  0.2876
10786SOL    HW234897   7.826   7.859   7.523  0.2001 -0.7998 -0.8970
10787SOL     OW34898   7.837   3.561   1.868  0.7473  0.1687 -0.1218
10787SOL    HW134899   7.802   3.630   1.812 -1.8915 -0.9686  0.0687
10787SOL    HW234900   7.851   3.487   1.809  1.2701  0.0889  0.1014
10788SOL     OW34901   0.725   5.564   0.307  0.2929 -0.1891 -0.0771
10788SOL    HW134902   0.702   5.540   0.396 -0.5857 -0.1846 -0.2940
10788SOL    HW234903   0.779   5.643   0.316 -1.9793  1.3746  0.3375
10789SOL     OW34904   7.952   8.257   9.000 -0.1039  0.1671 -0.2100
10789SOL    HW134905   7.957   8.185   9.063 -1.1577  0.1640 -0.1186
10789SOL    HW234906   8.043   8.284   8.988 -0.0184  1.2476  2.5473
10790SOL     OW34907  10.119   8.266   9.756 -0.2516  0.1022 -0.3602
10790SOL    HW134908  10.196   8.219   9.788  0.0570  0.6199 -0.3446
10790SOL    HW234909  10.049   8.242   9.816  0.1683  0.5470  0.3088
10791SOL     OW34910   5.411   8.389   9.442 -0.1884  0.0610 -0.2704
10791SOL    HW134911   5.449   8.476   9.427 -1.5204  0.3810 -1.9819
10791SOL    HW234912   5.444   8.335   9.371  0.5687 -0.8333  0.7467
10792SOL     OW34913   8.642   2.239   0.073  0.6734  0.0254 -0.0946
10792SOL    HW134914   8.673   2.329   0.061  1.6998 -0.3892 -0.5854
10792SOL    HW234915   8.602   2.216  -0.011  0.9135 -0.1658 -0.1583
10793SOL     OW34916   7.891   7.838   6.682 -0.2005  0.6237  0.0990
10793SOL    HW134917   7.957   7.907   6.668  0.1780  0.7197  2.2336
10793SOL    HW234918   7.821   7.881   6.730  0.3064 -0.5912  1.9858
10794SOL     OW34919   3.002   9.543   3.785  0.5023 -0.0479 -0.0080
10794SOL    HW134920   2.948   9.620   3.764 -0.9144 -0.7855  0.8362
10794SOL    HW234921   2.981   9.480   3.716 -0.3150 -0.6147  0.7445
10795SOL     OW34922   5.268   5.489   3.433  0.2534  0.1926 -0.2396
10795SOL    HW134923   5.289   5.460   3.344  3.7048  1.1037  0.1729
10795SOL    HW234924   5.291   5.414   3.488  2.9132  1.3224  0.2590
10796SOL     OW34925   1.127   5.504  10.037 -0.6579 -0.6058  0.0558
10796SOL    HW134926   1.158   5.447  10.107  0.0429  0.7235  0.8474
10796SOL    HW234927   1.206   5.550  10.007 -1.1766 -0.2214 -0.7370
10797SOL     OW34928   0.463   3.873   4.102  0.0064 -0.2479  0.3609
10797SOL    HW134929   0.407   3.806   4.064 -2.1039  0.7532  1.6095
10797SOL    HW234930   0.404   3.927   4.155  1.9942  1.3855  1.0004
10798SOL     OW34931   9.218   3.892   0.086  0.5533  0.1705  0.7031
10798SOL    HW134932   9.176   3.977   0.101 -0.8305 -0.2991 -0.3916
10798SOL    HW234933   9.160   3.829   0.130  0.4619 -0.4278 -0.2759
10799SOL     OW34934   6.384   8.063   2.082 -0.2777  0.0907  0.5200
10799SOL    HW134935   6.312   8.013   2.043  0.4396 -0.2019 -0.4402
10799SOL    HW234936   6.459   8.003   2.082  0.1660  0.6352  0.8430
10800SOL     OW34937   6.705   5.153   0.347  0.2281 -0.0838 -0.3924
10800SOL    HW134938   6.719   5.239   0.386  0.2541 -1.1301  2.0313
10800SOL    HW234939   6.790   5.110   0.352 -0.5951 -1.5236  1.7494
10801SOL     OW34940   5.540   3.581   2.773 -0.3392  0.3040  0.2990
10801SOL    HW134941   5.490   3.646   2.822  0.6621  0.0858  1.6481
10801SOL    HW234942   5.515   3.595   2.682 -0.1428  2.5989  0.5631
10802SOL     OW34943   5.503   5.777   7.047 -0.0437 -0.5707  0.1705
10802SOL    HW134944   5.494   5.766   6.953 -0.1209 -1.2115  0.2516
10802SOL    HW234945   5.415   5.797   7.078 -0.0279 -0.4165  0.1189
10803SOL     OW34946   3.949  10.126   1.327 -0.0857 -0.4743  0.2848
10803SOL    HW134947   3.892  10.124   1.404 -0.4110  2.0575  0.1697
10803SOL    HW234948   3.985  10.215   1.327 -1.8467  0.3232 -3.7605
10804SOL     OW34949   5.374   0.828   3.331 -0.1439  0.4035  0.1864
10804SOL    HW134950   5.445   0.842   3.393 -0.6219  0.9837  0.6120
10804SOL    HW234951   5.295   0.852   3.380 -0.6450 -0.3754 -0.2328
10805SOL     OW34952   8.035   1.865   9.897 -0.0149 -0.1919 -0.3797
10805SOL    HW134953   8.000   1.778   9.879 -1.4371  0.2270  0.2753
10805SOL    HW234954   7.963   1.911   9.941  1.1315  0.9219  0.3544
10806SOL     OW34955   1.785   0.613   1.659 -0.5582  0.4136  0.7920
10806SOL    HW134956   1.809   0.600   1.751 -0.6286 -0.8969  0.6402
10806SOL    HW234957   1.693   0.586   1.654 -0.5286  0.3945  0.3206
10807SOL     OW34958   0.542   7.483   5.707  0.0935 -0.3105 -0.0500
10807SOL    HW134959   0.459   7.530   5.703  0.2496 -0.1431 -1.8616
10807SOL    HW234960   0.517   7.393   5.725 -0.3257  0.1223  1.6285
10808SOL     OW34961   9.437  10.109   9.023 -0.0264  0.1757 -0.3531
10808SOL    HW134962   9.466  10.026   8.984  0.3403 -2.0296  4.1937
10808SOL    HW234963   9.518  10.156   9.040  0.0517 -0.2924  0.6118
10809SOL     OW34964   7.510   0.667   4.140  0.0955 -0.1931  0.5260
10809SOL    HW134965   7.588   0.691   4.090  0.3439 -0.8917  0.5762
10809SOL    HW234966   7.437   0.682   4.080  0.3291 -0.2725  0.2255
10810SOL     OW34967   4.946   1.276   1.771  0.5076 -0.5275  0.3812
10810SOL    HW134968   5.041   1.276   1.761  0.6393 -0.6743  1.6137
10810SOL    HW234969   4.924   1.367   1.793  0.3068 -0.3998 -0.3103
10811SOL     OW34970   9.753   4.667   6.413 -0.3632 -0.0836 -0.2001
10811SOL    HW134971   9.843   4.672   6.445  0.1109 -0.4288 -1.4593
10811SOL    HW234972   9.709   4.606   6.472  0.5610 -0.8865 -0.3384
10812SOL     OW34973   0.637   3.089   0.549  0.3351 -0.2921 -0.4789
10812SOL    HW134974   0.561   3.137   0.583 -0.3112 -1.9298  0.4218
10812SOL    HW234975   0.605   3.047   0.469  0.3347 -0.8860 -0.1642
10813SOL     OW34976   0.126   4.667   6.160  0.1755  0.1925  0.2541
10813SOL    HW134977   0.217   4.643   6.141 -0.5342 -0.5749 -2.4203
10813SOL    HW234978   0.113   4.749   6.112 -0.3322  0.7391  1.2967
10814SOL     OW34979   9.254   8.349   5.857  0.1866 -0.5434  1.0306
10814SOL    HW134980   9.209   8.313   5.934 -0.0203 -2.2822  0.1046
10814SOL    HW234981   9.184   8.374   5.797  0.3366  1.1864  1.5431
10815SOL     OW34982   2.654   2.391   0.566  0.1914  0.2556 -0.6723
10815SOL    HW134983   2.569   2.353   0.544  0.5435 -0.7918 -0.2593
10815SOL    HW234984   2.677   2.443   0.489 -0.4702 -0.0705 -1.0999
10816SOL     OW34985   2.954   2.249   3.760  0.2160  0.1054 -0.3301
10816SOL    HW134986   2.966   2.155   3.772 -1.1676  0.0352  0.5639
10816SOL    HW234987   2.863   2.258   3.730  0.7365  1.0585 -1.6743
10817SOL     OW34988   2.038   7.362   9.430 -0.2928 -0.1504  0.2785
10817SOL    HW134989   2.114   7.313   9.461  0.4430  0.2379 -0.8754
10817SOL    HW234990   1.966   7.299   9.430  0.1011 -0.5930  1.1051
10818SOL     OW34991   9.178   3.354   5.743  0.4025 -1.0371  0.2087
10818SOL    HW134992   9.150   3.434   5.787  0.8985 -0.1089 -1.1514
10818SOL    HW234993   9.098   3.319   5.704  0.7853  0.7660 -2.3131
10819SOL     OW34994   8.687   9.868   8.209  0.5405  0.0396  0.5961
10819SOL    HW134995   8.671   9.938   8.272  0.3546  0.6867 -0.1671
10819SOL    HW234996   8.636   9.893   8.132 -1.1597 -1.9727  1.0355
10820SOL     OW34997   7.376   8.549   0.960 -0.4842  0.0971  0.2878
10820SOL    HW134998   7.294   8.578   1.000 -0.2598 -1.5965  2.0194
10820SOL    HW234999   7.418   8.496   1.027  1.0000 -0.8843 -1.3810
10821SOL     OW35000   4.214   9.679   2.483  0.0967 -0.2039  0.0754
10821SOL    HW135001   4.214   9.758   2.537 -1.4903 -1.0507  1.3713
10821SOL    HW235002   4.280   9.622   2.524  1.6136  0.6166 -1.1646
10822SOL     OW35003  10.021   0.990   1.972  0.4741 -0.4753 -0.1249
10822SOL    HW135004  10.093   1.041   1.934  0.0796 -0.1550 -0.4427
10822SOL    HW235005   9.943   1.021   1.927  0.1352 -0.8424  0.2031
10823SOL     OW35006   1.965   0.581   5.791  0.3531  0.3109 -0.4258
10823SOL    HW135007   1.922   0.599   5.876  1.8543  0.2200  0.3614
10823SOL    HW235008   2.001   0.666   5.765  1.7808 -0.1262  0.0970
10824SOL     OW35009   8.037   8.713   6.086  0.1399 -0.2938  0.0964
10824SOL    HW135010   8.105   8.657   6.124 -1.5441 -1.8778  0.8247
10824SOL    HW235011   7.962   8.656   6.074 -0.6420  1.1138 -2.0224
10825SOL     OW35012   7.755   2.405   6.346  0.0748 -0.9976 -0.4110
10825SOL    HW135013   7.711   2.457   6.278 -1.5459 -2.1843 -0.3008
10825SOL    HW235014   7.687   2.387   6.410  0.9182 -2.2293  0.1553
10826SOL     OW35015   8.269   5.522   1.650 -0.9509 -0.1288 -0.1550
10826SOL    HW135016   8.326   5.445   1.655  0.0807  0.5817 -0.8852
10826SOL    HW235017   8.280   5.565   1.734  1.2523  1.1525 -1.0539
10827SOL     OW35018   6.578   8.191   4.662 -0.0938  0.4397 -0.6799
10827SOL    HW135019   6.552   8.099   4.668  2.0205 -0.2637 -1.7497
10827SOL    HW235020   6.650   8.200   4.725  0.5041  1.0537 -1.4322
10828SOL     OW35021   8.461   2.596   6.031  0.1256 -0.9113  0.0820
10828SOL    HW135022   8.490   2.509   6.005  0.1303 -1.3980  1.6326
10828SOL    HW235023   8.365   2.588   6.038 -0.1284 -0.1182 -2.1242
10829SOL     OW35024   6.179   0.793   5.711 -0.0541 -0.3509 -0.2726
10829SOL    HW135025   6.248   0.781   5.776 -0.0916 -0.2770 -0.2183
10829SOL    HW235026   6.132   0.710   5.710 -1.9020  0.5959  1.9667
10830SOL     OW35027   0.829   1.855   7.790 -0.1847 -0.0756  0.0718
10830SOL    HW135028   0.745   1.812   7.770 -0.9218  2.4412 -2.5181
10830SOL    HW235029   0.807   1.922   7.854  0.5892 -1.9863  2.4105
10831SOL     OW35030   7.139   0.654   7.676  0.2283 -0.0407 -0.2060
10831SOL    HW135031   7.142   0.742   7.639  0.0920 -1.1194 -2.8920
10831SOL    HW235032   7.057   0.617   7.643  0.3459 -1.2136  0.7963
10832SOL     OW35033   9.549   7.587   2.201 -0.3265  0.2100 -0.0670
10832SOL    HW135034   9.465   7.631   2.186 -1.1006 -1.1853  0.1351
10832SOL    HW235035   9.571   7.608   2.292 -0.1371  1.0966 -0.3115
10833SOL     OW35036   6.675   5.955   6.806 -0.0702 -0.0883  0.3451
10833SOL    HW135037   6.656   5.868   6.771 -0.2024 -0.4275  1.2233
10833SOL    HW235038   6.618   6.015   6.757 -0.6043 -0.6100  0.3242
10834SOL     OW35039   7.073   4.210   3.812 -0.3003 -0.2239 -0.4947
10834SOL    HW135040   7.010   4.143   3.786 -1.0821  0.6080 -0.7424
10834SOL    HW235041   7.158   4.173   3.787 -0.7383 -1.0495 -0.7897
10835SOL     OW35042   6.357   5.851   0.678  0.0509 -0.2337  0.4207
10835SOL    HW135043   6.329   5.849   0.586  0.0122  0.3068  0.4233
10835SOL    HW235044   6.397   5.765   0.692  0.7080 -0.0497 -0.3071
10836SOL     OW35045   7.209   7.125   8.238 -0.2035 -0.4029  0.2977
10836SOL    HW135046   7.204   7.187   8.165  0.5464 -1.1308 -0.3840
10836SOL    HW235047   7.120   7.090   8.245 -0.3090 -0.2428 -0.1872
10837SOL     OW35048   8.040   9.702   0.600 -0.2539  0.5689 -0.5678
10837SOL    HW135049   8.061   9.639   0.669  0.0188  1.9311  0.6272
10837SOL    HW235050   7.969   9.661   0.551  1.2670 -1.5675 -1.0884
10838SOL     OW35051   9.025   8.117   3.559  0.3476 -0.1868  0.0907
10838SOL    HW135052   8.982   8.142   3.641 -2.9488 -0.2248 -1.5481
10838SOL    HW235053   9.063   8.199   3.527 -1.1687  0.5460  0.0859
10839SOL     OW35054   0.214   6.372   6.030  0.3842  0.0917 -0.2346
10839SOL    HW135055   0.266   6.444   5.995  2.8254 -1.3786  0.2579
10839SOL    HW235056   0.227   6.377   6.124  1.1919 -1.4609 -0.2592
10840SOL     OW35057   5.472   4.881   6.239 -0.1807  0.3525 -0.8448
10840SOL    HW135058   5.474   4.925   6.324 -0.7513 -1.1451 -0.0195
10840SOL    HW235059   5.395   4.916   6.195 -1.8342 -1.2563  0.6435
10841SOL     OW35060   7.202   2.924   4.328  0.1814 -0.1338 -0.3136
10841SOL    HW135061   7.125   2.978   4.309 -0.3093 -0.8810 -0.4610
10841SOL    HW235062   7.169   2.834   4.328  0.7769 -0.3667  1.0439
10842SOL     OW35063   1.719   6.955   6.275 -0.1259 -0.1713  0.1834
10842SOL    HW135064   1.763   6.888   6.223  1.2369 -1.5051  2.9505
10842SOL    HW235065   1.789   7.011   6.307 -0.6357 -0.7562  2.4678
10843SOL     OW35066   7.948   1.464   3.065  0.1075  0.2217 -0.0906
10843SOL    HW135067   7.961   1.557   3.084 -3.2480  0.9577 -0.9607
10843SOL    HW235068   8.015   1.443   3.000  1.7688  1.6731  1.1269
10844SOL     OW35069   3.542   2.852   1.105  0.6876 -0.1050  0.2228
10844SOL    HW135070   3.503   2.910   1.040 -2.9124 -1.7994  0.6984
10844SOL    HW235071   3.486   2.862   1.182  1.9918 -1.7216  1.4091
10845SOL     OW35072   7.477   8.799   8.345 -0.1890 -0.3011  0.2271
10845SOL    HW135073   7.559   8.750   8.335 -0.3627 -1.1330  2.5922
10845SOL    HW235074   7.429   8.751   8.412 -1.7716  1.2927  0.2497
10846SOL     OW35075   0.381   8.029   1.484  0.6779 -0.5118  0.1503
10846SOL    HW135076   0.452   8.071   1.532  1.6683 -1.7931 -0.1519
10846SOL    HW235077   0.393   8.059   1.394 -1.6006  2.4495  0.7640
10847SOL     OW35078   2.304   4.616   3.377  0.4174  0.4689 -0.0128
10847SOL    HW135079   2.346   4.679   3.436  0.1704 -1.5508  2.4268
10847SOL    HW235080   2.302   4.660   3.292  2.8834  2.5986  0.9473
10848SOL     OW35081   9.538   6.252   8.213 -0.0458  0.1467 -0.1778
10848SOL    HW135082   9.594   6.324   8.242 -1.1076  0.7666  0.3619
10848SOL    HW235083   9.555   6.182   8.275 -0.7894  0.7676  0.7422
10849SOL     OW35084   4.231   0.455   5.844  0.0267 -0.8556  0.2652
10849SOL    HW135085   4.260   0.492   5.928 -2.1838  1.1016  0.2351
10849SOL    HW235086   4.256   0.520   5.779 -0.8285 -1.0140 -0.2341
10850SOL     OW35087   6.720   5.352   5.364 -0.5761 -0.3916  0.7211
10850SOL    HW135088   6.709   5.403   5.445  0.9912 -0.0844  0.7726
10850SOL    HW235089   6.808   5.315   5.372  0.6982  1.8903 -2.0645
10851SOL     OW35090   2.071   1.129   6.276  0.4268 -0.2872  0.3827
10851SOL    HW135091   2.128   1.170   6.341  0.9252  0.1466 -0.3242
10851SOL    HW235092   2.128   1.070   6.228  0.0473 -0.6498  0.3787
10852SOL     OW35093   9.706   9.500   0.903  0.5834 -0.0801 -0.3880
10852SOL    HW135094   9.641   9.533   0.841 -0.6352 -0.2603  0.7618
10852SOL    HW235095   9.654   9.459   0.972  1.8820  0.9454  1.2161
10853SOL     OW35096   5.746   7.678   7.614 -0.5631  0.2205  0.3981
10853SOL    HW135097   5.688   7.603   7.605 -0.4691 -0.1397  2.5693
10853SOL    HW235098   5.834   7.641   7.613 -0.4054  0.6184 -1.4631
10854SOL     OW35099   3.349   2.824   5.145  0.0529  0.1623  0.5888
10854SOL    HW135100   3.370   2.901   5.198 -0.3353  1.0642 -0.5651
10854SOL    HW235101   3.254   2.824   5.138 -0.0565 -1.2209  1.7466
10855SOL     OW35102   1.461   7.402   2.517 -0.0516 -0.0915 -0.4854
10855SOL    HW135103   1.449   7.497   2.518 -0.6216 -0.1598  1.1122
10855SOL    HW235104   1.526   7.386   2.449  1.4439  1.6143  0.5069
10856SOL     OW35105   4.664   6.859   8.943 -0.0301  0.1319 -0.2426
10856SOL    HW135106   4.700   6.859   8.855  0.4350  1.3367 -0.0664
10856SOL    HW235107   4.736   6.831   9.000 -0.2315 -0.3152 -0.2017
10857SOL     OW35108   4.424   0.196   0.794 -0.6710 -0.0895  0.2957
10857SOL    HW135109   4.463   0.180   0.879 -0.6192 -1.3265  0.0599
10857SOL    HW235110   4.348   0.137   0.791 -0.4555 -0.3368 -0.6442
10858SOL     OW35111   6.590   9.056   1.934 -0.7005  0.5205  0.0362
10858SOL    HW135112   6.571   9.135   1.984 -1.7727  0.7879 -0.7753
10858SOL    HW235113   6.630   9.089   1.853  0.4125  0.1294  0.4236
10859SOL     OW35114   4.446   7.630   6.998 -0.1754  0.5268  0.2854
10859SOL    HW135115   4.402   7.548   7.020 -2.1097  1.3266 -0.4884
10859SOL    HW235116   4.377   7.696   7.005  1.0693  1.9098 -0.3293
10860SOL     OW35117   7.955   0.227   3.249 -0.3520 -0.7144 -0.2242
10860SOL    HW135118   7.965   0.252   3.157 -4.5999 -1.3067 -0.9648
10860SOL    HW235119   7.985   0.136   3.253 -0.0460 -0.6495 -0.9951
10861SOL     OW35120   5.404   5.695   7.628 -0.4647  0.5936  0.5041
10861SOL    HW135121   5.479   5.700   7.686 -0.1529 -1.0479  0.2552
10861SOL    HW235122   5.397   5.783   7.590  0.1983  1.2629  1.9102
10862SOL     OW35123   9.110   6.227   1.255  0.5766 -0.0840 -0.3329
10862SOL    HW135124   9.156   6.275   1.324 -0.3253  0.3475 -0.0266
10862SOL    HW235125   9.079   6.148   1.299 -2.6782  1.6294  0.5803
10863SOL     OW35126   3.322   8.388   1.824  0.1940 -0.9263 -0.5638
10863SOL    HW135127   3.307   8.444   1.900  0.7328 -2.1281  0.4394
10863SOL    HW235128   3.301   8.444   1.749 -0.1875  0.3208  0.4508
10864SOL     OW35129   7.204   2.253   4.343  0.2777  0.1551  0.1756
10864SOL    HW135130   7.174   2.288   4.260  0.1442  0.2191  0.2525
10864SOL    HW235131   7.136   2.192   4.370  0.1709  0.3712  0.3954
10865SOL     OW35132   4.936   0.010   3.788  0.2889  0.3550  0.6711
10865SOL    HW135133   4.898  -0.012   3.702  2.1157  0.0682 -0.0892
10865SOL    HW235134   4.928   0.105   3.794  3.2844  0.8145 -1.3981
10866SOL     OW35135   1.663   7.692   3.950  0.4809 -0.1647  0.0275
10866SOL    HW135136   1.631   7.610   3.988 -0.7614  0.3429  0.0758
10866SOL    HW235137   1.685   7.746   4.026  0.3783 -0.0889  0.0030
10867SOL     OW35138   5.095   2.733   5.540 -0.5487  0.2101 -0.0143
10867SOL    HW135139   5.048   2.674   5.599 -0.6965  1.7299  1.4288
10867SOL    HW235140   5.187   2.710   5.553 -0.6952 -0.7342 -0.6046
10868SOL     OW35141   1.556   6.505   2.277  0.6699 -0.3885  0.1374
10868SOL    HW135142   1.498   6.478   2.349  1.0013 -0.5087  0.3588
10868SOL    HW235143   1.513   6.582   2.239 -0.6947 -1.6422 -0.9709
10869SOL     OW35144   3.693   9.878   5.788  0.5321  0.7384  0.5610
10869SOL    HW135145   3.711   9.830   5.869 -0.5951 -0.4028  0.1547
10869SOL    HW235146   3.776   9.874   5.739  0.2994 -1.3187  0.2846
10870SOL     OW35147   1.924   5.735   7.125  0.2740  0.4504 -0.7059
10870SOL    HW135148   1.987   5.664   7.119  1.0618  1.1115 -0.3392
10870SOL    HW235149   1.889   5.729   7.213 -0.1896  0.0794 -0.9114
10871SOL     OW35150   5.755   9.751   7.464  0.1597  0.1039  0.1021
10871SOL    HW135151   5.822   9.723   7.527  1.5058 -0.1292 -1.4145
10871SOL    HW235152   5.705   9.818   7.512  1.3015  0.0969  1.3449
10872SOL     OW35153   5.524   3.656   7.535 -0.0383  0.3038 -0.2123
10872SOL    HW135154   5.579   3.716   7.484  0.5044 -1.6570 -2.0274
10872SOL    HW235155   5.457   3.627   7.472 -0.1382 -1.1675  0.5618
10873SOL     OW35156   8.359   2.050   0.276 -0.1713 -0.2923  0.1984
10873SOL    HW135157   8.406   1.967   0.271  1.3408  0.4752  1.1636
10873SOL    HW235158   8.373   2.080   0.366 -0.4690  1.1182 -0.2097
10874SOL     OW35159   8.271   4.078   2.210 -0.0126  0.3775  0.0096
10874SOL    HW135160   8.274   4.037   2.123  1.0328  1.4567 -0.4798
10874SOL    HW235161   8.220   4.158   2.196 -4.4404 -2.0453  1.5421
10875SOL     OW35162   7.982   5.382   6.080 -0.0170 -0.1616  0.5842
10875SOL    HW135163   8.044   5.451   6.104  0.8049 -0.0446 -1.7477
10875SOL    HW235164   8.037   5.308   6.055 -0.8655 -0.9176  0.9209
10876SOL     OW35165   4.394   1.899   6.820  0.2933  0.0601 -0.2902
10876SOL    HW135166   4.445   1.868   6.895 -1.0551  0.3340  0.7538
10876SOL    HW235167   4.359   1.820   6.779  2.4996 -0.2206 -1.7276
10877SOL     OW35168   4.530   3.969   2.952 -0.1805 -0.3286  0.2282
10877SOL    HW135169   4.477   4.022   2.892 -0.7554 -1.1200  0.0314
10877SOL    HW235170   4.596   3.929   2.896 -2.1603 -2.9540 -0.3070
10878SOL     OW35171   2.857   9.061   3.447  0.4449 -0.0834 -0.4179
10878SOL    HW135172   2.769   9.080   3.415 -0.2629 -1.2527  0.7646
10878SOL    HW235173   2.894   9.002   3.382  0.1356 -0.0506 -0.6246
10879SOL     OW35174   9.656   7.065   4.259 -0.0420 -0.1515  0.2524
10879SOL    HW135175   9.608   7.118   4.195 -2.0863 -2.5841 -0.3409
10879SOL    HW235176   9.588   7.026   4.314  1.3167 -2.4781  0.3675
10880SOL     OW35177   1.547   8.362   7.946 -0.2434  0.4012  0.0813
10880SOL    HW135178   1.617   8.299   7.965  0.7762  1.5214  0.1004
10880SOL    HW235179   1.541   8.415   8.025 -0.8630  0.5652 -0.0734
10881SOL     OW35180   6.166   9.461   4.409 -0.2406 -0.9184 -0.3749
10881SOL    HW135181   6.254   9.491   4.387 -0.2365 -0.3071  0.4346
10881SOL    HW235182   6.180   9.378   4.454 -0.0365 -0.5409  0.2654
10882SOL     OW35183   1.131   6.468   0.218 -0.2197 -0.2072 -0.1112
10882SOL    HW135184   1.153   6.417   0.296 -0.3148 -0.1319 -0.0333
10882SOL    HW235185   1.036   6.459   0.210 -0.3517  0.6851  0.4207
10883SOL     OW35186   9.022   2.595   8.721  0.3842 -0.8670  0.3076
10883SOL    HW135187   8.976   2.544   8.787  0.9136 -1.2042  0.4222
10883SOL    HW235188   9.035   2.681   8.761 -0.5539 -0.6197  0.0959
10884SOL     OW35189   1.691   7.887   2.888  0.4109 -0.2023  0.6307
10884SOL    HW135190   1.688   7.886   2.792  1.5605 -1.6053  0.5828
10884SOL    HW235191   1.654   7.802   2.914 -3.1019  1.5487  1.5870
10885SOL     OW35192   9.944   6.546   1.508  0.1622  0.4183 -0.5607
10885SOL    HW135193  10.004   6.562   1.435 -1.2478  0.9681 -1.6208
10885SOL    HW235194   9.913   6.633   1.533 -0.5300  0.1097 -0.3228
10886SOL     OW35195   5.716   9.999   4.064  0.3316  0.2224 -0.3640
10886SOL    HW135196   5.729  10.071   4.126 -1.0316  1.8280 -1.8779
10886SOL    HW235197   5.627   9.969   4.079  0.2540  0.1057 -1.0068
10887SOL     OW35198   4.488   8.265   9.556  0.3311 -0.6185  0.0119
10887SOL    HW135199   4.568   8.301   9.594 -0.6525  0.1472  1.3892
10887SOL    HW235200   4.446   8.339   9.513  0.2226 -0.9680 -0.4958
10888SOL     OW35201   8.527   3.622   6.427 -0.6058 -0.3055  0.7566
10888SOL    HW135202   8.496   3.575   6.504  1.4316  0.2711  1.9638
10888SOL    HW235203   8.514   3.715   6.448  0.4147 -0.1235  0.6241
10889SOL     OW35204   0.501  10.016   7.187 -0.3037  0.4965  0.4179
10889SOL    HW135205   0.500  10.079   7.115 -2.2046  0.8488  0.7119
10889SOL    HW235206   0.468  10.066   7.262 -0.7343 -0.5508  0.9295
10890SOL     OW35207   2.775   2.938   7.632  0.3951  0.1593 -0.6820
10890SOL    HW135208   2.724   2.930   7.712 -0.1348 -1.4427 -1.1609
10890SOL    HW235209   2.804   3.029   7.631 -1.7174  0.8672  0.0480
10891SOL     OW35210   2.371   5.672   8.461 -0.3805 -0.2897  0.3979
10891SOL    HW135211   2.335   5.602   8.407  0.7568  0.2906 -1.1277
10891SOL    HW235212   2.460   5.685   8.428  0.5705 -0.3544  2.8247
10892SOL     OW35213   4.294   7.850   7.984  0.0609 -0.5249  0.2772
10892SOL    HW135214   4.390   7.848   7.994 -0.0848 -0.9694  1.6426
10892SOL    HW235215   4.265   7.764   8.013 -0.9130  0.2046  1.5020
10893SOL     OW35216   9.669   5.178   8.457 -0.5557  0.0665  0.1275
10893SOL    HW135217   9.578   5.149   8.464 -0.2784 -1.3592 -1.6514
10893SOL    HW235218   9.720   5.097   8.462  0.6035  0.8360  0.8407
10894SOL     OW35219   5.303   9.100   8.471  0.1383 -0.5388 -0.2353
10894SOL    HW135220   5.221   9.118   8.518  0.0978 -2.1477  0.3284
10894SOL    HW235221   5.295   9.150   8.390 -1.1802 -0.2732  0.0420
10895SOL     OW35222   1.059   1.922   3.234 -0.7082  0.0660 -0.2226
10895SOL    HW135223   0.988   1.961   3.183  0.8722  2.5298 -0.6368
10895SOL    HW235224   1.065   1.976   3.313  0.1761 -0.6117  0.1926
10896SOL     OW35225   9.458   8.824   8.581 -0.2058 -0.1323  0.2102
10896SOL    HW135226   9.430   8.756   8.643 -2.0948  1.2653  0.9133
10896SOL    HW235227   9.406   8.808   8.503  1.3037 -1.1345 -0.6257
10897SOL     OW35228   5.821   0.518   8.273 -0.1400  0.1221 -0.0551
10897SOL    HW135229   5.893   0.552   8.220 -2.4230  0.1216 -3.2947
10897SOL    HW235230   5.790   0.593   8.323 -0.5592  1.1671 -1.8314
10898SOL     OW35231   5.637   2.069   9.382  1.2196  0.3870 -0.4221
10898SOL    HW135232   5.645   2.159   9.413  1.9790  0.4028 -0.6555
10898SOL    HW235233   5.704   2.020   9.430 -0.6151 -0.5004  1.3033
10899SOL     OW35234   3.355   5.296   3.560 -0.0528 -0.5149 -0.1130
10899SOL    HW135235   3.356   5.269   3.469 -0.7399 -0.0859 -0.2546
10899SOL    HW235236   3.308   5.380   3.560  1.1133  0.1488  0.4493
10900SOL     OW35237   8.480   1.095   4.534 -0.2881 -0.1411 -0.5420
10900SOL    HW135238   8.457   1.008   4.502  1.2266 -1.1326  0.9845
10900SOL    HW235239   8.555   1.121   4.481  0.0469 -0.3110 -0.1556
10901SOL     OW35240   6.952   4.222   7.468 -0.1454 -0.6664 -0.0558
10901SOL    HW135241   7.012   4.148   7.481 -2.3341 -2.2620  1.2340
10901SOL    HW235242   6.904   4.201   7.388 -0.4242 -0.4048  0.0414
10902SOL     OW35243   8.939   9.149   0.172  0.1973 -0.9186  0.0559
10902SOL    HW135244   8.870   9.212   0.149 -0.7204 -2.4464 -1.5046
10902SOL    HW235245   8.970   9.116   0.087  1.4060 -1.8079  0.8239
10903SOL     OW35246   1.173   3.351   1.547  0.1276 -0.2164 -0.8913
10903SOL    HW135247   1.167   3.387   1.458  0.4255 -0.4678 -1.0173
10903SOL    HW235248   1.085   3.318   1.566  0.3562 -1.2899 -1.5896
10904SOL     OW35249   7.440   0.957   5.657  0.5634  0.5835  0.1623
10904SOL    HW135250   7.471   1.048   5.656 -0.6886  1.0113 -0.7529
10904SOL    HW235251   7.513   0.907   5.696  1.3267  1.9436  0.5061
10905SOL     OW35252   2.011   9.138   4.880 -0.0101  0.5486 -0.1302
10905SOL    HW135253   2.087   9.191   4.859 -0.6478  1.3903 -0.3214
10905SOL    HW235254   2.045   9.067   4.935  0.6038  1.9772  1.3468
10906SOL     OW35255   2.907   0.435   7.420 -0.2056  0.0517  0.4485
10906SOL    HW135256   2.989   0.435   7.371 -0.3446 -0.5896  0.2063
10906SOL    HW235257   2.895   0.344   7.446 -1.7521 -0.2211 -1.0808
10907SOL     OW35258   3.203   2.976   5.740  0.2570 -0.1868  0.1005
10907SOL    HW135259   3.234   3.061   5.708 -0.6658  0.2387  0.3366
10907SOL    HW235260   3.228   2.914   5.671  0.8307  0.2842 -0.1245
10908SOL     OW35261   0.568   4.959   4.113  0.0465  0.4794 -0.7170
10908SOL    HW135262   0.551   5.045   4.076  2.0494  0.9017 -0.6837
10908SOL    HW235263   0.514   4.899   4.061 -1.2294  1.7250 -0.8384
10909SOL     OW35264   7.714   0.168   4.097  0.4426 -0.3439  0.2700
10909SOL    HW135265   7.635   0.222   4.099  0.8450  0.2135  1.4598
10909SOL    HW235266   7.744   0.174   4.006 -1.7316 -1.8387 -0.5845
10910SOL     OW35267   7.298   4.314   2.516  0.2859  0.5718 -0.5992
10910SOL    HW135268   7.313   4.328   2.610  0.6929 -0.4255 -0.5060
10910SOL    HW235269   7.203   4.305   2.507  0.4739 -4.0788  0.4514
10911SOL     OW35270   1.130   1.937   9.778  0.2522 -0.2150  0.2223
10911SOL    HW135271   1.101   1.926   9.868  1.2104  1.0124  0.6958
10911SOL    HW235272   1.146   1.849   9.746  1.4475 -0.5740  1.7631
10912SOL     OW35273   2.160   0.416   8.248  0.5577 -0.1944 -0.0590
10912SOL    HW135274   2.244   0.445   8.213  0.5758 -0.5400 -0.2944
10912SOL    HW235275   2.175   0.411   8.343 -0.4812  4.1681  0.4731
10913SOL     OW35276   2.265   8.794   3.338 -0.0448 -0.3990  0.5398
10913SOL    HW135277   2.347   8.751   3.312 -0.3654 -1.4299  1.2224
10913SOL    HW235278   2.277   8.812   3.432 -0.7450 -0.8584  0.7128
10914SOL     OW35279   1.034   4.234   6.572  0.3064 -0.2359  0.0302
10914SOL    HW135280   1.114   4.185   6.590  0.7302  0.4560  0.0455
10914SOL    HW235281   1.010   4.209   6.482  0.1258 -1.0100  0.2950
10915SOL     OW35282   2.006   0.614   7.873  0.1277  0.0664  0.3195
10915SOL    HW135283   2.093   0.655   7.866  0.8244 -1.6000 -1.1007
10915SOL    HW235284   1.948   0.674   7.825  0.4601  1.2601  1.3907
10916SOL     OW35285   0.132   0.920   5.525 -0.2862 -0.4529  0.1064
10916SOL    HW135286   0.194   0.992   5.513 -1.3588  0.8334  2.0886
10916SOL    HW235287   0.187   0.842   5.524  0.8388  0.3020 -2.5337
10917SOL     OW35288   2.488   3.109   0.345 -0.3391 -0.6339  0.0690
10917SOL    HW135289   2.486   3.152   0.260  0.6885 -0.7702 -0.0264
10917SOL    HW235290   2.515   3.178   0.406  1.6687 -1.2057 -0.1371
10918SOL     OW35291   3.813   7.388   6.007  0.5621  0.8425  0.0731
10918SOL    HW135292   3.790   7.324   6.074 -0.3861  1.1520  0.0636
10918SOL    HW235293   3.769   7.469   6.035  1.0131  1.2455 -0.3730
10919SOL     OW35294   2.156   4.883   9.017  0.0968 -0.4638  0.3982
10919SOL    HW135295   2.158   4.978   9.005 -1.5406 -0.7056 -2.0387
10919SOL    HW235296   2.079   4.868   9.073 -0.1217 -0.4314  0.1052
10920SOL     OW35297   4.221   9.183   7.245  0.5238 -0.2813 -0.1225
10920SOL    HW135298   4.179   9.109   7.288  0.8513 -0.8083 -0.7130
10920SOL    HW235299   4.178   9.190   7.160 -0.9625  1.5137  0.7375
10921SOL     OW35300   1.298   4.350   5.349  0.1285 -0.7826  0.0380
10921SOL    HW135301   1.298   4.287   5.277 -0.8701  0.0564 -0.7150
10921SOL    HW235302   1.292   4.435   5.306  1.6868 -0.1461  1.0319
10922SOL     OW35303   8.577   5.748   4.761  0.0110 -0.4412 -0.1542
10922SOL    HW135304   8.508   5.718   4.821  1.1184  0.2668  1.5084
10922SOL    HW235305   8.631   5.671   4.746 -0.8856 -0.8960 -1.1404
10923SOL     OW35306   6.825   3.555   4.984 -0.0805 -0.2043  0.2996
10923SOL    HW135307   6.734   3.557   5.014  0.1232 -1.1796  1.0201
10923SOL    HW235308   6.864   3.634   5.022 -0.5598  0.0773  0.2098
10924SOL     OW35309   1.382   6.191   1.318 -0.1404 -0.2798  0.3506
10924SOL    HW135310   1.299   6.226   1.350 -0.2839  0.4923 -0.8170
10924SOL    HW235311   1.364   6.162   1.228  0.8256 -0.1374  0.0949
10925SOL     OW35312   9.943   1.684   8.926 -0.6106 -0.3802  0.6671
10925SOL    HW135313   9.873   1.625   8.900  0.9608 -2.9511  2.0702
10925SOL    HW235314   9.908   1.730   9.002 -1.7701  0.3768 -0.3089
10926SOL     OW35315   6.700   5.272   5.067 -0.1986 -0.2188  0.1536
10926SOL    HW135316   6.706   5.248   5.159  0.1428 -0.7537 -0.0071
10926SOL    HW235317   6.660   5.196   5.025 -1.2457  0.4051  0.0153
10927SOL     OW35318   3.995   6.159   5.997 -0.2409 -0.8293  0.2402
10927SOL    HW135319   3.913   6.158   5.948 -0.1644 -0.2913  0.0924
10927SOL    HW235320   4.026   6.250   5.990 -0.0063 -0.8518  0.9110
10928SOL     OW35321   2.512   6.780   0.452  0.1420  0.1674 -0.2166
10928SOL    HW135322   2.581   6.840   0.481 -0.5779 -0.0642  2.0698
10928SOL    HW235323   2.546   6.693   0.474 -1.5740  0.1422  2.5590
10929SOL     OW35324   4.696   1.197   9.503  0.0888  0.5511  0.2642
10929SOL    HW135325   4.656   1.274   9.465  0.0115  0.1527 -0.4722
10929SOL    HW235326   4.641   1.174   9.578 -2.1352 -1.0801 -1.8187
10930SOL     OW35327   8.272   2.402   5.094  0.0226  0.4184 -0.4067
10930SOL    HW135328   8.313   2.316   5.082 -0.9164 -0.4079  2.0626
10930SOL    HW235329   8.343   2.458   5.125  0.2904  0.1313 -0.4946
10931SOL     OW35330   9.815   8.208   2.032  0.7570  0.4756 -0.3443
10931SOL    HW135331   9.735   8.260   2.027  0.5723  0.1998 -0.2926
10931SOL    HW235332   9.884   8.271   2.051  0.3027  0.5058  1.2377
10932SOL     OW35333   4.501   8.020   7.018 -0.3600 -0.3806  0.4778
10932SOL    HW135334   4.517   7.954   6.950  0.8722 -1.2463  1.5869
10932SOL    HW235335   4.564   8.089   6.999 -1.4972  0.3880 -0.5483
10933SOL     OW35336   8.038   5.724   8.032 -0.4674 -0.0717 -0.4700
10933SOL    HW135337   8.042   5.667   8.108 -2.5329 -2.0691 -1.7906
10933SOL    HW235338   7.978   5.794   8.057  0.8625  0.6812  0.6209
10934SOL     OW35339   9.456   4.452   0.242 -0.6048 -0.0235 -0.5130
10934SOL    HW135340   9.387   4.479   0.303 -1.4620 -0.3699 -1.3184
10934SOL    HW235341   9.485   4.534   0.202  0.0795  0.2288  0.4543
10935SOL     OW35342   6.796   2.842   9.019  0.5933 -0.1490 -0.0473
10935SOL    HW135343   6.760   2.899   9.087  0.8242  1.8677 -1.5295
10935SOL    HW235344   6.737   2.855   8.944  0.2944 -2.3742 -0.2393
10936SOL     OW35345   6.053   6.292   8.962  0.7981  0.1838  0.6749
10936SOL    HW135346   6.129   6.240   8.935 -0.0094 -1.1856  0.9582
10936SOL    HW235347   6.073   6.381   8.933  1.0910 -0.7575 -2.1406
10937SOL     OW35348   6.568   8.911   1.370 -0.4648  0.3692 -0.2440
10937SOL    HW135349   6.577   8.875   1.459 -1.2722  0.3274 -0.1750
10937SOL    HW235350   6.595   9.002   1.378  2.4946 -0.4194 -0.6028
10938SOL     OW35351   7.404   7.948   3.372 -0.0134 -0.4668 -0.3220
10938SOL    HW135352   7.434   7.905   3.452 -0.7952 -0.9808 -0.2977
10938SOL    HW235353   7.464   8.021   3.360  0.6619 -0.9173  0.2431
10939SOL     OW35354   2.707   1.511   5.352 -0.5302  0.3822  0.3155
10939SOL    HW135355   2.675   1.527   5.263  1.4077 -0.4682 -0.5528
10939SOL    HW235356   2.693   1.417   5.365 -1.0713  0.5595  1.0190
10940SOL     OW35357   2.508   5.889   4.121 -0.2551 -0.4587  0.0106
10940SOL    HW135358   2.585   5.834   4.141  0.5264  0.6522  0.0882
10940SOL    HW235359   2.438   5.826   4.104 -0.1711 -1.4927  3.1953
10941SOL     OW35360   3.851   1.947   3.716  0.1741  0.4670 -0.5175
10941SOL    HW135361   3.758   1.938   3.697  0.0491 -1.0820  0.7713
10941SOL    HW235362   3.864   2.041   3.726 -0.7550  0.9211 -3.1024
10942SOL     OW35363   9.675   4.629   2.053 -0.1213 -0.0622 -0.2265
10942SOL    HW135364   9.680   4.591   2.140  1.3347 -0.4403 -0.4466
10942SOL    HW235365   9.649   4.557   1.996  1.0984 -0.3597 -0.4169
10943SOL     OW35366   2.072   1.201   7.236  0.4011  0.4104  0.5977
10943SOL    HW135367   2.038   1.277   7.189 -0.2005  1.1547  2.1843
10943SOL    HW235368   2.134   1.161   7.175 -0.8734  0.9253 -1.0724
10944SOL     OW35369   0.232   6.540   7.591  0.4070 -0.4789  0.8848
10944SOL    HW135370   0.278   6.474   7.539  3.3692  1.2220  1.1964
10944SOL    HW235371   0.255   6.518   7.682  0.1334  0.0338  1.0794
10945SOL     OW35372   9.436   1.824   1.221 -0.3166 -0.1810 -0.1262
10945SOL    HW135373   9.395   1.754   1.271 -1.3000 -1.0922 -2.1200
10945SOL    HW235374   9.468   1.886   1.286 -1.3639 -1.4269  1.5940
10946SOL     OW35375   0.670   1.438   1.927 -0.1164 -0.4992  0.0058
10946SOL    HW135376   0.736   1.389   1.977  0.5913  0.5364  0.1073
10946SOL    HW235377   0.720   1.482   1.858 -1.1615 -2.3651 -2.0049
10947SOL     OW35378   4.918   5.393   8.037 -0.2982 -0.3717 -0.0071
10947SOL    HW135379   4.963   5.312   8.059 -0.7590 -0.4321  0.7214
10947SOL    HW235380   4.909   5.390   7.942  0.6225 -0.6782 -0.0926
10948SOL     OW35381   5.058   3.660   6.104  0.1091 -0.3327 -0.1882
10948SOL    HW135382   5.133   3.715   6.127 -1.0970 -0.5780  4.7123
10948SOL    HW235383   4.981   3.714   6.123 -1.0394 -2.4547  1.3741
10949SOL     OW35384   1.282   3.262   4.515  0.0792 -0.0751 -0.3387
10949SOL    HW135385   1.298   3.355   4.501 -0.5096  0.0621 -0.1132
10949SOL    HW235386   1.217   3.259   4.586  1.0221 -0.6815  0.5116
10950SOL     OW35387   3.104   3.881   8.417  0.0787  0.3547  0.2024
10950SOL    HW135388   3.119   3.807   8.476 -0.0869 -0.6831 -1.0469
10950SOL    HW235389   3.108   3.958   8.474 -0.6115 -0.6637  1.6652
10951SOL     OW35390   9.246   4.586   4.301  0.0297 -0.1647 -0.2197
10951SOL    HW135391   9.262   4.495   4.325  0.6459 -0.7735 -2.7697
10951SOL    HW235392   9.168   4.584   4.246  0.2035  0.7995 -0.5281
10952SOL     OW35393   5.848   0.656   1.709  0.2685 -0.0776  0.1867
10952SOL    HW135394   5.836   0.751   1.714 -1.2082 -0.3028  1.1158
10952SOL    HW235395   5.788   0.628   1.640 -2.6073 -0.8659  2.9285
10953SOL     OW35396   0.830   1.496   1.507 -0.5717  0.2078  0.0100
10953SOL    HW135397   0.791   1.433   1.567  0.7807  0.8597  1.6140
10953SOL    HW235398   0.823   1.580   1.552  1.9655  0.4519  0.0490
10954SOL     OW35399   2.202   5.590   0.635 -0.3168  0.3963 -0.4066
10954SOL    HW135400   2.278   5.550   0.592 -1.4847 -1.9167 -0.3820
10954SOL    HW235401   2.130   5.576   0.573 -1.3428 -0.0825  0.8885
10955SOL     OW35402   4.645   5.682   3.204  0.2786 -0.2178  0.0347
10955SOL    HW135403   4.594   5.602   3.215 -0.6273 -0.2103 -3.4961
10955SOL    HW235404   4.589   5.739   3.151  2.9087  0.7633 -1.8057
10956SOL     OW35405   2.986   4.636   1.282  0.3837 -0.3314  0.1583
10956SOL    HW135406   2.935   4.688   1.220  0.8332 -0.6593 -0.4960
10956SOL    HW235407   3.061   4.691   1.305 -0.7436  0.5392  1.8677
10957SOL     OW35408   1.199   7.291   7.614  0.0562  0.4675 -0.1784
10957SOL    HW135409   1.220   7.361   7.676  1.4652  0.0073 -0.1194
10957SOL    HW235410   1.246   7.214   7.647 -1.3600 -0.4910 -0.3184
10958SOL     OW35411   8.605   6.163   5.125 -0.2727 -0.0501  0.6292
10958SOL    HW135412   8.641   6.198   5.044 -0.2473  1.0448  1.1100
10958SOL    HW235413   8.611   6.068   5.115 -1.0350  0.0580 -0.9953
10959SOL     OW35414   5.617   3.282   7.181 -0.2823 -0.3999 -0.2419
10959SOL    HW135415   5.537   3.300   7.229 -1.2369 -0.3662 -1.8213
10959SOL    HW235416   5.639   3.364   7.138  0.8776 -0.2717  0.5707
10960SOL     OW35417   5.401   5.696   8.316 -0.6434  0.2443  0.2177
10960SOL    HW135418   5.313   5.708   8.281 -0.1724  0.7508 -0.8109
10960SOL    HW235419   5.418   5.602   8.306  0.1943  0.6633 -2.6683
10961SOL     OW35420   9.685   1.218   6.080 -0.0685 -0.2095  0.0980
10961SOL    HW135421   9.720   1.302   6.050 -0.7251 -0.0590 -0.2657
10961SOL    HW235422   9.637   1.239   6.160  1.3539 -0.5486  1.0501
10962SOL     OW35423  10.133   4.055   0.747 -0.4049  0.3328  0.1960
10962SOL    HW135424  10.160   3.964   0.738 -1.1440  0.2773 -1.8748
10962SOL    HW235425  10.190   4.103   0.686 -0.3471  1.1724  0.9059
10963SOL     OW35426   6.258   1.850   5.875 -0.1542  0.1285 -1.0491
10963SOL    HW135427   6.192   1.819   5.937  0.3840 -0.3042 -0.6947
10963SOL    HW235428   6.263   1.781   5.809  1.4066 -0.7968  0.0033
10964SOL     OW35429   6.954   9.502   7.998  0.9646 -0.3572 -0.3599
10964SOL    HW135430   6.919   9.468   8.080  0.2046 -1.5247 -1.1486
10964SOL    HW235431   6.967   9.595   8.014  1.8198 -0.7603  1.4257
10965SOL     OW35432   5.139  10.160   6.807  0.7253 -0.4829 -0.4458
10965SOL    HW135433   5.229  10.136   6.783  0.2975  0.3639 -2.9782
10965SOL    HW235434   5.094  10.170   6.724 -1.5973 -0.3399  0.8053
10966SOL     OW35435   1.847   2.315   0.858  0.1578  0.6684  0.7269
10966SOL    HW135436   1.822   2.231   0.897  2.9692 -0.8293 -0.5656
10966SOL    HW235437   1.894   2.360   0.928 -0.2673  0.6626  1.0240
10967SOL     OW35438   4.138   1.909   3.305  0.6016 -0.2834  0.5208
10967SOL    HW135439   4.066   1.971   3.317  0.0330 -0.5702 -1.2838
10967SOL    HW235440   4.145   1.864   3.389 -0.9778  0.1086  0.8838
10968SOL     OW35441   5.591   7.690   3.854  0.4666  0.1555  0.0755
10968SOL    HW135442   5.609   7.757   3.787 -0.0496  0.5797  0.3615
10968SOL    HW235443   5.616   7.608   3.812 -1.4192  0.2340 -1.2329
10969SOL     OW35444   5.100   3.158   2.646 -0.5600 -0.5798  0.2336
10969SOL    HW135445   5.069   3.071   2.622 -2.5840 -0.2005  1.4187
10969SOL    HW235446   5.090   3.210   2.566 -2.2684 -0.6636  0.3744
10970SOL     OW35447   8.433   0.523   0.831  0.6223  0.0036 -0.1209
10970SOL    HW135448   8.475   0.595   0.878  2.2164 -1.2015  0.3589
10970SOL    HW235449   8.372   0.486   0.895  2.2961 -1.2061  0.8140
10971SOL     OW35450   0.815   9.931   9.798  0.5033  0.6462 -0.1019
10971SOL    HW135451   0.904   9.912   9.828 -0.0609  0.1063  1.2614
10971SOL    HW235452   0.793  10.015   9.838  0.3631  0.7323 -0.3575
10972SOL     OW35453   4.944   0.872   3.051  0.7143  0.1679  0.2937
10972SOL    HW135454   5.035   0.904   3.049  0.8352 -0.2187 -2.0067
10972SOL    HW235455   4.928   0.842   2.962 -1.8452  0.6534  0.5656
10973SOL     OW35456   0.166   8.279   7.294  0.4311 -0.1125  0.0953
10973SOL    HW135457   0.131   8.240   7.374  1.3658 -0.4027  0.3717
10973SOL    HW235458   0.210   8.359   7.323 -0.4764  0.5501 -0.3204
10974SOL     OW35459   5.384   6.946   9.642  0.0654  0.5436  0.1097
10974SOL    HW135460   5.414   7.027   9.684 -0.1799  0.2877  0.8015
10974SOL    HW235461   5.446   6.879   9.674 -0.4490  0.2484  0.5011
10975SOL     OW35462   2.333   7.005   5.592  0.2250 -0.0960  0.1611
10975SOL    HW135463   2.351   6.912   5.578  0.2077 -0.0011 -0.5235
10975SOL    HW235464   2.255   7.007   5.647 -0.0967 -0.4875 -0.2792
10976SOL     OW35465   6.895   6.988   8.509  0.1732 -0.0690  0.1207
10976SOL    HW135466   6.808   6.994   8.549 -0.2642 -0.2909 -0.7869
10976SOL    HW235467   6.953   7.031   8.572 -0.5937  0.1037  0.7239
10977SOL     OW35468   3.946   6.800   1.327 -0.0105 -0.2223 -0.5226
10977SOL    HW135469   3.976   6.721   1.281 -3.6894 -2.3143  0.4787
10977SOL    HW235470   3.989   6.795   1.412  1.2137 -0.1417 -1.1179
10978SOL     OW35471   3.444   0.367   7.032 -0.3869 -0.0049  0.2279
10978SOL    HW135472   3.358   0.347   7.069  0.0976 -2.0559  0.3404
10978SOL    HW235473   3.470   0.286   6.988  0.7249  1.1630 -1.3181
10979SOL     OW35474   4.116   9.874   1.860  0.0301  0.0363 -0.3494
10979SOL    HW135475   4.069   9.800   1.898 -0.4115 -0.3354 -1.6138
10979SOL    HW235476   4.208   9.859   1.884 -0.2106 -0.2940  0.3893
10980SOL     OW35477   5.381   6.992   7.150 -0.3960 -0.0972  0.1180
10980SOL    HW135478   5.354   6.933   7.080 -1.1850  1.4739 -0.9405
10980SOL    HW235479   5.464   7.029   7.120 -1.1355  1.1850 -0.3801
10981SOL     OW35480   2.630   1.657   2.674  0.7258 -0.0266  0.2960
10981SOL    HW135481   2.670   1.721   2.733  0.2829  2.2787 -1.7873
10981SOL    HW235482   2.703   1.604   2.642  1.5605  1.4214 -0.2412
10982SOL     OW35483   1.836   2.182   8.384 -0.0768 -0.5771  0.1101
10982SOL    HW135484   1.763   2.235   8.350  0.0328  0.2897  1.1985
10982SOL    HW235485   1.907   2.245   8.397  0.0272 -0.9701  1.5194
10983SOL     OW35486   5.774   9.031   8.807  0.0607  0.2152  0.0961
10983SOL    HW135487   5.694   8.993   8.770 -0.2248  2.2644 -1.4684
10983SOL    HW235488   5.825   9.058   8.730  2.0076 -0.5470  1.0925
10984SOL     OW35489   8.365   6.203   0.662 -0.6126  0.2569  0.4966
10984SOL    HW135490   8.287   6.190   0.715 -0.4151 -1.2067  0.4417
10984SOL    HW235491   8.332   6.247   0.583 -1.0942  1.2629  1.2414
10985SOL     OW35492   4.741   7.676   8.418 -0.1485 -0.1362 -0.1241
10985SOL    HW135493   4.682   7.613   8.376  1.8882 -1.5768 -0.9310
10985SOL    HW235494   4.784   7.720   8.345  0.1332  0.5418  0.4475
10986SOL     OW35495   8.127   5.437   3.997  0.2572 -0.3543 -0.3416
10986SOL    HW135496   8.212   5.420   4.037 -0.3939 -3.1253  0.0045
10986SOL    HW235497   8.129   5.530   3.974  4.2738 -0.8552 -2.4581
10987SOL     OW35498   9.817   4.158   5.916  0.1161 -0.1392  0.0113
10987SOL    HW135499   9.841   4.154   5.823  0.1773  0.4696  0.0004
10987SOL    HW235500   9.753   4.229   5.921 -1.7395 -1.7669  0.0419
10988SOL     OW35501   2.059   4.395   6.073 -0.0112 -0.1625  0.0546
10988SOL    HW135502   2.021   4.483   6.066  1.6581  0.4342 -1.9546
10988SOL    HW235503   1.991   4.337   6.038 -0.7185  0.4277  0.4309
10989SOL     OW35504   7.772   0.009   9.805 -0.4948  0.0763 -0.5278
10989SOL    HW135505   7.802   0.067   9.736 -0.4936  1.2444  0.4385
10989SOL    HW235506   7.852  -0.028   9.842 -0.2851  1.9426  0.9700
10990SOL     OW35507   0.192   4.237   5.676  0.4442  0.8140  0.1997
10990SOL    HW135508   0.193   4.319   5.628  2.4716  1.2950  1.0209
10990SOL    HW235509   0.284   4.216   5.691 -0.0667 -1.1341  0.7973
10991SOL     OW35510   1.079   7.361   5.273 -0.0718  0.3972 -0.6116
10991SOL    HW135511   1.029   7.378   5.193  1.3971  0.9677 -1.4126
10991SOL    HW235512   1.148   7.301   5.247 -0.0399 -0.0335  0.4065
10992SOL     OW35513   0.291   0.239   6.767 -0.0204  0.2019  0.1601
10992SOL    HW135514   0.227   0.283   6.712 -0.4503 -0.6063  0.0057
10992SOL    HW235515   0.243   0.217   6.847 -0.0605 -0.8270 -0.1498
10993SOL     OW35516   0.027   4.266   3.290  0.8990  0.1525  0.3605
10993SOL    HW135517   0.088   4.258   3.362  1.4188  0.5454 -0.0347
10993SOL    HW235518  -0.026   4.342   3.311  0.9814  0.2049  0.3786
10994SOL     OW35519   7.100   2.672   2.399  0.1405  0.5571 -0.3246
10994SOL    HW135520   7.147   2.709   2.474  1.0651  1.8139 -1.4734
10994SOL    HW235521   7.111   2.738   2.330 -0.2971 -0.7721 -1.6932
10995SOL     OW35522   3.050   6.386   6.122 -0.4316  0.1880 -0.1749
10995SOL    HW135523   2.960   6.409   6.146 -0.8529 -0.3820 -1.1627
10995SOL    HW235524   3.084   6.340   6.199 -1.8066 -1.7452 -0.6735
10996SOL     OW35525   5.825   2.114   6.571 -0.2773 -0.6377 -0.2476
10996SOL    HW135526   5.734   2.142   6.576 -0.9810 -1.3907 -5.3130
10996SOL    HW235527   5.822   2.020   6.592 -0.8118 -0.7997 -1.0094
10997SOL     OW35528   1.517   6.087   7.889  0.4454 -0.3560  0.2771
10997SOL    HW135529   1.457   6.108   7.961  0.4687 -0.8411  0.4436
10997SOL    HW235530   1.459   6.071   7.814  0.4621  0.9280 -0.0199
10998SOL     OW35531   3.207   7.597   6.095 -0.0767 -0.7138 -0.1561
10998SOL    HW135532   3.112   7.593   6.106 -0.2527 -2.3301 -2.0306
10998SOL    HW235533   3.239   7.515   6.133  0.5101 -0.4875 -0.1561
10999SOL     OW35534   6.203   2.012   2.098 -0.1485  0.6094 -0.5568
10999SOL    HW135535   6.292   2.004   2.063 -0.1776  0.2177 -0.5456
10999SOL    HW235536   6.195   1.939   2.159  0.1120  1.6398  0.7271
11000SOL     OW35537  10.026   0.999   9.585  1.3057  0.0127  0.0217
11000SOL    HW135538   9.965   0.941   9.538 -2.3459  2.0353  2.1030
11000SOL    HW235539  10.040   0.955   9.669  1.4856  0.3269  0.1543
11001SOL     OW35540   6.423   6.864   6.976  0.3352  0.2542  0.1556
11001SOL    HW135541   6.465   6.947   6.953 -0.4246 -0.0494 -2.3969
11001SOL    HW235542   6.331   6.887   6.992  0.2599 -0.0076  0.0983
11002SOL     OW35543   1.114   1.989   6.116  0.3454 -0.8225  0.1295
11002SOL    HW135544   1.024   1.966   6.093 -0.9125  2.9858  0.9076
11002SOL    HW235545   1.115   1.990   6.211  0.8292  0.4940  0.1164
11003SOL     OW35546   0.421   5.966   6.594 -0.0321 -0.1123  0.5485
11003SOL    HW135547   0.502   6.015   6.582 -0.0366  0.0036  1.0071
11003SOL    HW235548   0.438   5.882   6.550 -0.0138  0.2788 -0.1985
11004SOL     OW35549   7.238   1.894   2.535  0.0369 -0.2936  0.5171
11004SOL    HW135550   7.226   1.953   2.609 -1.2818 -2.5781  2.1818
11004SOL    HW235551   7.163   1.835   2.539  0.3240 -0.9080 -2.2269
11005SOL     OW35552   0.724   4.621   9.014  0.1126  0.0147  0.4379
11005SOL    HW135553   0.791   4.608   8.947  0.0413 -0.3570  0.4353
11005SOL    HW235554   0.763   4.584   9.093 -0.6947 -1.5891  0.0960
11006SOL     OW35555   8.223   3.817   6.802  0.1871 -0.0741  0.2077
11006SOL    HW135556   8.180   3.790   6.722  1.6018 -2.7414  0.2855
11006SOL    HW235557   8.183   3.763   6.871 -0.1064  1.2618  1.1142
11007SOL     OW35558   6.102   6.820   6.929  0.4418  1.1162  0.0516
11007SOL    HW135559   6.143   6.899   6.894  1.1015  1.7115  2.0610
11007SOL    HW235560   6.012   6.847   6.951  0.8983  1.5399  1.4492
11008SOL     OW35561   8.562   7.318   8.231  0.1179  0.1314  0.2929
11008SOL    HW135562   8.547   7.250   8.166 -3.5444  0.4391  0.7211
11008SOL    HW235563   8.556   7.400   8.182  1.7057  0.2521  0.2760
11009SOL     OW35564   5.973   0.608   7.690  0.0654 -0.0491  0.4844
11009SOL    HW135565   6.054   0.632   7.736 -0.0919 -0.4596  0.9893
11009SOL    HW235566   5.951   0.685   7.638  1.3949 -0.3278 -0.5362
11010SOL     OW35567   0.165   7.549   7.814  0.0837 -0.6289 -0.2396
11010SOL    HW135568   0.090   7.605   7.793  0.6714  0.3514  0.2648
11010SOL    HW235569   0.156   7.531   7.908  0.8495  0.0411 -0.0356
11011SOL     OW35570   5.366   7.240   5.642  0.2236 -0.0910 -0.5468
11011SOL    HW135571   5.389   7.198   5.559  1.2492  0.4829 -0.5638
11011SOL    HW235572   5.291   7.295   5.621  0.2922 -0.1728 -1.0236
11012SOL     OW35573   7.935   5.006   8.756  0.0945 -0.4028  0.0529
11012SOL    HW135574   7.876   4.964   8.694 -0.4162 -1.9993  1.5626
11012SOL    HW235575   8.008   5.037   8.703 -0.4073 -1.5871 -1.3639
11013SOL     OW35576   2.069   0.242   4.807  0.0890 -0.0007 -0.1170
11013SOL    HW135577   2.117   0.295   4.743 -0.4202 -0.1639 -0.6357
11013SOL    HW235578   1.978   0.268   4.797 -0.2213 -1.2460 -0.6517
11014SOL     OW35579   7.018   5.340   2.510  0.1596 -0.0508  0.3369
11014SOL    HW135580   6.987   5.256   2.544 -0.8408  0.4743  0.7478
11014SOL    HW235581   7.084   5.369   2.573 -0.4914  0.1201  0.9581
11015SOL     OW35582   2.815   2.902   9.688 -0.1732 -0.1599 -0.3605
11015SOL    HW135583   2.773   2.837   9.744  0.2534  1.1790  1.5677
11015SOL    HW235584   2.906   2.873   9.684 -0.1594 -0.1471 -0.1799
11016SOL     OW35585   7.085   2.403   1.707  0.1238  0.2053  0.3385
11016SOL    HW135586   7.109   2.410   1.800 -0.6556 -1.0079  0.6306
11016SOL    HW235587   7.168   2.417   1.661  0.4837  1.0106  1.2026
11017SOL     OW35588   2.122   8.323   8.438 -0.8381  0.1033 -0.6620
11017SOL    HW135589   2.079   8.407   8.458 -2.2635 -0.7967  0.1996
11017SOL    HW235590   2.080   8.294   8.357  1.1417  1.1911 -2.1195
11018SOL     OW35591   2.537   5.248   5.180  0.4781  0.0383  0.0376
11018SOL    HW135592   2.553   5.242   5.086  0.0702 -1.1588  0.0415
11018SOL    HW235593   2.615   5.292   5.214  0.7495  0.2395 -0.8164
11019SOL     OW35594   1.335   8.197   3.745 -0.3728 -0.5942  0.5927
11019SOL    HW135595   1.305   8.244   3.823  0.6429  1.1625 -0.0371
11019SOL    HW235596   1.429   8.187   3.758 -0.3950 -1.3922  0.1601
11020SOL     OW35597   3.482   1.218   0.521  0.0137  0.4428  0.2352
11020SOL    HW135598   3.393   1.250   0.537  0.1654  1.7812 -1.5365
11020SOL    HW235599   3.531   1.243   0.599 -0.7662  1.1229  0.5118
11021SOL     OW35600   9.514   4.951   3.424 -0.1861 -0.1717  0.7252
11021SOL    HW135601   9.436   5.005   3.436 -1.1415 -1.4580  0.4405
11021SOL    HW235602   9.582   5.012   3.395 -1.2948  0.8316  0.2133
11022SOL     OW35603   0.626   6.100   1.711 -0.3095 -0.5743 -0.0815
11022SOL    HW135604   0.621   6.195   1.723  1.2964 -0.4121 -0.4838
11022SOL    HW235605   0.646   6.089   1.618 -0.4843 -1.3033 -0.0352
11023SOL     OW35606   7.365   5.310   4.395  0.1748 -0.3217  0.1136
11023SOL    HW135607   7.410   5.379   4.345 -2.0571  0.2857 -1.0971
11023SOL    HW235608   7.336   5.248   4.329 -0.7719 -0.6977  0.8814
11024SOL     OW35609   3.213   7.816   6.405 -0.4937  0.4263 -0.1043
11024SOL    HW135610   3.181   7.728   6.426 -0.5324  0.2904 -0.7400
11024SOL    HW235611   3.264   7.841   6.483  1.3382 -1.0338 -0.7740
11025SOL     OW35612   3.930   8.637   2.786 -0.5686 -0.1648 -0.2164
11025SOL    HW135613   3.935   8.653   2.880  0.9848 -0.4421 -0.2447
11025SOL    HW235614   3.872   8.561   2.778 -0.9905  0.0788  0.4837
11026SOL     OW35615   5.569   6.876   8.352 -0.1520 -0.0514 -0.5311
11026SOL    HW135616   5.649   6.891   8.402  0.1648  0.7767 -1.2740
11026SOL    HW235617   5.575   6.784   8.325  0.6304  0.0533 -0.7240
11027SOL     OW35618   4.831   7.915   7.662  0.1598 -0.5764 -0.0795
11027SOL    HW135619   4.846   7.822   7.643  2.0082 -0.4248  0.5496
11027SOL    HW235620   4.877   7.961   7.592 -1.3448 -0.1434 -0.7821
11028SOL     OW35621   9.533   0.072   5.852 -0.3190 -0.2589  0.0975
11028SOL    HW135622   9.547  -0.011   5.807  0.5012 -0.7379  1.1939
11028SOL    HW235623   9.518   0.048   5.943 -1.8656  0.6945  0.1063
11029SOL     OW35624   6.041   9.408   1.745 -0.2790  0.1659 -0.0766
11029SOL    HW135625   6.067   9.488   1.791 -2.6153  1.5395 -1.0542
11029SOL    HW235626   6.073   9.421   1.655 -2.4009  0.9362 -0.7497
11030SOL     OW35627   9.992   5.389   5.123 -0.2507 -0.0787 -0.1543
11030SOL    HW135628   9.960   5.366   5.036 -1.2693  0.4481  0.0703
11030SOL    HW235629  10.012   5.305   5.165  1.0949 -0.3004 -1.1924
11031SOL     OW35630   1.839   4.166   6.653  0.0393 -0.2686  0.0995
11031SOL    HW135631   1.865   4.242   6.600  0.0576  0.5938  1.3189
11031SOL    HW235632   1.919   4.142   6.701  0.4787 -2.0791 -1.4603
11032SOL     OW35633   5.682   3.629   9.974  0.0575 -0.0359 -0.7627
11032SOL    HW135634   5.655   3.541   9.946 -0.7848  0.6747 -2.1917
11032SOL    HW235635   5.724   3.614  10.059 -1.7737 -1.6015 -0.0807
11033SOL     OW35636   1.185   6.333   5.524  0.1190 -0.7306  0.0677
11033SOL    HW135637   1.165   6.315   5.433  0.3576  1.2478 -0.4161
11033SOL    HW235638   1.100   6.342   5.567  0.0078 -2.0065  0.1224
11034SOL     OW35639   9.889   4.781   7.819 -0.2820 -0.1272 -0.6107
11034SOL    HW135640   9.809   4.729   7.815 -0.9042  0.7629  0.0760
11034SOL    HW235641   9.948   4.740   7.756 -0.4025 -2.2794  0.6410
11035SOL     OW35642   3.874   8.053   3.217 -0.0171 -0.1748 -0.4617
11035SOL    HW135643   3.827   7.982   3.174  0.0686 -1.3761  1.3392
11035SOL    HW235644   3.931   8.089   3.150 -2.7845  0.6829 -2.4238
11036SOL     OW35645   9.175   6.584   8.891 -0.0697  0.3135  0.2820
11036SOL    HW135646   9.164   6.490   8.902 -0.5833 -0.0809 -3.0979
11036SOL    HW235647   9.269   6.596   8.876  0.1289  0.4659  1.5893
11037SOL     OW35648   4.871   4.217   3.886  0.6022 -0.3575  0.1967
11037SOL    HW135649   4.870   4.182   3.797 -1.8019 -1.9593  0.8021
11037SOL    HW235650   4.963   4.237   3.903  1.3394 -1.7465 -1.9849
11038SOL     OW35651   5.881   4.710   2.848 -0.6051  0.7225 -0.3294
11038SOL    HW135652   5.922   4.786   2.889 -0.4689  0.8735 -0.7384
11038SOL    HW235653   5.915   4.710   2.758  0.4339 -0.5908  0.0535
11039SOL     OW35654   7.997   7.573   7.387  0.1483 -0.1625  0.3523
11039SOL    HW135655   7.981   7.564   7.293 -0.9959  0.5643  0.4748
11039SOL    HW235656   8.092   7.565   7.395  0.2187 -0.6337 -0.8200
11040SOL     OW35657   5.689   4.873   5.772  0.4838  0.6779 -0.2251
11040SOL    HW135658   5.746   4.882   5.848  0.9382  1.0937 -0.6152
11040SOL    HW235659   5.607   4.914   5.799 -0.0312 -0.9292  0.7440
11041SOL     OW35660   3.810   9.743   9.175  0.2634 -0.4973  0.4039
11041SOL    HW135661   3.845   9.774   9.091 -1.0072 -0.6613 -0.2017
11041SOL    HW235662   3.726   9.788   9.184  0.3338 -0.5892  1.5297
11042SOL     OW35663   1.826   9.350  10.021  0.1028 -0.9674  0.3361
11042SOL    HW135664   1.752   9.380  10.075  0.4344 -0.7710  0.6924
11042SOL    HW235665   1.822   9.404   9.942  0.8888  0.2881  1.1171
11043SOL     OW35666   4.094   1.394   7.377  1.1339  0.2799  0.2736
11043SOL    HW135667   4.073   1.387   7.470 -1.9662 -0.7844 -0.4350
11043SOL    HW235668   4.156   1.323   7.361  0.3176 -0.6431  1.1580
11044SOL     OW35669   9.701   0.172   7.673 -0.2086  0.4032  0.2072
11044SOL    HW135670   9.759   0.159   7.749 -0.7470 -0.0595  0.5415
11044SOL    HW235671   9.709   0.265   7.653 -0.2280  0.5752  0.9696
11045SOL     OW35672   9.678   4.569   1.373 -0.0277 -0.2886  0.4589
11045SOL    HW135673   9.732   4.495   1.401  2.2464  1.2588  0.3105
11045SOL    HW235674   9.605   4.570   1.435  1.7318 -0.5713  2.6044
11046SOL     OW35675   5.020   9.795   0.651 -0.5528  0.1824  0.4594
11046SOL    HW135676   5.065   9.849   0.586  0.1214  0.7756  1.3950
11046SOL    HW235677   5.046   9.705   0.630  1.0948  0.5242  0.9923
11047SOL     OW35678   9.362   2.456   2.943 -0.5512  0.3216  0.0480
11047SOL    HW135679   9.393   2.468   3.033  1.1012 -1.4403 -0.2444
11047SOL    HW235680   9.282   2.405   2.952 -1.0640  1.1935  0.5691
11048SOL     OW35681   3.356   5.210   5.963  0.2727 -0.1902 -0.6650
11048SOL    HW135682   3.271   5.209   6.006  0.4085 -0.7229 -0.4107
11048SOL    HW235683   3.418   5.232   6.033  0.3633  0.0325 -0.8149
11049SOL     OW35684   5.105   2.673   5.941 -0.1790 -0.3310  0.0908
11049SOL    HW135685   5.153   2.601   5.983  0.9024 -0.1059 -0.7402
11049SOL    HW235686   5.065   2.633   5.864  0.0585 -0.1400 -0.1307
11050SOL     OW35687   7.153   4.668   1.767  0.4012 -0.1124  0.3979
11050SOL    HW135688   7.190   4.581   1.751  0.9986  0.2113 -0.0105
11050SOL    HW235689   7.077   4.652   1.823  2.7494 -0.5145  3.5464
11051SOL     OW35690   7.243   8.308   3.572  0.7267 -0.1825 -0.3713
11051SOL    HW135691   7.188   8.314   3.651  0.7402 -0.2488 -0.3572
11051SOL    HW235692   7.210   8.232   3.525 -0.6927  1.0820 -1.4866
11052SOL     OW35693   4.198   0.956   6.983 -0.4571  0.1460  0.1749
11052SOL    HW135694   4.242   0.991   6.905 -0.0995 -0.4141  0.1234
11052SOL    HW235695   4.189   1.032   7.041 -0.3381  0.4761 -0.2375
11053SOL     OW35696   7.987   3.778   4.264  0.4842 -0.3075  0.6138
11053SOL    HW135697   7.979   3.733   4.348 -0.0452 -0.3228  0.5583
11053SOL    HW235698   7.966   3.869   4.284  0.8791 -0.2149  0.5991
11054SOL     OW35699   8.846   6.556   6.639 -0.2690  0.1092 -0.4288
11054SOL    HW135700   8.795   6.543   6.719 -1.7769 -1.2592 -1.5863
11054SOL    HW235701   8.913   6.488   6.642 -0.5639 -0.1850 -0.5240
11055SOL     OW35702   1.351   6.146   7.032 -0.1449  0.1350  0.5313
11055SOL    HW135703   1.395   6.078   7.083 -0.8166 -0.2012  0.6666
11055SOL    HW235704   1.328   6.213   7.096  0.2818  0.3710  0.4406
11056SOL     OW35705   1.020   9.865   0.021 -0.2586 -0.2032  0.0182
11056SOL    HW135706   1.072   9.790   0.049 -0.0431  0.3142  1.0001
11056SOL    HW235707   1.045   9.878  -0.071 -2.1152 -2.8570 -0.9293
11057SOL     OW35708   2.063   0.610   9.240  0.6049 -0.3368 -0.2026
11057SOL    HW135709   2.050   0.700   9.269  0.1515 -0.9564  1.6310
11057SOL    HW235710   2.095   0.564   9.318  1.1014 -1.6943 -1.1855
11058SOL     OW35711   4.311   7.719   2.651  0.3006 -0.0090 -0.1274
11058SOL    HW135712   4.284   7.736   2.560 -0.9571 -0.5498  0.1396
11058SOL    HW235713   4.407   7.716   2.647  0.2981  0.9520 -1.2633
11059SOL     OW35714   0.793   9.457   9.895  0.0400 -0.3545 -0.1347
11059SOL    HW135715   0.799   9.507   9.976 -0.1429  0.3665 -0.5693
11059SOL    HW235716   0.699   9.443   9.882 -0.1260  2.0886 -1.7877
11060SOL     OW35717   8.239   5.006   0.968 -0.2209 -0.1691  0.1940
11060SOL    HW135718   8.197   5.078   1.016  0.0836  0.1941 -0.0810
11060SOL    HW235719   8.263   4.943   1.036  0.0945  0.2871  0.5169
11061SOL     OW35720   2.444   4.073   3.456 -0.2419  0.4602 -0.1736
11061SOL    HW135721   2.419   4.057   3.365  0.5689 -2.2233  0.0416
11061SOL    HW235722   2.427   4.167   3.469  1.2946  1.2944 -3.5995
11062SOL     OW35723   5.898   2.607   5.219  0.5784 -0.2596 -0.2171
11062SOL    HW135724   5.887   2.700   5.239 -0.6336 -0.5166  0.3802
11062SOL    HW235725   5.993   2.594   5.215  0.7495  1.2283 -1.4268
11063SOL     OW35726   1.529   8.534   3.688  0.7649 -0.5263 -0.1940
11063SOL    HW135727   1.435   8.529   3.670  0.6199  0.5234  0.2160
11063SOL    HW235728   1.560   8.606   3.633  0.7493  1.1707  1.9231
11064SOL     OW35729   4.492   7.833   6.194  0.2974 -0.0556  0.2927
11064SOL    HW135730   4.461   7.889   6.265 -0.2650  0.2880 -0.2084
11064SOL    HW235731   4.432   7.852   6.122  2.0305  1.0490 -0.8996
11065SOL     OW35732   5.201   4.629   5.431  0.2753 -0.1973  0.1460
11065SOL    HW135733   5.184   4.692   5.360 -0.4135 -2.0717 -1.3864
11065SOL    HW235734   5.282   4.585   5.406 -0.0940 -1.0290  0.3853
11066SOL     OW35735   4.264   0.811   5.158 -0.7507  0.0429 -0.6605
11066SOL    HW135736   4.266   0.769   5.244 -1.1488  0.2719 -0.5362
11066SOL    HW235737   4.214   0.891   5.172  1.0035  1.1456 -0.6397
11067SOL     OW35738   8.859   4.367   2.550 -0.0609 -0.0972 -0.6149
11067SOL    HW135739   8.806   4.349   2.472 -1.3248 -1.4008  0.5093
11067SOL    HW235740   8.899   4.283   2.571 -0.1984  0.0993  0.4671
11068SOL     OW35741   6.938   7.640   4.950 -0.1852  0.7382  0.1500
11068SOL    HW135742   7.017   7.660   5.001  1.6171 -0.9522 -1.9084
11068SOL    HW235743   6.948   7.692   4.870  0.1255 -1.4653 -1.2584
11069SOL     OW35744   7.302   1.877   6.757  0.2134  0.0731 -0.6617
11069SOL    HW135745   7.275   1.922   6.837  0.9237 -0.4272 -0.1406
11069SOL    HW235746   7.238   1.905   6.691  0.8582  2.1405 -0.4308
11070SOL     OW35747   6.252   9.837   3.705 -0.1929  0.0781 -0.5020
11070SOL    HW135748   6.317   9.820   3.773 -0.0261 -0.0879 -0.7085
11070SOL    HW235749   6.168   9.826   3.750 -0.0866  1.2356  0.0082
11071SOL     OW35750   2.736   1.480   9.653 -0.1431 -0.3959 -0.4444
11071SOL    HW135751   2.678   1.519   9.718 -0.1319 -0.0735 -0.6262
11071SOL    HW235752   2.678   1.430   9.596  0.0271 -2.0690  0.7920
11072SOL     OW35753   5.325   3.697   5.284 -0.7338 -0.3182  0.0646
11072SOL    HW135754   5.382   3.623   5.263 -0.0500 -0.4274  2.2470
11072SOL    HW235755   5.310   3.739   5.199  0.5670 -1.7272 -0.9040
11073SOL     OW35756   6.457   6.221   2.326 -0.0507  0.6006  0.3246
11073SOL    HW135757   6.550   6.245   2.321 -0.2245  1.1548 -0.2867
11073SOL    HW235758   6.458   6.134   2.366  0.6842  0.9130  1.0046
11074SOL     OW35759   3.321   6.297   2.444 -0.6255  0.5214  0.2550
11074SOL    HW135760   3.280   6.211   2.445 -1.5971  0.9686  0.0579
11074SOL    HW235761   3.400   6.286   2.391 -0.1362 -0.5090  1.1836
11075SOL     OW35762   3.228   1.086   6.850  0.2812 -0.4758  0.2474
11075SOL    HW135763   3.201   0.995   6.857  0.7062 -0.6126  0.0904
11075SOL    HW235764   3.322   1.085   6.866 -0.0971  0.2522  2.6266
11076SOL     OW35765   3.926   5.090   1.588 -0.2646  0.5342 -0.2228
11076SOL    HW135766   3.926   5.186   1.585 -0.5495  0.5746  0.9614
11076SOL    HW235767   3.834   5.066   1.576 -1.0242  0.6093  4.5856
11077SOL     OW35768   7.947   2.711   4.690  0.3347 -0.0567 -0.1269
11077SOL    HW135769   7.946   2.798   4.649  1.7921 -1.1576 -2.6188
11077SOL    HW235770   7.861   2.674   4.671  1.0044 -0.5583 -2.2298
11078SOL     OW35771   6.353   4.235   9.393 -0.0029  0.7849 -0.3422
11078SOL    HW135772   6.429   4.187   9.360  0.2180 -0.2176  1.5348
11078SOL    HW235773   6.352   4.316   9.343  0.6506 -0.4131 -2.3672
11079SOL     OW35774   8.227   3.796   6.291 -0.3779  0.8763 -0.2295
11079SOL    HW135775   8.246   3.745   6.212  0.6057  0.7699  0.0711
11079SOL    HW235776   8.133   3.783   6.306 -0.3415 -0.0161 -0.7458
11080SOL     OW35777   8.106   0.916   7.709  0.1582  0.5923 -0.0377
11080SOL    HW135778   8.026   0.969   7.706  1.8701  3.3720  0.8437
11080SOL    HW235779   8.126   0.907   7.802 -0.7179 -2.6633 -0.1203
11081SOL     OW35780   6.761   6.263   1.958 -0.4130  0.8556  1.0452
11081SOL    HW135781   6.761   6.199   2.030  0.3199 -0.1013  0.2158
11081SOL    HW235782   6.787   6.345   1.999  2.7914 -0.2675  1.3959
11082SOL     OW35783   7.142   4.953   2.586  0.4494 -0.4144  0.2151
11082SOL    HW135784   7.120   4.862   2.569 -1.6807 -0.2398  1.7627
11082SOL    HW235785   7.059   5.000   2.575  1.2047  1.1140  0.8563
11083SOL     OW35786   1.046   1.582   9.264  0.4274 -0.8777 -0.1767
11083SOL    HW135787   0.978   1.542   9.319 -0.3961  1.8333  0.8341
11083SOL    HW235788   1.119   1.598   9.323 -0.0342  0.9922 -0.0858
11084SOL     OW35789   0.919   4.047   1.027  0.1066 -0.1475  0.3659
11084SOL    HW135790   0.921   4.003   0.941 -0.9520 -0.4457  0.4795
11084SOL    HW235791   0.976   3.994   1.082 -1.3741 -1.5695  0.5752
11085SOL     OW35792   0.799   9.156   0.076 -0.3421 -0.0144 -0.1520
11085SOL    HW135793   0.864   9.088   0.096 -0.7871 -0.2764  0.4284
11085SOL    HW235794   0.819   9.183  -0.013  0.7808  0.1519  0.1504
11086SOL     OW35795   2.919   1.627   3.558  0.7219  0.3776  0.5203
11086SOL    HW135796   2.891   1.588   3.476 -0.7015 -1.6120  1.9081
11086SOL    HW235797   2.996   1.576   3.584  1.2385  1.0750  0.3526
11087SOL     OW35798   0.966   6.807   7.218  0.0616  0.0533 -0.3259
11087SOL    HW135799   0.894   6.862   7.188  0.2701  1.4887  1.6831
11087SOL    HW235800   1.043   6.864   7.216  0.5344 -0.5355  0.4982
11088SOL     OW35801   8.223   4.771   6.241  0.1001 -0.3137 -0.2097
11088SOL    HW135802   8.241   4.691   6.192 -2.3403 -0.9477 -0.1261
11088SOL    HW235803   8.199   4.742   6.328 -0.4461  0.5361 -0.0692
11089SOL     OW35804   6.202   5.176   8.444 -0.6022  0.3364 -0.3018
11089SOL    HW135805   6.281   5.129   8.420 -1.2539 -0.9791  0.1027
11089SOL    HW235806   6.194   5.246   8.379  0.6231  0.1806 -0.6198
11090SOL     OW35807   4.438   1.767   5.406  0.0180  0.2454 -0.0719
11090SOL    HW135808   4.347   1.737   5.401 -0.2327  0.9169  0.3793
11090SOL    HW235809   4.451   1.817   5.325  0.0629 -0.0746 -0.2597
11091SOL     OW35810   1.428   5.415   4.956 -0.6890  0.1286 -0.0637
11091SOL    HW135811   1.378   5.372   5.026 -0.4333 -1.0497 -0.6011
11091SOL    HW235812   1.420   5.508   4.976 -0.5732 -0.1902  1.5682
11092SOL     OW35813   7.723   8.089   0.940 -0.6105 -0.1282 -0.1267
11092SOL    HW135814   7.790   8.124   0.999 -2.6580  0.7271  1.7243
11092SOL    HW235815   7.703   8.161   0.880 -0.8603  0.0575  0.1819
11093SOL     OW35816   8.747   9.446   0.579  0.4790  0.4572 -0.6212
11093SOL    HW135817   8.830   9.493   0.573  1.2458 -0.9117 -0.7618
11093SOL    HW235818   8.711   9.472   0.664  0.7350  1.5404 -0.8330
11094SOL     OW35819   2.527   6.144   0.676 -0.2225  0.0140 -0.5395
11094SOL    HW135820   2.603   6.186   0.716 -0.5381 -0.6044  0.7101
11094SOL    HW235821   2.462   6.139   0.746 -0.2753 -2.3463 -0.7107
11095SOL     OW35822   4.536   1.237   9.895 -0.2060 -0.1025 -0.1214
11095SOL    HW135823   4.500   1.318   9.857 -2.3127 -0.3210  1.3136
11095SOL    HW235824   4.558   1.183   9.820 -1.8828  0.5087 -1.0839
11096SOL     OW35825   0.293   6.169   1.884  0.4210 -0.2321  0.2757
11096SOL    HW135826   0.358   6.122   1.937 -0.2070  0.2340  1.4968
11096SOL    HW235827   0.227   6.197   1.948  0.1725  1.2517 -0.6068
11097SOL     OW35828   5.370   9.708   3.562 -0.4418  0.0600  0.4363
11097SOL    HW135829   5.285   9.733   3.596 -1.3897 -1.2590 -0.9124
11097SOL    HW235830   5.423   9.788   3.567 -1.7535  0.8943  1.2062
11098SOL     OW35831   7.242   9.103   0.223 -0.0002 -0.2463 -0.2059
11098SOL    HW135832   7.200   9.178   0.181  1.2497  0.3608 -0.3708
11098SOL    HW235833   7.230   9.031   0.161 -1.5724 -0.3081  0.1383
11099SOL     OW35834   0.658   5.346   0.610  0.3575  0.1573  0.4345
11099SOL    HW135835   0.574   5.372   0.649 -0.4503 -0.4736 -0.8243
11099SOL    HW235836   0.648   5.252   0.592  0.9411  0.2931 -0.6508
11100SOL     OW35837   4.253   0.830   6.114 -0.3021 -0.2921 -0.0125
11100SOL    HW135838   4.189   0.761   6.131 -1.1727  0.6034  0.4515
11100SOL    HW235839   4.279   0.860   6.201 -4.1158  3.7160 -0.0351
11101SOL     OW35840   8.277   6.099   7.320 -0.0248 -0.2393  0.6410
11101SOL    HW135841   8.199   6.045   7.308 -0.9857  0.9191  1.5980
11101SOL    HW235842   8.307   6.118   7.231 -1.2664 -0.0688  0.2546
11102SOL     OW35843   4.095   3.318   5.155 -0.1388 -0.0200 -0.0342
11102SOL    HW135844   4.037   3.355   5.222 -0.2723  0.5420 -0.4573
11102SOL    HW235845   4.160   3.269   5.205  0.2347  1.0599  0.5617
11103SOL     OW35846   4.175   2.901   7.776 -0.4235 -0.1653 -0.6475
11103SOL    HW135847   4.246   2.906   7.712  0.0978 -1.7017 -0.2071
11103SOL    HW235848   4.216   2.868   7.855 -0.9480  2.3282  0.7082
11104SOL     OW35849   4.758   7.658   3.651  0.1499 -0.2030  0.2998
11104SOL    HW135850   4.782   7.741   3.609 -0.2124 -0.6064 -0.7128
11104SOL    HW235851   4.741   7.598   3.578 -1.9289 -0.5112  0.9913
11105SOL     OW35852   4.846   6.045   5.168 -0.3159  0.6567 -0.4352
11105SOL    HW135853   4.853   6.141   5.163  0.9705  0.5340 -1.0498
11105SOL    HW235854   4.887   6.014   5.088 -0.1774 -0.4388  0.0594
11106SOL     OW35855   6.387   2.771   0.808 -0.1016  0.3186  0.3684
11106SOL    HW135856   6.376   2.840   0.742 -2.5256 -1.1358 -0.8374
11106SOL    HW235857   6.299   2.760   0.845  0.5417 -1.1744  1.4877
11107SOL     OW35858   5.058   3.180   5.978  0.4415  0.0176  0.0093
11107SOL    HW135859   5.008   3.186   6.060  1.7755  0.4442  0.8137
11107SOL    HW235860   5.051   3.266   5.938  0.1782 -0.0480 -0.0823
11108SOL     OW35861   8.916   7.260   3.214  0.1015  0.7091 -0.5433
11108SOL    HW135862   8.915   7.207   3.294  1.3250  2.4191  0.6463
11108SOL    HW235863   9.002   7.245   3.176 -0.0977  0.7062 -0.9926
11109SOL     OW35864  10.010   6.240   7.531 -0.1080 -0.4172  0.0282
11109SOL    HW135865   9.966   6.175   7.586 -0.5790 -0.2750 -0.1743
11109SOL    HW235866   9.939   6.292   7.494  0.2576  0.0974  0.0452
11110SOL     OW35867   4.977   7.652   3.862 -0.3267  0.0353  0.1957
11110SOL    HW135868   4.886   7.625   3.869 -0.9475  1.7111 -1.0901
11110SOL    HW235869   4.982   7.701   3.780  1.6358  0.3084  0.4404
11111SOL     OW35870   0.369   0.032   5.724  0.3283 -0.2018 -0.1166
11111SOL    HW135871   0.432   0.094   5.761  1.8191 -0.4320 -2.1719
11111SOL    HW235872   0.387  -0.050   5.771  1.0951 -0.0863 -0.1947
11112SOL     OW35873   6.441   6.300   0.963 -0.7145 -0.4589  0.2939
11112SOL    HW135874   6.398   6.242   1.026  1.7091 -0.0815  2.4060
11112SOL    HW235875   6.534   6.277   0.969  0.0580  2.3092 -0.2453
11113SOL     OW35876   7.069   5.119   1.051 -0.2725  0.1081 -0.0677
11113SOL    HW135877   7.111   5.068   1.119 -1.6557  0.2401  0.8912
11113SOL    HW235878   7.030   5.194   1.097  0.3007  1.1519 -1.2285
11114SOL     OW35879   2.726   2.954  10.052  0.1931  0.2566 -0.3607
11114SOL    HW135880   2.818   2.972  10.030  0.6461 -1.5569  0.0030
11114SOL    HW235881   2.708   2.870  10.011 -1.1282  0.2988  0.1268
11115SOL     OW35882   4.953   6.555   1.356 -0.5818  0.2084 -0.1447
11115SOL    HW135883   4.958   6.626   1.421  2.0996 -0.6494  0.6552
11115SOL    HW235884   4.894   6.589   1.288  0.1192  2.9620  0.5455
11116SOL     OW35885   4.696   0.295   2.705 -0.0779  1.2564  0.2259
11116SOL    HW135886   4.647   0.378   2.713 -1.1401  0.7663 -1.0866
11116SOL    HW235887   4.699   0.261   2.795 -1.0542  1.9170  0.5177
11117SOL     OW35888   6.177   9.796   2.540  0.0936 -0.6073  0.1238
11117SOL    HW135889   6.247   9.854   2.509  0.7612 -1.6153 -0.2844
11117SOL    HW235890   6.121   9.784   2.464 -0.6325  0.3348  0.4962
11118SOL     OW35891   2.097   9.323   7.504 -0.0655 -0.0385 -0.8347
11118SOL    HW135892   2.155   9.247   7.511 -1.3055 -0.8882  0.3845
11118SOL    HW235893   2.143   9.382   7.444  1.7516 -0.9654 -0.3942
11119SOL     OW35894   1.005   1.104   9.335 -0.8954  0.0087 -0.5390
11119SOL    HW135895   0.947   1.089   9.260 -0.5514 -1.1545 -0.5800
11119SOL    HW235896   1.011   1.019   9.378  0.3310  0.2459 -0.2193
11120SOL     OW35897   6.902   0.048   9.233  0.1571 -0.3839 -1.1244
11120SOL    HW135898   6.917  -0.045   9.215  1.1214 -0.2657 -0.9274
11120SOL    HW235899   6.975   0.093   9.191  2.0647 -0.0494  2.4010
11121SOL     OW35900   6.528   8.576   0.134  0.6055 -0.2164  0.5544
11121SOL    HW135901   6.464   8.622   0.080  0.2814 -2.3423 -0.9561
11121SOL    HW235902   6.610   8.622   0.119 -0.2634  1.6425  1.3826
11122SOL     OW35903   0.704   0.365   7.041 -0.5154 -0.1143  0.2035
11122SOL    HW135904   0.673   0.419   7.114 -1.5167 -0.4669  0.0423
11122SOL    HW235905   0.648   0.388   6.967 -0.5331 -0.9085 -0.0396
11123SOL     OW35906   7.159   2.079   6.606  0.7939  0.0176 -0.0981
11123SOL    HW135907   7.199   2.119   6.684  0.7827  1.7528 -0.9470
11123SOL    HW235908   7.171   2.145   6.537 -1.5323 -0.3775 -0.9117
11124SOL     OW35909   0.178   9.741   2.637 -0.2300 -0.3665  0.4610
11124SOL    HW135910   0.134   9.705   2.714  0.0678 -1.9746 -0.1018
11124SOL    HW235911   0.244   9.676   2.614 -0.0106  0.3094 -0.8927
11125SOL     OW35912  10.163   4.034   9.427 -0.0332 -0.3790  0.0443
11125SOL    HW135913  10.083   4.078   9.457 -1.3110 -1.0069 -2.3116
11125SOL    HW235914  10.199   3.993   9.506 -1.2468  1.1075  1.4140
11126SOL     OW35915   2.083   5.009   3.872  0.0789  0.4274  0.1294
11126SOL    HW135916   2.043   4.927   3.900 -0.6419 -0.1056 -2.3572
11126SOL    HW235917   2.012   5.057   3.829  0.4774  2.4111  1.5954
11127SOL     OW35918   8.439   4.436   6.324  0.5442  0.3126  0.0761
11127SOL    HW135919   8.431   4.393   6.409  1.5522 -0.0751 -0.0145
11127SOL    HW235920   8.490   4.374   6.271  0.1379  0.6632 -0.7297
11128SOL     OW35921   9.694   1.823  10.203 -0.2042 -0.1417 -0.3608
11128SOL    HW135922   9.714   1.788  10.116 -0.5219 -1.2594  0.0021
11128SOL    HW235923   9.621   1.883  10.189  2.2557  2.7146 -1.4484
11129SOL     OW35924   3.868   4.988   9.026 -0.2339 -0.0914  0.0358
11129SOL    HW135925   3.821   5.007   9.107  0.2876 -1.4700  0.6664
11129SOL    HW235926   3.959   4.978   9.054 -0.3999 -2.9699 -0.3501
11130SOL     OW35927   3.387   8.550   0.383  0.0385  0.7273 -0.3055
11130SOL    HW135928   3.471   8.580   0.350 -0.1623  1.2255 -0.3721
11130SOL    HW235929   3.326   8.621   0.361  0.0867  1.5309  2.0193
11131SOL     OW35930   2.113   4.969   1.331 -0.3063  0.1402  0.1773
11131SOL    HW135931   2.129   5.011   1.415  1.5964  2.5527 -1.2968
11131SOL    HW235932   2.197   4.928   1.308 -1.1437 -1.4818 -0.0115
11132SOL     OW35933   0.294   2.992   2.589 -0.4520 -0.1429 -0.2393
11132SOL    HW135934   0.319   3.064   2.647 -1.1761 -1.0797  1.2897
11132SOL    HW235935   0.322   3.020   2.502  1.2085  1.0369  0.6429
11133SOL     OW35936   0.995   2.943   8.141 -0.0358  0.1522 -0.3420
11133SOL    HW135937   0.953   2.956   8.056 -2.1131  1.3884  0.8437
11133SOL    HW235938   0.981   3.025   8.187  1.5501 -0.3251  1.0139
11134SOL     OW35939   7.100   3.860   4.560  0.4119  0.3844  0.0763
11134SOL    HW135940   7.100   3.856   4.464  0.3793  1.2066  0.0362
11134SOL    HW235941   7.133   3.775   4.588 -1.5451 -0.6341 -0.6308
11135SOL     OW35942   3.221   4.238   8.981  0.0472 -0.0310  0.3685
11135SOL    HW135943   3.223   4.323   9.024  0.2917  0.3759 -0.4288
11135SOL    HW235944   3.148   4.243   8.919  0.7395  0.0098 -0.4699
11136SOL     OW35945   1.676   5.286  10.058  0.6095 -0.1583 -0.4161
11136SOL    HW135946   1.665   5.221   9.989  2.5716  2.9505 -3.8401
11136SOL    HW235947   1.767   5.313  10.053 -0.1792  3.0353  0.6964
11137SOL     OW35948   2.952   3.160   2.087  0.0569 -0.1842 -0.0859
11137SOL    HW135949   2.949   3.239   2.032 -0.2315 -0.1825 -0.0672
11137SOL    HW235950   2.989   3.190   2.170 -2.1516  0.4050  0.7176
11138SOL     OW35951   0.540   7.385   0.530 -0.0602  0.3411 -0.0719
11138SOL    HW135952   0.484   7.313   0.560  3.1363 -0.9926  3.0553
11138SOL    HW235953   0.582   7.352   0.451 -0.2677 -0.4075  0.1236
11139SOL     OW35954   8.003   2.546   5.689  0.4270 -0.6737 -0.3605
11139SOL    HW135955   8.043   2.613   5.746  1.1583  0.2240 -1.9018
11139SOL    HW235956   8.007   2.466   5.741  1.7456 -0.0246  0.5908
11140SOL     OW35957   0.798   8.111   7.185 -0.0082 -0.0592  0.7811
11140SOL    HW135958   0.744   8.097   7.107  1.9591  1.7933 -0.9929
11140SOL    HW235959   0.844   8.028   7.197 -0.9082 -0.6144  0.4340
11141SOL     OW35960   3.777   5.173   5.624  0.3588 -0.1112 -0.4857
11141SOL    HW135961   3.749   5.207   5.709  0.3850 -3.1757  0.8228
11141SOL    HW235962   3.872   5.190   5.621 -0.2195  3.2381 -1.5283
11142SOL     OW35963   0.033   4.103   5.894  0.0513 -0.0472 -0.1982
11142SOL    HW135964   0.086   4.158   5.836  0.0525  0.7406  0.5361
11142SOL    HW235965  -0.034   4.065   5.837  0.3590  0.3219 -0.8089
11143SOL     OW35966   6.212   0.560   2.237  0.0608 -0.2289 -0.7481
11143SOL    HW135967   6.277   0.581   2.304 -1.1818 -1.6349  0.9370
11143SOL    HW235968   6.260   0.568   2.154  1.5272  1.8754  0.2468
11144SOL     OW35969   2.788   4.179   6.915  0.4508 -0.2229 -0.0530
11144SOL    HW135970   2.702   4.208   6.885  0.1932  0.1763  1.0772
11144SOL    HW235971   2.826   4.136   6.838 -0.4259  0.3094 -0.7973
11145SOL     OW35972   2.138   4.225   8.780  0.6160  0.2870 -0.3030
11145SOL    HW135973   2.200   4.170   8.732  0.3210 -0.3537  0.0451
11145SOL    HW235974   2.053   4.205   8.740  0.6036  1.0548 -0.6818
11146SOL     OW35975   0.075   9.566   3.823  0.5248 -0.5156  0.9107
11146SOL    HW135976   0.125   9.647   3.811 -0.6871 -0.1167 -1.8881
11146SOL    HW235977   0.076   9.551   3.917  1.7632  2.1173  1.3706
11147SOL     OW35978   7.782   2.957   6.339 -0.7933  0.4619  0.4942
11147SOL    HW135979   7.797   3.046   6.371  0.4343  0.7659 -0.8375
11147SOL    HW235980   7.737   2.969   6.256  1.0363 -0.0510 -0.6142
11148SOL     OW35981   5.483   7.752   8.723 -0.2089  0.0055 -0.1057
11148SOL    HW135982   5.503   7.798   8.805 -0.7648 -0.3529  0.2347
11148SOL    HW235983   5.482   7.820   8.656 -1.7585  0.5950  0.5134
11149SOL     OW35984   4.226   9.757   5.451  0.1181 -0.6523  0.0773
11149SOL    HW135985   4.189   9.670   5.440 -0.0342 -0.5322 -0.3570
11149SOL    HW235986   4.196   9.785   5.537 -2.4740  0.2507 -1.0704
11150SOL     OW35987   1.463   6.664   6.522 -0.2023 -0.0805 -0.5207
11150SOL    HW135988   1.522   6.738   6.507 -0.0189  0.2754  1.7684
11150SOL    HW235989   1.395   6.673   6.455 -1.8014  3.8194  1.4912
11151SOL     OW35990   0.688   1.882   7.315 -0.5107  0.1357 -0.2557
11151SOL    HW135991   0.769   1.892   7.365  1.3230 -0.9838 -2.9105
11151SOL    HW235992   0.697   1.942   7.242 -1.5419 -0.8791 -1.2387
11152SOL     OW35993   9.389   2.969   0.791  0.7895 -0.1482 -0.4393
11152SOL    HW135994   9.470   3.018   0.803  0.4925  0.5366 -1.2393
11152SOL    HW235995   9.418   2.878   0.778  1.3651 -0.0860  0.3716
11153SOL     OW35996   3.689   6.341   0.139 -0.1810 -0.3206  0.2189
11153SOL    HW135997   3.699   6.342   0.044  0.7189 -1.5941  0.3059
11153SOL    HW235998   3.760   6.396   0.171 -0.0067 -0.5438  0.2112
11154SOL     OW35999   7.363   4.910   2.963  0.0181  0.3155 -0.4863
11154SOL    HW136000   7.419   4.836   2.988  0.8426  0.8301 -0.7589
11154SOL    HW236001   7.276   4.888   2.996  0.0275 -1.2430 -1.4926
11155SOL     OW36002   7.579   6.787   3.421 -0.2691 -0.1540 -0.4693
11155SOL    HW136003   7.520   6.730   3.372 -0.5346  0.4757 -0.8963
11155SOL    HW236004   7.595   6.861   3.362  1.6888 -0.7618 -0.7218
11156SOL     OW36005   8.101   9.289   3.724 -0.4187 -0.1779  0.0649
11156SOL    HW136006   8.141   9.337   3.796 -0.8370 -0.5554  0.5493
11156SOL    HW236007   8.067   9.356   3.666 -2.8750  0.1030  1.7717
11157SOL     OW36008   0.641   5.362   9.069  0.4623 -0.1871  0.3336
11157SOL    HW136009   0.566   5.394   9.120  1.7491  0.0849  2.1317
11157SOL    HW236010   0.610   5.356   8.979 -2.2321 -1.7100  1.3163
11158SOL     OW36011   2.363   5.797   5.503 -1.0023 -0.2643  0.0584
11158SOL    HW136012   2.344   5.844   5.585  1.0702  0.6896  0.0212
11158SOL    HW236013   2.363   5.705   5.528 -0.0908  0.0301  1.2324
11159SOL     OW36014   1.575   7.584   9.272  0.0744 -0.5755  0.0255
11159SOL    HW136015   1.483   7.599   9.291  0.0304  1.2916 -1.5585
11159SOL    HW236016   1.620   7.660   9.309  0.7630 -0.5034 -0.9461
11160SOL     OW36017   1.281   7.162   4.083 -0.1427  0.0463 -0.8367
11160SOL    HW136018   1.261   7.124   4.169  0.6294 -1.7156 -1.4211
11160SOL    HW236019   1.223   7.239   4.078 -1.0032 -0.4472  0.7900
11161SOL     OW36020   9.107   2.609   0.174 -0.1147 -0.2540 -0.2217
11161SOL    HW136021   9.191   2.653   0.161 -0.1168 -0.9345 -3.0354
11161SOL    HW236022   9.062   2.620   0.090 -2.7442 -0.1203  1.1466
11162SOL     OW36023   0.834   8.012   8.058  0.1992 -0.2785 -0.0705
11162SOL    HW136024   0.859   7.920   8.067 -0.0288 -0.0536  3.5174
11162SOL    HW236025   0.743   8.016   8.085  1.2519  1.5055  3.6150
11163SOL     OW36026   2.091   4.189   3.497 -0.2523 -0.2625  0.5300
11163SOL    HW136027   2.130   4.276   3.500  0.4825 -0.6366  2.4310
11163SOL    HW236028   1.998   4.205   3.481  0.5008  0.6517 -3.4403
11164SOL     OW36029   8.201   4.442   9.787 -0.0358 -0.0732  0.2311
11164SOL    HW136030   8.106   4.428   9.790 -0.2521  0.8342 -1.4600
11164SOL    HW236031   8.224   4.424   9.695  0.8702  3.0954 -0.2240
11165SOL     OW36032   3.306   8.651   6.169 -0.3586 -0.2350  0.7897
11165SOL    HW136033   3.346   8.713   6.230  1.6257  0.8446 -1.5051
11165SOL    HW236034   3.367   8.577   6.167  1.0734  0.9329 -1.8869
11166SOL     OW36035   3.437   8.960   9.085 -0.3098  0.0778  0.0064
11166SOL    HW136036   3.501   8.894   9.059  0.5817  0.6658  0.6721
11166SOL    HW236037   3.475   9.043   9.054  0.1574  0.6471  2.0595
11167SOL     OW36038   8.306   9.334   6.707 -0.7249 -0.5548 -0.4291
11167SOL    HW136039   8.367   9.355   6.778 -2.1031 -0.7530  0.8144
11167SOL    HW236040   8.294   9.240   6.712 -1.2376 -0.4981 -0.6110
11168SOL     OW36041   7.641   5.744   0.128 -0.1301 -0.3437  0.3117
11168SOL    HW136042   7.663   5.707   0.213  0.7608  1.7365  1.0248
11168SOL    HW236043   7.679   5.684   0.064 -0.1263 -1.4966  1.3769
11169SOL     OW36044   8.823   1.236   7.558 -0.5807 -0.7582  0.0169
11169SOL    HW136045   8.728   1.223   7.555 -0.7940  0.6889  0.0824
11169SOL    HW236046   8.844   1.283   7.477 -0.3713  1.5416  1.3515
11170SOL     OW36047   0.424   1.017   2.071 -0.0308 -0.5159 -0.2498
11170SOL    HW136048   0.512   1.015   2.033 -0.1970 -1.8922 -0.6028
11170SOL    HW236049   0.438   1.004   2.165  0.2769  1.4199 -0.0056
11171SOL     OW36050   1.406   0.709   2.910  0.0982 -0.2504 -0.2209
11171SOL    HW136051   1.373   0.670   2.991  0.8312  0.4053  0.4040
11171SOL    HW236052   1.397   0.640   2.844  1.4690 -1.5155  0.8860
11172SOL     OW36053   7.449   5.629   7.971 -0.0126 -0.1346  0.3489
11172SOL    HW136054   7.483   5.708   7.930 -0.1848 -0.1887  0.0996
11172SOL    HW236055   7.516   5.562   7.953 -1.2402 -0.7731 -2.0246
11173SOL     OW36056   7.511   4.366   5.219 -0.4445 -0.1358 -0.1226
11173SOL    HW136057   7.503   4.270   5.222  0.3026 -0.1722  0.8981
11173SOL    HW236058   7.430   4.395   5.177 -0.2940 -1.2677 -1.2176
11174SOL     OW36059   4.339   8.536   7.681  0.0653 -0.4348 -0.1297
11174SOL    HW136060   4.352   8.629   7.668  0.4229 -0.3588  0.7529
11174SOL    HW236061   4.409   8.509   7.741 -0.7578 -1.0129  0.6032
11175SOL     OW36062   5.846   6.154   8.065  0.4237 -0.0769 -0.4462
11175SOL    HW136063   5.847   6.060   8.085  0.9938  0.2031  0.9523
11175SOL    HW236064   5.844   6.196   8.151 -1.3987  1.1972 -1.0867
11176SOL     OW36065   9.588   6.503   9.091 -0.3206  0.1775  0.3017
11176SOL    HW136066   9.511   6.447   9.089 -2.3692  2.9390 -0.3260
11176SOL    HW236067   9.657   6.450   9.050 -2.0749 -1.9622  0.0169
11177SOL     OW36068   9.456   7.658   3.782 -0.5031 -0.4660  0.9405
11177SOL    HW136069   9.549   7.641   3.794  0.1671  2.2823  0.1300
11177SOL    HW236070   9.418   7.646   3.869  1.3377  2.3464  2.2087
11178SOL     OW36071   2.776   6.088   0.165 -0.0201 -0.2070 -0.2187
11178SOL    HW136072   2.730   6.153   0.111  0.8093  2.0443  1.6929
11178SOL    HW236073   2.832   6.041   0.103 -1.6085 -0.0212 -1.8574
11179SOL     OW36074   8.629   0.546   5.697 -0.5546 -0.1699 -0.3087
11179SOL    HW136075   8.595   0.580   5.780 -0.3635 -2.5461  0.8006
11179SOL    HW236076   8.617   0.618   5.635 -2.1289  1.1175  1.4085
11180SOL     OW36077   9.872   9.100   1.896  0.2670  0.0927  0.1727
11180SOL    HW136078   9.902   9.140   1.978  0.6380 -1.1104  0.6430
11180SOL    HW236079   9.938   9.033   1.877 -0.3945 -0.3680 -0.5251
11181SOL     OW36080   0.834   3.869  10.053 -0.3776 -0.5180  0.3183
11181SOL    HW136081   0.823   3.807   9.981 -0.4521 -1.6680  1.2950
11181SOL    HW236082   0.923   3.904  10.042 -0.6603 -0.1094 -0.7522
11182SOL     OW36083   9.986   7.380   7.753 -0.6500  0.0215 -0.6223
11182SOL    HW136084   9.953   7.460   7.795 -0.7180 -0.1472 -0.3543
11182SOL    HW236085  10.065   7.358   7.803  0.8350  1.3627 -2.3071
11183SOL     OW36086   0.282   7.669   2.039  0.2850 -0.3836  0.0086
11183SOL    HW136087   0.227   7.591   2.045  0.3470 -0.4935 -0.7365
11183SOL    HW236088   0.323   7.662   1.953  2.7578 -1.1902  1.1973
11184SOL     OW36089   5.650   7.759   0.058  0.3221  0.1290 -0.2739
11184SOL    HW136090   5.614   7.847   0.046  1.0474  0.5173  0.3149
11184SOL    HW236091   5.739   7.775   0.091  1.7675 -0.7514 -3.5532
11185SOL     OW36092   1.471   3.198   4.734 -0.5054 -0.3447  0.0040
11185SOL    HW136093   1.447   3.243   4.815  0.2105 -0.2464  0.1657
11185SOL    HW236094   1.438   3.255   4.665  0.1891  0.3211  0.2105
11186SOL     OW36095   1.426   9.654   7.235  0.1315 -0.4363 -0.4074
11186SOL    HW136096   1.419   9.744   7.203 -1.3088 -0.4177 -0.0831
11186SOL    HW236097   1.370   9.603   7.177 -0.5439 -0.8058  0.5474
11187SOL     OW36098   6.911   5.347   5.817  0.1450  0.3338  0.3227
11187SOL    HW136099   6.871   5.427   5.850 -1.2326 -0.0710 -0.3302
11187SOL    HW236100   6.993   5.376   5.777 -0.6224  1.5048 -0.4319
11188SOL     OW36101   1.081   2.095   3.736  0.7923 -0.6889 -0.0311
11188SOL    HW136102   1.103   2.182   3.769 -0.6199 -0.6326  0.7988
11188SOL    HW236103   0.995   2.076   3.774 -0.0489 -1.4015 -2.2452
11189SOL     OW36104   9.639   7.291   5.336 -0.9857 -1.0325  0.0793
11189SOL    HW136105   9.725   7.294   5.295 -1.6317 -1.4858 -1.3317
11189SOL    HW236106   9.580   7.330   5.272 -1.9509 -1.3893  0.7288
11190SOL     OW36107   5.576   8.952   2.997  0.3734 -0.6063 -0.3809
11190SOL    HW136108   5.553   8.880   3.055  1.2368 -0.5454  0.0509
11190SOL    HW236109   5.500   9.010   2.999  1.0164  0.2397  2.0252
11191SOL     OW36110   0.753   4.388   6.219 -0.4656  0.3112  0.7797
11191SOL    HW136111   0.759   4.293   6.231 -0.8058  0.3960  1.6655
11191SOL    HW236112   0.842   4.416   6.197 -0.3985 -0.2283  0.3556
11192SOL     OW36113   2.652   1.486   8.583 -0.6989 -0.0567 -0.0432
11192SOL    HW136114   2.734   1.456   8.621 -0.5910  3.1007  2.4023
11192SOL    HW236115   2.676   1.564   8.532 -2.2313  1.3080  1.2636
11193SOL     OW36116   1.353   5.696   4.979  0.1295 -0.0579  0.0348
11193SOL    HW136117   1.403   5.741   5.048 -0.6924  1.5550 -0.4046
11193SOL    HW236118   1.268   5.679   5.019 -0.3060  0.7679 -0.5475
11194SOL     OW36119   2.262   0.193   1.993 -0.3616 -0.3751 -0.3334
11194SOL    HW136120   2.250   0.258   2.063  0.4955  0.0380 -0.5646
11194SOL    HW236121   2.345   0.150   2.014 -0.1650 -0.3349 -1.0228
11195SOL     OW36122   7.033   8.158   6.996  0.0710  0.2112 -0.3780
11195SOL    HW136123   6.963   8.097   6.971 -0.1800  0.3349  0.0195
11195SOL    HW236124   7.079   8.112   7.066  2.9810 -1.7049 -3.3887
11196SOL     OW36125   3.364   6.512   7.639 -0.0260 -0.3925  0.0753
11196SOL    HW136126   3.398   6.464   7.563 -1.7660 -0.3665 -0.7334
11196SOL    HW236127   3.282   6.550   7.609  0.9836  2.5560  0.9376
11197SOL     OW36128   3.849   3.771   0.783 -0.0833  0.5336 -0.7391
11197SOL    HW136129   3.797   3.756   0.862 -0.3569 -0.2309 -1.0680
11197SOL    HW236130   3.874   3.863   0.789  0.4526  0.3127  0.5730
11198SOL     OW36131   0.372   3.372   4.798  0.5761  0.2919  0.1555
11198SOL    HW136132   0.306   3.365   4.868  0.7707 -0.3971  0.2703
11198SOL    HW236133   0.452   3.397   4.844  0.0773  2.5786 -0.1533
11199SOL     OW36134   4.939   0.847   2.765 -0.0355 -0.1881  0.1748
11199SOL    HW136135   4.858   0.803   2.738 -0.2681  0.0620  0.4654
11199SOL    HW236136   4.959   0.905   2.692 -0.3999  0.1273  0.3222
11200SOL     OW36137   7.544  10.048   2.107 -0.4936  0.0829 -0.5066
11200SOL    HW136138   7.513   9.980   2.167 -1.6278  1.0041 -0.0241
11200SOL    HW236139   7.545  10.128   2.159 -3.1431  1.2343 -2.0993
11201SOL     OW36140   9.934   4.272   7.931  0.0875 -0.0979 -0.0510
11201SOL    HW136141   9.901   4.331   8.000  1.3479 -0.4200  0.8474
11201SOL    HW236142  10.000   4.324   7.885  0.0049 -0.2493 -0.3394
11202SOL     OW36143   6.653   1.470   3.396  0.2445  0.0478 -0.2983
11202SOL    HW136144   6.686   1.474   3.486 -2.5713 -1.6671  0.8903
11202SOL    HW236145   6.634   1.377   3.382 -2.8504  0.7565 -1.2857
11203SOL     OW36146   3.742   6.446   6.600 -0.3002  0.0986  0.4088
11203SOL    HW136147   3.740   6.418   6.692  0.9181 -1.7273 -0.0871
11203SOL    HW236148   3.797   6.381   6.557 -1.0557  0.8059 -1.6691
11204SOL     OW36149   0.756   9.058   1.853  0.8818 -0.0106  0.0316
11204SOL    HW136150   0.848   9.046   1.875  0.7303 -1.6138 -0.1741
11204SOL    HW236151   0.756   9.084   1.761  1.2482  2.2933  0.6531
11205SOL     OW36152   2.842   0.428   1.765 -0.4132  0.0206 -0.3822
11205SOL    HW136153   2.875   0.367   1.700  0.4548  0.3749 -0.2747
11205SOL    HW236154   2.859   0.515   1.729  0.0151  0.2186  0.2757
11206SOL     OW36155   1.079   1.390  10.193 -0.1697  0.9059  0.4328
11206SOL    HW136156   1.073   1.485  10.197 -1.0857  0.9859 -1.8258
11206SOL    HW236157   1.004   1.364  10.139  1.3433 -0.8969 -0.8624
11207SOL     OW36158   3.247   0.803   6.857  0.2836  0.6059  0.3572
11207SOL    HW136159   3.231   0.721   6.904 -2.4348  0.2061 -1.1329
11207SOL    HW236160   3.278   0.776   6.771  0.1689  1.1705  0.1346
11208SOL     OW36161   4.127   5.094   7.430 -0.0325  0.0671 -0.6536
11208SOL    HW136162   4.188   5.092   7.504 -0.4376 -0.3676 -0.3312
11208SOL    HW236163   4.181   5.122   7.355  0.6442 -0.6793 -0.4470
11209SOL     OW36164   4.941   5.489   8.704  0.3768  0.0976 -0.1590
11209SOL    HW136165   4.876   5.425   8.676 -0.6957  1.8821 -1.8097
11209SOL    HW236166   4.905   5.527   8.784 -2.1409  3.2921 -2.7425
11210SOL     OW36167   8.257   0.745   3.494  0.1697 -0.4283  0.0403
11210SOL    HW136168   8.310   0.790   3.427 -0.4932  0.6539  0.2252
11210SOL    HW236169   8.201   0.814   3.529  1.8590 -0.5369  3.1025
11211SOL     OW36170   9.151   5.608   1.498 -0.3992 -0.2101  0.2912
11211SOL    HW136171   9.093   5.552   1.551 -1.4203  0.7286  0.1774
11211SOL    HW236172   9.111   5.609   1.411 -0.4077  0.7239  0.3013
11212SOL     OW36173   6.086   6.911   6.307  0.2869  0.6777 -0.3407
11212SOL    HW136174   6.110   6.860   6.229  1.9947 -1.6602  1.6066
11212SOL    HW236175   5.991   6.913   6.306  0.2774  2.3289 -3.4532
11213SOL     OW36176   3.428   5.945   6.214 -0.2118 -0.1244  0.3063
11213SOL    HW136177   3.405   6.037   6.208 -1.2331 -0.4600 -1.2103
11213SOL    HW236178   3.521   5.942   6.190 -0.8045  0.2383 -2.2511
11214SOL     OW36179   6.158   8.975   8.662 -0.0252  0.1696 -0.2523
11214SOL    HW136180   6.063   8.979   8.669 -0.2247 -1.9263 -1.3113
11214SOL    HW236181   6.190   9.024   8.738 -1.9290 -0.2895  0.8759
11215SOL     OW36182   9.312   4.859   6.611  0.3739  0.3471  0.5956
11215SOL    HW136183   9.281   4.920   6.678 -0.8450 -1.3580  1.6310
11215SOL    HW236184   9.243   4.793   6.605  1.6649 -0.9374 -0.4716
11216SOL     OW36185   0.868   7.418   6.544 -0.8401  0.1637 -0.7228
11216SOL    HW136186   0.921   7.452   6.472 -1.6075  2.6268 -0.1769
11216SOL    HW236187   0.931   7.404   6.615 -0.1574 -1.8295 -1.6830
11217SOL     OW36188   5.877   2.487   7.754  0.5293  0.0656 -0.0427
11217SOL    HW136189   5.906   2.566   7.708  0.8943  1.6105  2.7600
11217SOL    HW236190   5.950   2.465   7.812  0.4419 -2.3900 -0.7750
11218SOL     OW36191   4.205   1.981   6.036 -0.0864 -0.3779  0.0253
11218SOL    HW136192   4.180   1.953   6.124  1.0702  1.7439  1.0756
11218SOL    HW236193   4.177   2.072   6.031  2.9962  0.5994 -0.4943
11219SOL     OW36194   6.255   3.033   5.146  0.1855 -0.3297  0.2562
11219SOL    HW136195   6.322   3.091   5.180 -0.4266 -0.8557  2.4299
11219SOL    HW236196   6.175   3.086   5.146  0.0922 -0.4682  0.0592
11220SOL     OW36197   5.703   7.701   5.462  0.0736 -0.1354  0.0112
11220SOL    HW136198   5.613   7.732   5.472 -0.3177 -0.6491 -1.8110
11220SOL    HW236199   5.751   7.775   5.426  0.3566  0.0932  0.8501
11221SOL     OW36200   1.615   4.545   6.677 -0.2135 -0.3157  0.1607
11221SOL    HW136201   1.590   4.510   6.592  0.5029 -0.2325 -0.0880
11221SOL    HW236202   1.673   4.479   6.715  0.0680 -0.0155  0.2607
11222SOL     OW36203   9.599   4.352  10.141 -0.3750 -0.7854  0.0802
11222SOL    HW136204   9.633   4.298  10.212 -1.0522 -2.5915 -0.9445
11222SOL    HW236205   9.505   4.336  10.141 -0.9644  2.1820  1.2148
11223SOL     OW36206   1.190   5.852   2.207 -0.1614 -0.4760  0.0083
11223SOL    HW136207   1.204   5.776   2.150  3.7955 -0.6292  1.0419
11223SOL    HW236208   1.191   5.815   2.296  0.7260  0.6382  0.4677
11224SOL     OW36209   0.813   9.958   5.355  0.4175 -0.6461  0.3537
11224SOL    HW136210   0.771   9.950   5.441 -1.6008  0.9060 -0.4213
11224SOL    HW236211   0.762   9.900   5.298  0.2972  0.0579 -0.2685
11225SOL     OW36212   0.744   1.117   5.036 -0.2824  0.1624  0.2248
11225SOL    HW136213   0.795   1.182   4.986 -0.5823  0.3272  0.1347
11225SOL    HW236214   0.754   1.036   4.987 -2.4722  0.8137 -1.3873
11226SOL     OW36215   6.075   5.551   9.974  0.8265  0.0884 -0.2935
11226SOL    HW136216   6.033   5.475  10.015 -0.2155  0.9527  0.2768
11226SOL    HW236217   6.136   5.583  10.041 -1.4998  2.0208  1.0055
11227SOL     OW36218   0.183   4.359   9.102  0.2314 -0.0258  0.7575
11227SOL    HW136219   0.246   4.406   9.048  1.8528 -1.5471  1.2944
11227SOL    HW236220   0.163   4.420   9.173  0.4484  0.7738  0.1505
11228SOL     OW36221   8.450   9.505   2.608  0.4528  0.0413  0.0730
11228SOL    HW136222   8.482   9.550   2.686 -0.8449  3.3553 -1.2027
11228SOL    HW236223   8.355   9.503   2.619  0.2747  0.4341 -1.3419
11229SOL     OW36224   6.176   2.353   0.429 -0.4698 -0.5056  0.0254
11229SOL    HW136225   6.117   2.425   0.451  0.8680  0.3209  0.9958
11229SOL    HW236226   6.120   2.287   0.390 -1.6331  1.2578 -1.3210
11230SOL     OW36227   6.904   9.558   5.654 -0.0445 -0.5850 -0.1826
11230SOL    HW136228   6.965   9.515   5.595 -0.7344 -0.1356 -1.2423
11230SOL    HW236229   6.819   9.550   5.611 -0.8219 -1.5714  1.4729
11231SOL     OW36230   9.487   3.485   6.194 -0.3974  0.0870  0.0109
11231SOL    HW136231   9.405   3.438   6.209 -0.6576  1.3456  2.8513
11231SOL    HW236232   9.491   3.497   6.099 -3.1510 -0.5904 -0.2271
11232SOL     OW36233   0.859   6.435   1.463  0.4406 -0.1890 -0.2652
11232SOL    HW136234   0.851   6.523   1.426 -0.0046  0.3799  1.1845
11232SOL    HW236235   0.879   6.448   1.555  1.4276 -1.6114 -0.2531
11233SOL     OW36236   3.138   4.245   7.669 -0.0689 -0.0503 -0.2049
11233SOL    HW136237   3.194   4.168   7.674 -0.4964 -0.2990  0.8371
11233SOL    HW236238   3.073   4.224   7.601 -0.8197 -1.0312  0.8032
11234SOL     OW36239   6.712   2.640   5.648  0.2816 -0.0568  0.5384
11234SOL    HW136240   6.747   2.683   5.726  0.8994  0.3759  0.0240
11234SOL    HW236241   6.688   2.552   5.678  2.0503 -0.4533  0.8374
11235SOL     OW36242   9.927   5.649   2.086  0.2227  0.1326  0.5438
11235SOL    HW136243   9.913   5.555   2.096 -0.1415  0.0637 -0.5612
11235SOL    HW236244   9.985   5.657   2.011  1.0769  0.7450  1.2575
11236SOL     OW36245   3.616   1.362   2.709  0.1926 -0.0732  0.2167
11236SOL    HW136246   3.706   1.386   2.731 -0.5687  2.0789  1.0982
11236SOL    HW236247   3.579   1.442   2.673 -1.9411 -0.4202  1.6038
11237SOL     OW36248   6.798   9.367   9.052 -0.0026 -0.2058 -0.0976
11237SOL    HW136249   6.728   9.396   8.994 -1.4949 -0.7125  1.3722
11237SOL    HW236250   6.873   9.422   9.030  0.0824 -1.7079 -3.8055
11238SOL     OW36251   1.588   8.034   5.930  0.1488 -0.1797  0.0197
11238SOL    HW136252   1.579   7.975   6.004  0.4243 -0.2479  0.0023
11238SOL    HW236253   1.650   7.990   5.871 -0.9134 -0.6375 -0.7620
11239SOL     OW36254   2.437   3.352   6.545 -0.0095  0.4865  0.3148
11239SOL    HW136255   2.412   3.440   6.571 -2.7296 -0.0825 -0.1852
11239SOL    HW236256   2.413   3.346   6.452 -1.8085 -1.3976  0.8578
11240SOL     OW36257   6.506   2.261   5.455  0.4170 -0.1511  0.1221
11240SOL    HW136258   6.581   2.319   5.466 -0.3370  0.6781  0.8874
11240SOL    HW236259   6.434   2.318   5.429  0.1181 -0.9918 -0.9915
11241SOL     OW36260   3.832   6.021   3.140  0.3003 -0.4691  0.1740
11241SOL    HW136261   3.860   6.084   3.207 -0.8644  0.0776  0.1651
11241SOL    HW236262   3.758   6.064   3.097 -0.7242 -1.9925  0.3957
11242SOL     OW36263   6.248   1.772   5.311  0.3759 -0.4888 -0.3233
11242SOL    HW136264   6.229   1.866   5.305  1.1929 -0.3355 -0.5409
11242SOL    HW236265   6.315   1.757   5.244 -0.5032 -1.4238 -1.0104
11243SOL     OW36266   1.765   1.367   6.462 -0.1507  0.2815  0.4026
11243SOL    HW136267   1.751   1.272   6.465 -1.0985  0.4103  0.1769
11243SOL    HW236268   1.837   1.382   6.524 -0.3271 -0.5224  0.8150
11244SOL     OW36269   8.326   1.407   6.994 -0.7993  0.5008  0.7601
11244SOL    HW136270   8.284   1.321   6.993  0.2093 -0.0121  0.5754
11244SOL    HW236271   8.334   1.429   7.087 -0.0036 -0.1648  0.8678
11245SOL     OW36272   8.461   7.844   6.634  0.2476  0.0006 -0.2062
11245SOL    HW136273   8.505   7.867   6.716  1.3362 -0.9717 -0.5106
11245SOL    HW236274   8.438   7.928   6.595  0.7879  0.4900  0.5230
11246SOL     OW36275   9.773   2.398   8.176 -0.2623  0.5977 -0.0415
11246SOL    HW136276   9.844   2.373   8.116  0.2239  1.3380  0.2228
11246SOL    HW236277   9.762   2.321   8.232 -0.6535 -0.0641 -1.0103
11247SOL     OW36278   6.974   8.041   8.909 -0.8113 -0.2187  0.3855
11247SOL    HW136279   7.033   8.034   8.984 -0.3275  2.3692  0.3183
11247SOL    HW236280   6.912   7.970   8.919  0.7352 -1.3823  1.9074
11248SOL     OW36281   9.811   7.870   0.434  0.4987 -0.5543 -0.2986
11248SOL    HW136282   9.818   7.812   0.358  1.7366 -1.8918  0.8020
11248SOL    HW236283   9.731   7.921   0.418  0.0542 -1.7008 -1.8808
11249SOL     OW36284   6.715   3.764   6.196 -0.7415  0.1972  0.0500
11249SOL    HW136285   6.740   3.717   6.276  0.1184 -0.1932 -0.4483
11249SOL    HW236286   6.645   3.711   6.158  0.4358 -0.8471 -0.6720
11250SOL     OW36287   9.602   9.127   1.007 -0.0511 -0.5052  0.4795
11250SOL    HW136288   9.693   9.128   0.979 -0.4491 -1.8393 -0.8999
11250SOL    HW236289   9.596   9.053   1.068 -0.5809 -1.5044 -0.7628
11251SOL     OW36290   7.324   1.384   4.513 -0.2879 -0.1560  0.2745
11251SOL    HW136291   7.319   1.391   4.418 -0.6479 -0.0862  0.2975
11251SOL    HW236292   7.291   1.297   4.533  1.8766 -1.0106  0.1770
11252SOL     OW36293   6.114   7.795   7.641 -0.4620  0.0288  0.4266
11252SOL    HW136294   6.053   7.853   7.686  0.3126  0.1254  1.3686
11252SOL    HW236295   6.100   7.709   7.682 -0.9490 -0.2549 -0.3214
11253SOL     OW36296   4.480   5.289   8.735 -0.6832  0.0448 -0.1888
11253SOL    HW136297   4.402   5.250   8.773 -1.3818  1.2289 -0.3844
11253SOL    HW236298   4.484   5.253   8.646  0.0811 -1.5146  0.4746
11254SOL     OW36299   4.857   9.945   8.361 -1.3803  0.3267 -0.2815
11254SOL    HW136300   4.896   9.994   8.432 -0.2078 -1.0675  0.0739
11254SOL    HW236301   4.792  10.004   8.323  0.2525  2.2619 -0.1230
11255SOL     OW36302   1.258   1.631   9.411  0.1404  0.3068  0.2023
11255SOL    HW136303   1.326   1.687   9.374  1.3678 -1.5950 -0.4876
11255SOL    HW236304   1.297   1.544   9.414 -2.4971 -0.9934 -0.8975
11256SOL     OW36305   0.408   1.407  10.174 -0.0754 -0.1430  0.3991
11256SOL    HW136306   0.370   1.449  10.251  0.6516 -1.1430  1.3194
11256SOL    HW236307   0.367   1.321  10.170  0.1326 -0.2192 -0.1359
11257SOL     OW36308   6.984   1.750   7.772 -0.1362  0.1797 -0.3606
11257SOL    HW136309   7.038   1.692   7.827 -2.1199 -0.9929  0.3903
11257SOL    HW236310   7.005   1.838   7.802  2.2669 -0.1667 -0.9105
11258SOL     OW36311   8.267   4.754   4.880  0.0537 -0.1078  0.1274
11258SOL    HW136312   8.321   4.767   4.802  0.6158 -0.6753  0.4137
11258SOL    HW236313   8.321   4.786   4.952 -0.4390  0.3480  0.2872
11259SOL     OW36314   7.147   8.445   8.319 -0.4334 -0.6325  0.4209
11259SOL    HW136315   7.054   8.449   8.343  0.0967 -3.1299  3.1331
11259SOL    HW236316   7.193   8.450   8.402  1.8932  0.1835 -0.8811
11260SOL     OW36317   7.985  10.143   6.076 -0.0853  0.1170 -0.1188
11260SOL    HW136318   8.027  10.124   6.160  1.2756 -1.2870 -1.1045
11260SOL    HW236319   8.007  10.069   6.020 -0.5059  1.2986 -1.9015
11261SOL     OW36320   6.640   1.436   7.157  0.0449  0.2980  0.0718
11261SOL    HW136321   6.662   1.482   7.238 -0.3838  0.4227  0.1144
11261SOL    HW236322   6.662   1.498   7.087 -0.7845  0.6620  0.1394
11262SOL     OW36323   8.446   3.152   0.810  0.7394 -0.3884 -0.0006
11262SOL    HW136324   8.486   3.192   0.887  1.7584 -1.9996  0.3175
11262SOL    HW236325   8.510   3.087   0.780  0.1394 -0.1466 -1.8992
11263SOL     OW36326   8.101   3.553   2.463 -0.1799 -0.3108 -0.3122
11263SOL    HW136327   8.074   3.483   2.403  0.9401 -1.5033  0.5567
11263SOL    HW236328   8.079   3.633   2.416 -0.2120 -1.2263 -1.9212
11264SOL     OW36329   3.522   5.892   0.737 -0.3008  0.3822 -0.2736
11264SOL    HW136330   3.578   5.843   0.678  2.1101 -0.8852  2.9127
11264SOL    HW236331   3.445   5.837   0.749  0.6290 -0.8330  0.2022
11265SOL     OW36332   6.280   4.067   9.137  0.1756 -0.7331 -0.2684
11265SOL    HW136333   6.239   4.105   9.059  0.7840  2.7604  1.0013
11265SOL    HW236334   6.374   4.069   9.118  0.3668  0.6555  0.7134
11266SOL     OW36335   2.866   7.346   1.794 -0.4053 -0.0793  0.5380
11266SOL    HW136336   2.846   7.252   1.788 -2.8669  0.4340 -0.1050
11266SOL    HW236337   2.822   7.384   1.719 -0.3096  1.7301  1.3816
11267SOL     OW36338   0.378   8.910   9.241  0.5314  0.0320 -0.2787
11267SOL    HW136339   0.417   8.971   9.178 -1.0268  0.6165 -0.7003
11267SOL    HW236340   0.324   8.965   9.297 -0.6006 -0.9044 -0.4335
11268SOL     OW36341   7.978  10.012   8.731  0.2223 -0.1391  0.3230
11268SOL    HW136342   8.008   9.922   8.719 -1.3835 -1.0323  2.6501
11268SOL    HW236343   7.964  10.044   8.642 -0.1599 -2.5329 -0.5283
11269SOL     OW36344   6.717   6.569   6.426  0.2875 -0.2432  0.1017
11269SOL    HW136345   6.664   6.577   6.505 -1.6165 -1.8257 -0.9602
11269SOL    HW236346   6.694   6.646   6.374  1.7731  0.9572  1.2047
11270SOL     OW36347   7.894   2.814   6.099  0.2187  0.2920 -0.1476
11270SOL    HW136348   7.852   2.737   6.059 -0.1627  0.2178  0.3779
11270SOL    HW236349   7.848   2.824   6.183  0.1901  1.1662 -0.2656
11271SOL     OW36350   1.110   7.080   2.676  0.2262  0.2955 -0.2537
11271SOL    HW136351   1.077   6.990   2.681 -1.3453  0.7093 -2.4550
11271SOL    HW236352   1.204   7.071   2.687  0.3314 -1.8671 -2.5311
11272SOL     OW36353   7.236   0.944   3.340  0.5441 -0.3171  0.5902
11272SOL    HW136354   7.330   0.945   3.355  0.5083 -0.8073  0.8609
11272SOL    HW236355   7.202   1.015   3.394  0.9965  1.2979 -1.1940
11273SOL     OW36356   9.198   6.166   3.745 -0.0872 -0.6514  0.1384
11273SOL    HW136357   9.212   6.200   3.656 -0.5209 -1.5361 -0.2799
11273SOL    HW236358   9.132   6.224   3.782  3.1258  2.3256  1.4173
11274SOL     OW36359   4.518   8.926   0.463  0.6624 -0.0929  0.8038
11274SOL    HW136360   4.463   8.952   0.388 -1.2155 -1.8688  1.5227
11274SOL    HW236361   4.456   8.913   0.535  2.0339 -1.9397  1.6963
11275SOL     OW36362   9.924   5.491   3.477 -0.0045 -0.4050  0.1005
11275SOL    HW136363   9.890   5.445   3.554 -0.0771  0.4513  0.5919
11275SOL    HW236364   9.971   5.566   3.513 -0.1179  0.0547 -0.6915
11276SOL     OW36365   5.606   7.416   7.596 -0.3880  0.3361 -0.0174
11276SOL    HW136366   5.610   7.376   7.509 -0.5658 -1.6328  0.8667
11276SOL    HW236367   5.513   7.432   7.611 -0.3550  0.7000 -0.1971
11277SOL     OW36368   7.032   0.204   7.938  0.1173  0.7098 -0.3028
11277SOL    HW136369   7.049   0.118   7.976 -2.1363  0.7042  0.7234
11277SOL    HW236370   7.077   0.265   7.997 -0.7721  0.4592  0.6437
11278SOL     OW36371   9.038   0.658  10.104 -0.2349  0.2221  0.3549
11278SOL    HW136372   8.943   0.658  10.116 -0.1731  1.9583  1.0762
11278SOL    HW236373   9.056   0.582  10.048 -1.8392 -1.2149  1.7263
11279SOL     OW36374   8.178   7.967   6.273  0.1645  0.4137  0.3938
11279SOL    HW136375   8.214   8.055   6.258 -0.4521  0.8939  1.6578
11279SOL    HW236376   8.084   7.977   6.258 -0.0032  0.1302  1.2692
11280SOL     OW36377   9.175   3.583   5.870  0.1445  0.3732  0.2425
11280SOL    HW136378   9.140   3.636   5.798 -1.6981 -2.6962 -1.2035
11280SOL    HW236379   9.110   3.592   5.940 -0.5578 -0.5134 -0.2761
11281SOL     OW36380   9.722   8.213   4.541 -0.9012  0.2957  0.3065
11281SOL    HW136381   9.754   8.138   4.591 -0.7512 -0.2841 -0.6371
11281SOL    HW236382   9.784   8.284   4.561 -1.4751  0.3891  1.7835
11282SOL     OW36383   7.494   3.705   2.193  0.2900  0.1813  0.0047
11282SOL    HW136384   7.539   3.790   2.197 -1.2212  0.9843  0.3235
11282SOL    HW236385   7.558   3.642   2.227  0.9321  1.3934  1.0925
11283SOL     OW36386   3.617   0.770   0.601 -0.0401  0.7923  0.2799
11283SOL    HW136387   3.591   0.724   0.681 -0.2825 -1.5745 -1.1185
11283SOL    HW236388   3.712   0.780   0.608  0.2137 -1.2018 -0.0184
11284SOL     OW36389   2.242   6.686   6.891  0.4511 -0.0026 -0.4117
11284SOL    HW136390   2.310   6.744   6.925  0.1516  1.2524 -1.8721
11284SOL    HW236391   2.287   6.604   6.870  1.0590  0.0217  0.8010
11285SOL     OW36392   7.977   7.218   0.485 -0.5564  0.5653  0.1609
11285SOL    HW136393   7.994   7.274   0.409  0.9493  0.3413  0.3121
11285SOL    HW236394   7.891   7.181   0.468 -0.9104  1.7403 -0.6761
11286SOL     OW36395   5.932   6.601   6.337  0.1577 -0.8580  0.2723
11286SOL    HW136396   5.983   6.525   6.365  0.2743 -1.4083 -1.3926
11286SOL    HW236397   5.978   6.633   6.259 -0.4598  0.3268  0.3851
11287SOL     OW36398   7.617   8.029   7.130 -0.0986 -0.6046  0.6789
11287SOL    HW136399   7.590   7.946   7.091 -2.5942  1.3425 -2.0125
11287SOL    HW236400   7.708   8.040   7.105 -1.2204 -0.1011 -3.6492
11288SOL     OW36401   2.601   9.101   3.725  0.0354 -0.1222  0.1871
11288SOL    HW136402   2.677   9.157   3.733 -0.4827  0.5694  0.3466
11288SOL    HW236403   2.563   9.123   3.640  0.6826 -1.3215 -0.4286
11289SOL     OW36404   8.234   9.508   9.019 -0.4531 -0.0829  0.1686
11289SOL    HW136405   8.315   9.549   8.988 -0.8707 -0.1000 -0.9343
11289SOL    HW236406   8.188   9.579   9.065 -0.4642  0.2848 -0.4107
11290SOL     OW36407   6.533   9.426   6.387  0.4366  0.0144 -0.2509
11290SOL    HW136408   6.478   9.504   6.394  0.0227 -0.2834 -0.0749
11290SOL    HW236409   6.613   9.448   6.433  0.5155  0.5080 -0.6286
11291SOL     OW36410   1.820   1.638   4.455  0.0234 -0.2387  0.5556
11291SOL    HW136411   1.809   1.544   4.473  1.5457 -0.5350 -0.0094
11291SOL    HW236412   1.751   1.680   4.507 -1.1569 -1.7175  0.2433
11292SOL     OW36413   2.438   6.126   8.643  0.5276 -0.2381  0.1287
11292SOL    HW136414   2.410   6.034   8.642  2.0365 -0.7034 -1.0845
11292SOL    HW236415   2.443   6.148   8.736 -3.0286 -0.3510  0.4340
11293SOL     OW36416   5.861   2.027   7.470  0.2059  0.2011 -0.2820
11293SOL    HW136417   5.886   1.936   7.453 -0.6627 -0.4771  1.8312
11293SOL    HW236418   5.926   2.079   7.425  1.7434 -1.4925 -0.0820
11294SOL     OW36419   0.824   4.239   7.510  0.3220 -0.0688  0.0440
11294SOL    HW136420   0.911   4.267   7.539  0.9023 -0.5158 -1.2480
11294SOL    HW236421   0.840   4.171   7.446 -1.0462 -1.6252  1.3126
11295SOL     OW36422   1.670   7.624   0.294 -0.2016  1.0098 -0.0866
11295SOL    HW136423   1.718   7.666   0.222 -1.1571  0.0408 -1.3116
11295SOL    HW236424   1.582   7.660   0.288 -0.1217  1.4172  1.0252
11296SOL     OW36425   8.781   2.284   9.284  0.5818 -0.3166 -0.1191
11296SOL    HW136426   8.787   2.319   9.195 -0.0314 -0.0584 -0.0582
11296SOL    HW236427   8.822   2.198   9.278  1.6395  0.1954 -0.3782
11297SOL     OW36428   1.646   6.222   8.915  0.0245 -0.6135 -0.3612
11297SOL    HW136429   1.560   6.246   8.881  1.2330  0.1570 -2.9558
11297SOL    HW236430   1.695   6.193   8.838  2.1833 -0.7697  1.0422
11298SOL     OW36431   9.077   2.111   9.865  0.1515 -0.0138  0.4879
11298SOL    HW136432   9.049   2.116   9.957 -4.3694  0.0807 -0.7781
11298SOL    HW236433   9.092   2.018   9.850  0.2711 -0.1061  1.1409
11299SOL     OW36434   0.024   8.209   4.030  0.6043  0.2286 -0.1002
11299SOL    HW136435   0.035   8.175   4.118 -1.2914 -0.5275 -0.1435
11299SOL    HW236436   0.054   8.138   3.973 -3.1999 -1.3984 -0.1860
11300SOL     OW36437  10.108   0.966   7.700  0.1111  0.2660 -0.4223
11300SOL    HW136438  10.066   0.903   7.758 -1.3175  0.0560 -1.6689
11300SOL    HW236439  10.202   0.945   7.706  0.0166  0.4317  1.9890
11301SOL     OW36440   0.602   0.024   5.042 -0.3895  0.5498  0.0515
11301SOL    HW136441   0.680  -0.031   5.052 -0.4722  0.3939 -0.1817
11301SOL    HW236442   0.633   0.101   4.994 -1.1788 -1.2392 -3.4865
11302SOL     OW36443   3.657   9.785   6.880 -0.5065 -0.0713  0.1390
11302SOL    HW136444   3.722   9.773   6.811  0.1328  1.2236  0.5165
11302SOL    HW236445   3.573   9.789   6.833 -0.3585 -1.8754 -0.3338
11303SOL     OW36446   9.481   3.734   7.715  0.0623 -0.1224 -0.6514
11303SOL    HW136447   9.424   3.804   7.748  0.5509 -0.9137  1.9307
11303SOL    HW236448   9.423   3.681   7.659 -1.2660  0.1968  0.3916
11304SOL     OW36449   0.956   6.924   4.709  0.2950 -0.1008 -0.3697
11304SOL    HW136450   0.917   6.913   4.796  0.9689 -1.6897 -0.2601
11304SOL    HW236451   1.045   6.955   4.726  0.1041  0.5586 -0.5355
11305SOL     OW36452   0.358   2.479   4.843  0.2296  0.2632 -0.4682
11305SOL    HW136453   0.441   2.431   4.832 -0.0332 -0.0644 -1.0494
11305SOL    HW236454   0.295   2.428   4.792  0.0078  1.3996 -1.3331
11306SOL     OW36455  10.063   5.704   5.601  0.2695  0.1956  0.2292
11306SOL    HW136456  10.142   5.650   5.607  1.0433  1.1928 -0.8844
11306SOL    HW236457  10.078   5.773   5.665 -0.6238 -0.7608  1.4946
11307SOL     OW36458   8.173   0.771   9.937 -0.3447  0.4516 -0.3584
11307SOL    HW136459   8.112   0.705   9.970  0.4592  0.0218  0.2931
11307SOL    HW236460   8.224   0.797  10.013  1.0032  0.0222 -1.0881
11308SOL     OW36461   4.597  10.003  10.184 -0.1276 -0.3009  0.0850
11308SOL    HW136462   4.633  10.086  10.214 -1.7107 -0.0806  1.4614
11308SOL    HW236463   4.636   9.937  10.242  0.0828 -0.3742 -0.1364
11309SOL     OW36464   0.997   5.092   3.083  0.3431 -0.3043 -0.1336
11309SOL    HW136465   0.904   5.071   3.082  0.3914 -0.5861  0.9625
11309SOL    HW236466   1.035   5.038   3.015  0.3052 -3.0124  1.9306
11310SOL     OW36467  10.173   5.979   8.398  0.2302 -0.2921  0.2432
11310SOL    HW136468  10.247   5.931   8.361  0.5873  0.1796  0.3377
11310SOL    HW236469  10.142   6.035   8.327  1.5771  1.3949  0.9260
11311SOL     OW36470   3.270   9.084   4.032 -0.0732  0.1754 -0.0038
11311SOL    HW136471   3.244   9.175   4.049  0.2855 -0.1527  2.4433
11311SOL    HW236472   3.205   9.031   4.077  0.3733 -0.7684 -0.4498
11312SOL     OW36473   5.954   1.053   7.794  0.0093 -0.4357 -0.1190
11312SOL    HW136474   5.943   1.141   7.758 -0.4287 -0.3392  0.2468
11312SOL    HW236475   5.931   1.062   7.887  1.8357 -0.5295  0.3526
11313SOL     OW36476   5.936   0.520   4.896 -0.5090  0.1386  0.3713
11313SOL    HW136477   5.944   0.461   4.971 -1.6903 -0.9045 -0.3108
11313SOL    HW236478   5.899   0.466   4.826 -1.2682  1.5812 -0.3744
11314SOL     OW36479   8.245   9.352   9.838 -0.0602 -0.9672  0.7169
11314SOL    HW136480   8.324   9.400   9.864 -0.3136  0.9030 -1.8313
11314SOL    HW236481   8.278   9.277   9.788  0.0963 -0.2141 -0.3061
11315SOL     OW36482   8.429   6.383   9.708 -0.2898 -0.5859 -0.4916
11315SOL    HW136483   8.478   6.385   9.790  2.4267  0.0906 -2.0772
11315SOL    HW236484   8.363   6.452   9.718  0.1236 -0.3798  1.0205
11316SOL     OW36485   1.968   8.262   1.729  0.1553  0.2086  0.0682
11316SOL    HW136486   1.981   8.356   1.723  0.2852  0.3212  1.6943
11316SOL    HW236487   2.056   8.225   1.729  0.0824  0.0151 -1.3864
11317SOL     OW36488   0.824   0.276   3.167 -0.0998 -0.1287  0.2565
11317SOL    HW136489   0.829   0.250   3.075  1.1420 -0.1577  0.3206
11317SOL    HW236490   0.913   0.303   3.189 -0.4967  0.3460  1.3174
11318SOL     OW36491   3.625   4.736   6.264 -0.8028 -0.3260 -0.0496
11318SOL    HW136492   3.558   4.791   6.223  0.0714 -0.1128 -1.2118
11318SOL    HW236493   3.682   4.798   6.309 -0.5213 -0.3828 -0.3286
11319SOL     OW36494   5.308   5.998   8.185 -0.4201  0.6861 -0.4202
11319SOL    HW136495   5.260   5.979   8.266  0.5050 -0.5859 -0.1671
11319SOL    HW236496   5.396   6.019   8.214 -0.2483  0.8625 -1.0621
11320SOL     OW36497   5.560   4.240   7.207 -0.0592  0.2481 -0.2635
11320SOL    HW136498   5.546   4.189   7.127  0.3024 -1.3045  0.6228
11320SOL    HW236499   5.486   4.217   7.263  0.4178  0.2239  0.3661
11321SOL     OW36500   9.373   1.268   2.275 -0.4073 -0.0601  0.2337
11321SOL    HW136501   9.440   1.331   2.249 -1.0259  0.1627 -0.8722
11321SOL    HW236502   9.298   1.290   2.220 -1.2010 -0.6588  1.0761
11322SOL     OW36503   4.284   1.899   2.680 -0.5226  0.0125  0.2785
11322SOL    HW136504   4.217   1.958   2.646  0.1973  0.1874 -0.8994
11322SOL    HW236505   4.362   1.921   2.629  1.0571  1.4143  3.2067
11323SOL     OW36506   6.529   8.432   4.575 -0.2404 -0.2576 -0.1506
11323SOL    HW136507   6.526   8.341   4.603 -0.7978 -0.3441 -0.4739
11323SOL    HW236508   6.580   8.431   4.494 -0.9626 -0.4098 -0.6091
11324SOL     OW36509   7.826   7.613   0.419  0.1772 -0.0913 -0.0593
11324SOL    HW136510   7.869   7.669   0.484  1.0776  0.1134 -0.8243
11324SOL    HW236511   7.794   7.538   0.469  1.6459 -0.3668  0.4758
11325SOL     OW36512   5.225   3.121   0.173 -0.2953  0.1553  0.1792
11325SOL    HW136513   5.195   3.137   0.262  0.5122  2.7898  0.0156
11325SOL    HW236514   5.311   3.080   0.183  0.1138  1.1200  0.6161
11326SOL     OW36515   7.442   8.465   3.998 -0.2680 -0.7531  0.1190
11326SOL    HW136516   7.527   8.431   3.971  0.1445 -1.8946  2.7171
11326SOL    HW236517   7.460   8.554   4.028 -0.0235 -0.8880  0.3784
11327SOL     OW36518   4.496   7.657   8.244  0.8683  0.2017 -0.3354
11327SOL    HW136519   4.556   7.582   8.244  0.7473  0.1037 -0.5136
11327SOL    HW236520   4.536   7.720   8.184  1.3846  0.6177  0.4386
11328SOL     OW36521   4.724   0.658   1.236  0.2665 -0.2342  0.4702
11328SOL    HW136522   4.722   0.753   1.224  0.5189  0.1603  3.1721
11328SOL    HW236523   4.792   0.627   1.176  0.1982  1.2932 -0.4083
11329SOL     OW36524   4.267  10.081   2.260  0.4698  0.5315  0.1481
11329SOL    HW136525   4.351  10.091   2.303 -0.3073 -2.3048  2.4926
11329SOL    HW236526   4.268   9.991   2.226 -0.8588  1.1128 -1.4985
11330SOL     OW36527   6.972   9.681   3.242  0.1168 -0.1906 -0.1416
11330SOL    HW136528   7.007   9.709   3.157 -1.3506 -0.2227 -0.7602
11330SOL    HW236529   7.045   9.693   3.303  0.4177  2.1918 -0.9445
11331SOL     OW36530   6.761   7.450   9.614 -0.5552  0.1383  0.0003
11331SOL    HW136531   6.685   7.404   9.579 -0.1579 -1.5320  1.2787
11331SOL    HW236532   6.828   7.439   9.547 -0.8994  0.0997 -0.3400
11332SOL     OW36533   0.208   0.671   8.488  0.7685  0.0603  0.3149
11332SOL    HW136534   0.257   0.601   8.445  0.0247  0.5881 -1.4581
11332SOL    HW236535   0.193   0.735   8.419 -2.0680  0.0887  0.8983
11333SOL     OW36536   1.450   7.403   5.242  0.1687 -0.5481 -0.5231
11333SOL    HW136537   1.524   7.406   5.303 -0.6442 -0.9252  0.4725
11333SOL    HW236538   1.432   7.310   5.230 -0.1365 -0.4569 -0.7818
11334SOL     OW36539   7.234   5.586   2.026 -0.0344  0.0656  0.3939
11334SOL    HW136540   7.286   5.512   1.997 -1.7340 -0.9126 -0.2286
11334SOL    HW236541   7.294   5.638   2.080  2.2176  0.1533 -2.0936
11335SOL     OW36542   4.686   3.895   1.445 -0.3149  0.2181 -0.7243
11335SOL    HW136543   4.742   3.964   1.410 -1.0694  0.2184 -1.9520
11335SOL    HW236544   4.709   3.891   1.538  2.5095 -0.5815 -1.4263
11336SOL     OW36545   2.467   2.032   1.921  0.5647 -0.2028 -0.3771
11336SOL    HW136546   2.540   2.031   1.860  2.4041 -0.4354  1.7448
11336SOL    HW236547   2.478   2.114   1.970 -1.1844  0.2485 -0.7019
11337SOL     OW36548   5.789   3.454   9.217 -0.1569  0.3550  0.0372
11337SOL    HW136549   5.857   3.387   9.226 -1.0126 -0.3730  1.4108
11337SOL    HW236550   5.827   3.533   9.255  0.1601  0.1327  0.1791
11338SOL     OW36551   9.134   4.858   0.182  0.0336  0.0090  0.1222
11338SOL    HW136552   9.224   4.849   0.150  0.0528 -1.0866  0.4894
11338SOL    HW236553   9.082   4.865   0.102  0.6511  2.8794 -0.0890
11339SOL     OW36554   8.444   3.844   9.146  0.3646  0.4226  0.7231
11339SOL    HW136555   8.453   3.749   9.144 -2.9752  0.0442  1.6055
11339SOL    HW236556   8.519   3.874   9.198  0.2956 -1.8830  2.1829
11340SOL     OW36557   0.946   6.712   5.682  0.3079 -0.6022 -0.4021
11340SOL    HW136558   0.964   6.719   5.589 -1.6044 -0.8045 -0.8111
11340SOL    HW236559   1.032   6.701   5.723  1.0579 -1.6467 -2.2294
11341SOL     OW36560   2.028   2.908   7.802  0.0360  0.2442  0.2669
11341SOL    HW136561   1.956   2.936   7.746  0.4471  1.9549  0.5814
11341SOL    HW236562   1.991   2.907   7.891  0.5472  1.6819  0.5029
11342SOL     OW36563   2.926   9.473   7.407 -0.4019  0.1862 -0.0196
11342SOL    HW136564   2.838   9.439   7.391 -0.5167  0.2157  0.5241
11342SOL    HW236565   2.924   9.500   7.499  0.8353 -1.8281  0.6259
11343SOL     OW36566   8.545   5.658   3.294  0.6233 -0.5603 -0.6037
11343SOL    HW136567   8.562   5.752   3.285  1.2781 -0.8394 -2.4903
11343SOL    HW236568   8.460   5.653   3.336  0.7967  0.8852 -0.0638
11344SOL     OW36569   7.313   8.526   6.612 -0.7541 -0.1498 -0.3064
11344SOL    HW136570   7.260   8.447   6.611 -0.3146 -0.4466 -0.3940
11344SOL    HW236571   7.386   8.507   6.553  1.1427 -0.9462  2.1805
11345SOL     OW36572   8.820   8.641   2.087 -0.2551  0.9802  0.0919
11345SOL    HW136573   8.849   8.731   2.072  0.7507  0.5223 -0.7810
11345SOL    HW236574   8.836   8.626   2.180  0.3678  1.4218  0.0603
11346SOL     OW36575   1.660   6.670   1.301 -0.6111 -0.1206  0.1941
11346SOL    HW136576   1.609   6.678   1.381 -1.6280  1.2010 -0.5705
11346SOL    HW236577   1.632   6.586   1.263 -0.8763 -0.2623  0.7024
11347SOL     OW36578   0.196   3.949   6.637 -0.4790  0.5314  0.6184
11347SOL    HW136579   0.270   3.889   6.645 -1.1005 -0.3174  0.0487
11347SOL    HW236580   0.158   3.929   6.552 -2.7699 -0.6529  1.8822
11348SOL     OW36581   2.978   2.888   4.332  0.1516  0.0088  0.2656
11348SOL    HW136582   3.049   2.827   4.314 -0.3355 -0.6558  0.5623
11348SOL    HW236583   3.008   2.972   4.297  0.4077 -0.6186 -1.0480
11349SOL     OW36584   8.860   5.748   9.521  0.4348  0.0597  0.2733
11349SOL    HW136585   8.847   5.834   9.480 -1.0758  0.6767  1.9798
11349SOL    HW236586   8.849   5.765   9.614  0.1727 -1.9905  0.6183
11350SOL     OW36587   9.820   3.579   9.771  0.1472  0.7548  0.2812
11350SOL    HW136588   9.809   3.577   9.676  1.4561  0.4131  0.1251
11350SOL    HW236589   9.827   3.487   9.796  1.0575  0.8941  0.5477
11351SOL     OW36590   6.634   1.561   6.321 -0.3078 -0.4213  0.1129
11351SOL    HW136591   6.584   1.497   6.270 -0.1061 -0.3332 -0.2004
11351SOL    HW236592   6.635   1.525   6.410  0.6713 -1.3801 -0.2689
11352SOL     OW36593   7.309   2.812  10.025  0.0497 -0.5099 -0.1108
11352SOL    HW136594   7.307   2.806   9.930 -1.2412  0.1127 -0.1328
11352SOL    HW236595   7.355   2.894  10.043 -3.2388  1.4650 -0.3129
11353SOL     OW36596   3.204   8.567   2.343  0.0904 -0.2123 -0.0298
11353SOL    HW136597   3.187   8.575   2.436 -0.5322 -0.7899 -0.0865
11353SOL    HW236598   3.136   8.507   2.311  0.0016  0.3650 -0.9408
11354SOL     OW36599   5.897   4.712   4.956  0.2750  0.3813 -0.2703
11354SOL    HW136600   5.919   4.638   4.900 -1.3809  1.1804 -2.0142
11354SOL    HW236601   5.810   4.740   4.928 -0.2806  1.3047  2.1866
11355SOL     OW36602   8.835   2.321   0.541 -0.5629 -0.7727 -0.6696
11355SOL    HW136603   8.770   2.315   0.471  1.3592  2.1987 -2.8345
11355SOL    HW236604   8.846   2.415   0.555 -0.1661 -1.2936  3.0026
11356SOL     OW36605   4.908   6.025   0.460  0.2319  0.1274  0.1306
11356SOL    HW136606   4.826   6.024   0.412  1.6103 -0.2576 -2.3089
11356SOL    HW236607   4.963   5.960   0.415  0.9765 -1.5853  3.3678
11357SOL     OW36608   5.425   8.891   7.370  0.3938  0.0551  0.3590
11357SOL    HW136609   5.364   8.818   7.360  0.8667 -0.0248 -2.5179
11357SOL    HW236610   5.372   8.963   7.405 -1.3930 -0.0404 -1.9966
11358SOL     OW36611   9.805   3.011   0.488 -0.2293  0.3325  0.0087
11358SOL    HW136612   9.900   3.013   0.501 -0.4605  2.4531  1.5172
11358SOL    HW236613   9.778   2.926   0.522  1.0697 -0.1339 -0.0966
11359SOL     OW36614   4.971   9.883   2.989 -0.2915 -0.8037 -0.3702
11359SOL    HW136615   5.045   9.869   3.047 -1.2536 -3.1650  0.3269
11359SOL    HW236616   4.966   9.978   2.979  1.6634 -0.5233  1.0641
11360SOL     OW36617   4.224   9.844   9.760  0.3352  0.1867  0.3150
11360SOL    HW136618   4.137   9.804   9.756  0.6634 -0.4730 -0.3541
11360SOL    HW236619   4.210   9.926   9.807 -1.0239  1.1310 -1.6885
11361SOL     OW36620   6.874   2.640   8.184 -0.5569  0.2414 -0.0643
11361SOL    HW136621   6.859   2.698   8.110 -2.0206 -1.3060 -1.0128
11361SOL    HW236622   6.812   2.669   8.251 -0.2796  0.6794  0.0056
11362SOL     OW36623   8.150   1.275   0.617  0.6996 -0.1662  0.4707
11362SOL    HW136624   8.059   1.300   0.632  0.3418 -1.9399  1.3701
11362SOL    HW236625   8.193   1.356   0.589 -1.0766  0.7538  0.3498
11363SOL     OW36626   3.926   3.456   2.533  0.5880  0.5504  0.6470
11363SOL    HW136627   3.947   3.397   2.606  1.5157  0.8192  0.6017
11363SOL    HW236628   3.842   3.423   2.499  0.1009  0.4807  1.8893
11364SOL     OW36629   8.485  10.103   6.458  0.7073 -0.0840  0.1091
11364SOL    HW136630   8.567  10.056   6.472 -0.3263 -2.0801 -0.4117
11364SOL    HW236631   8.511  10.187   6.419  2.2934 -1.9667 -2.9846
11365SOL     OW36632   5.333   6.682   8.249 -0.3681  0.2906  0.2192
11365SOL    HW136633   5.323   6.776   8.236 -0.4979  0.0219 -1.8312
11365SOL    HW236634   5.428   6.667   8.248 -0.3403  0.4132  0.7436
11366SOL     OW36635   6.560   9.812   8.834  0.2836 -0.6511 -0.3809
11366SOL    HW136636   6.550   9.753   8.759 -0.5038 -0.7750 -0.1747
11366SOL    HW236637   6.643   9.786   8.873 -1.1406 -3.1681  1.0768
11367SOL     OW36638   2.251   4.793   4.850 -0.2065  0.0339  0.1761
11367SOL    HW136639   2.171   4.822   4.807  0.3351  2.0713  0.4848
11367SOL    HW236640   2.289   4.873   4.888  1.1029 -1.1544  1.4668
11368SOL     OW36641   6.107   0.524   5.690 -0.0793 -0.3618  0.7522
11368SOL    HW136642   6.090   0.497   5.780 -2.0798 -0.2918  0.4162
11368SOL    HW236643   6.050   0.468   5.637  0.1004  0.4931 -0.3620
11369SOL     OW36644   2.326   1.014   8.283  0.1589  0.3247 -0.8054
11369SOL    HW136645   2.249   0.957   8.295 -0.6580  1.7382  0.9376
11369SOL    HW236646   2.297   1.079   8.219 -0.3073  1.1750  0.2494
11370SOL     OW36647   7.957   3.973   0.575 -0.1442  1.0379 -0.0527
11370SOL    HW136648   8.006   4.048   0.609 -0.6838  1.5441 -0.3809
11370SOL    HW236649   8.013   3.898   0.592 -0.3927  1.2851  1.9400
11371SOL     OW36650   1.919   4.477   1.169  0.5811  0.0242  0.2865
11371SOL    HW136651   1.919   4.396   1.119  1.0197  0.2556 -0.1023
11371SOL    HW236652   1.926   4.546   1.103 -1.1303  0.4424  0.5347
11372SOL     OW36653  10.084   5.554   3.841  0.1024 -0.5138  0.3125
11372SOL    HW136654  10.035   5.582   3.764  1.5048 -0.4775 -0.5891
11372SOL    HW236655  10.020   5.507   3.895 -1.6583  2.2125  0.6573
11373SOL     OW36656   4.536   5.369   8.997 -0.3316  0.6513 -0.0787
11373SOL    HW136657   4.599   5.441   8.995  1.0371 -0.5203 -0.3369
11373SOL    HW236658   4.507   5.360   8.906 -0.3722  0.7720 -0.0781
11374SOL     OW36659   8.688   9.563   4.771 -0.5184  0.5965 -0.1034
11374SOL    HW136660   8.701   9.627   4.841  0.7551  0.1699  0.0627
11374SOL    HW236661   8.638   9.492   4.811  1.7295 -0.4744  0.8863
11375SOL     OW36662   6.284   4.924   6.819 -0.1206  0.1306 -0.1364
11375SOL    HW136663   6.377   4.926   6.799  0.0237 -1.8440  0.2800
11375SOL    HW236664   6.241   4.939   6.735  0.5611  1.1732 -0.3081
11376SOL     OW36665   7.224   7.701   7.962 -0.4858  0.4092 -0.3574
11376SOL    HW136666   7.221   7.767   8.031 -2.1040  1.3949 -1.3116
11376SOL    HW236667   7.278   7.740   7.893 -0.8257  0.4404 -0.6109
11377SOL     OW36668   6.652   3.201   6.441 -0.4833  0.2361 -0.4509
11377SOL    HW136669   6.560   3.194   6.413 -0.4763  0.7149 -0.6143
11377SOL    HW236670   6.686   3.273   6.388  0.2643 -0.5983 -1.1187
11378SOL     OW36671   7.348   4.142   3.443  0.3480 -0.6141 -0.2146
11378SOL    HW136672   7.265   4.095   3.453 -0.2199  0.4743  0.2441
11378SOL    HW236673   7.407   4.099   3.505 -0.2111 -0.6084  0.3213
11379SOL     OW36674   4.698   8.403   9.651 -0.1887 -0.2682  0.1326
11379SOL    HW136675   4.759   8.395   9.724  0.0328 -0.7962 -0.1068
11379SOL    HW236676   4.658   8.489   9.663 -1.1504 -0.9131  1.6314
11380SOL     OW36677   9.748   8.179   5.018  0.0974  0.1820 -0.1346
11380SOL    HW136678   9.756   8.250   5.081 -0.9700  0.6071 -0.4791
11380SOL    HW236679   9.742   8.100   5.072 -1.3763  0.5929  0.3046
11381SOL     OW36680   0.352   0.252   3.203  0.0036 -0.3743 -0.2644
11381SOL    HW136681   0.379   0.254   3.111  1.6828 -0.5045  0.1972
11381SOL    HW236682   0.431   0.279   3.251 -0.8095 -0.4629  1.1419
11382SOL     OW36683   0.647   5.883   8.436 -0.1717 -0.1058 -0.6171
11382SOL    HW136684   0.685   5.798   8.413  0.3626 -0.4287  1.3377
11382SOL    HW236685   0.716   5.927   8.486 -0.6314  1.2789 -1.1770
11383SOL     OW36686   9.970   0.837   1.165 -0.1790  0.3042  0.5057
11383SOL    HW136687  10.022   0.761   1.192  1.0304  1.5631  1.8546
11383SOL    HW236688  10.029   0.912   1.179 -1.7600  1.5945  0.3852
11384SOL     OW36689   3.281   4.636   9.395 -0.4243 -0.2802 -0.0191
11384SOL    HW136690   3.362   4.657   9.347 -1.2939  0.8654 -1.0206
11384SOL    HW236691   3.303   4.655   9.487  0.8538 -1.2588 -0.1044
11385SOL     OW36692   1.955   0.491   0.629  0.1936  0.5499  0.0738
11385SOL    HW136693   1.934   0.409   0.674 -1.0981 -0.0492 -1.5557
11385SOL    HW236694   1.961   0.556   0.699  2.2373 -1.1011  1.4868
11386SOL     OW36695   4.812   5.778   1.220  0.1195  0.4496  0.1777
11386SOL    HW136696   4.807   5.718   1.145  1.5329  0.2711  0.2231
11386SOL    HW236697   4.773   5.730   1.292 -2.6889  1.1864 -0.7832
11387SOL     OW36698   8.138   2.945   1.657 -0.1586  0.2530 -0.6156
11387SOL    HW136699   8.194   3.022   1.669  0.7416 -0.3201 -1.0509
11387SOL    HW236700   8.175   2.879   1.717 -0.6978  0.0437 -0.5116
11388SOL     OW36701   0.132   8.034   3.207 -0.5511 -0.8726 -0.2177
11388SOL    HW136702   0.206   7.981   3.236  0.2334  0.2351 -0.2173
11388SOL    HW236703   0.153   8.058   3.117 -0.6935 -0.1507 -0.0545
11389SOL     OW36704   4.169   6.377   5.001  0.1937 -0.5822  0.0518
11389SOL    HW136705   4.116   6.437   4.949 -0.3372 -2.6327 -1.8696
11389SOL    HW236706   4.251   6.424   5.016 -0.3148  0.7293 -1.1630
11390SOL     OW36707   9.752   9.839   9.671  0.1747 -0.2981 -0.9352
11390SOL    HW136708   9.766   9.780   9.745  1.9169 -0.0708 -1.0654
11390SOL    HW236709   9.657   9.844   9.662 -0.1239  0.5141  1.9891
11391SOL     OW36710   9.159   9.705   8.019 -0.1181  0.3432 -0.0315
11391SOL    HW136711   9.095   9.752   8.072 -0.8694 -1.8782  1.0823
11391SOL    HW236712   9.244   9.736   8.050 -0.5961  0.5310  1.0929
11392SOL     OW36713   1.995   5.516   3.249 -0.0528  0.2588 -0.1463
11392SOL    HW136714   1.926   5.481   3.306  0.3211  0.8475  0.6915
11392SOL    HW236715   2.062   5.448   3.249 -0.6772 -0.3680 -1.0646
11393SOL     OW36716   6.806   3.069   8.065 -0.5925 -0.4999  0.1407
11393SOL    HW136717   6.776   3.000   8.007 -1.2286 -1.1823  1.2660
11393SOL    HW236718   6.788   3.036   8.153  1.5567 -0.0315  0.7737
11394SOL     OW36719   2.584   1.199   4.206  0.8482  0.5805 -0.1023
11394SOL    HW136720   2.505   1.194   4.259  1.7571  1.1857  1.3274
11394SOL    HW236721   2.646   1.140   4.248  1.4677  0.8044 -0.6774
11395SOL     OW36722   3.038   8.481   6.527  0.0177  0.1303 -0.0425
11395SOL    HW136723   3.082   8.563   6.504  2.1560 -0.8228  0.5626
11395SOL    HW236724   3.007   8.446   6.443  0.4466  0.7830 -0.4763
11396SOL     OW36725   3.322   0.128   6.666 -0.0385 -0.0384 -0.2488
11396SOL    HW136726   3.376   0.074   6.609  0.8603 -0.2171  0.7594
11396SOL    HW236727   3.266   0.178   6.606  0.7964 -0.3173 -1.2778
11397SOL     OW36728   4.193   1.192   4.425  0.1992  0.2103 -0.2338
11397SOL    HW136729   4.183   1.098   4.405  1.2692 -0.3329  1.6897
11397SOL    HW236730   4.105   1.220   4.450 -0.1263 -0.2746 -0.8183
11398SOL     OW36731   1.882   8.045   3.026  0.2844  0.1115 -0.1330
11398SOL    HW136732   1.823   8.002   2.963 -0.2569  2.0581 -1.0072
11398SOL    HW236733   1.828   8.061   3.103  0.1888  0.2032 -0.2192
11399SOL     OW36734   6.177   2.906   1.615  0.3900 -0.0906  0.0244
11399SOL    HW136735   6.158   2.902   1.709  0.1553  0.5172  0.0014
11399SOL    HW236736   6.272   2.895   1.610  0.4176  0.0014  0.3378
11400SOL     OW36737   8.713   9.478   5.138  0.1229  0.5299  0.4097
11400SOL    HW136738   8.657   9.539   5.089  0.9054  1.4508  0.6338
11400SOL    HW236739   8.662   9.457   5.217 -1.1055 -0.8954 -0.7301
11401SOL     OW36740   0.720   6.348   1.832 -0.0433 -0.2602  0.0806
11401SOL    HW136741   0.790   6.285   1.851  0.9256  1.4733  2.6461
11401SOL    HW236742   0.762   6.414   1.776  0.7201  1.2401  2.3199
11402SOL     OW36743   0.862   2.073   1.323  0.0649  0.0357 -0.1943
11402SOL    HW136744   0.857   2.168   1.336 -0.3155 -0.0810  0.5397
11402SOL    HW236745   0.942   2.060   1.273 -1.8661  1.1109 -3.7623
11403SOL     OW36746   6.702   4.693   6.008  0.2269 -0.2575 -0.5277
11403SOL    HW136747   6.777   4.642   5.976  1.3380 -0.6648  2.5635
11403SOL    HW236748   6.729   4.722   6.095 -3.6132 -1.2556  1.0546
11404SOL     OW36749   4.060   4.660   2.184 -0.2873 -0.2767 -0.0597
11404SOL    HW136750   3.992   4.721   2.213  1.4416  1.7661 -0.1933
11404SOL    HW236751   4.081   4.687   2.095  0.9612 -0.6488  0.1030
11405SOL     OW36752   7.132   4.073   1.001  0.2116  0.3838  0.0281
11405SOL    HW136753   7.147   4.166   1.017 -0.5528  0.9519 -2.2445
11405SOL    HW236754   7.123   4.035   1.088 -0.1371  2.5539  0.9903
11406SOL     OW36755   5.563   9.139   0.572 -0.2485 -0.4856 -0.1922
11406SOL    HW136756   5.571   9.045   0.555 -2.2642 -0.3981 -1.8327
11406SOL    HW236757   5.487   9.147   0.629  0.0062  0.1235  0.0657
11407SOL     OW36758   1.828   6.815   4.401  0.1622  0.3003 -0.1841
11407SOL    HW136759   1.842   6.825   4.495  0.5976  1.8511 -0.3978
11407SOL    HW236760   1.780   6.895   4.376 -1.9881 -1.1645 -0.8771
11408SOL     OW36761   0.571   5.315   3.465  0.1796  0.3226  0.1810
11408SOL    HW136762   0.640   5.252   3.485 -0.1182 -0.1697 -0.3339
11408SOL    HW236763   0.595   5.394   3.515 -0.7256 -0.9701  2.7468
11409SOL     OW36764   7.886   0.440   7.529 -0.0247 -0.3101 -0.1024
11409SOL    HW136765   7.932   0.447   7.613 -0.3523 -1.5553  0.2042
11409SOL    HW236766   7.848   0.526   7.514 -0.4277 -0.2333  1.3100
11410SOL     OW36767   5.425   5.799   9.808 -0.2957  0.2659 -0.7735
11410SOL    HW136768   5.434   5.721   9.753  1.8555  0.6702 -1.0425
11410SOL    HW236769   5.499   5.854   9.783 -0.0727  1.0576  1.5576
11411SOL     OW36770   6.307   1.504   3.636 -0.2815  0.6993 -0.2983
11411SOL    HW136771   6.345   1.555   3.565 -0.5050  1.6552  0.2663
11411SOL    HW236772   6.309   1.562   3.712  0.9839 -0.6716  0.7754
11412SOL     OW36773   6.791   3.744   4.510  0.0055  0.2332 -0.2730
11412SOL    HW136774   6.882   3.716   4.512  0.8516  2.9374  1.0284
11412SOL    HW236775   6.763   3.741   4.601 -0.5573  1.4351 -0.3997
11413SOL     OW36776   6.831   1.974   3.847  0.2932  0.4476  0.0194
11413SOL    HW136777   6.874   2.037   3.905  1.4088 -0.3353  0.0673
11413SOL    HW236778   6.903   1.919   3.815 -0.6734 -0.9009  0.1109
11414SOL     OW36779   1.930  10.115   2.521 -1.2725  0.4027  0.0101
11414SOL    HW136780   1.967  10.136   2.607 -0.5021  0.9219 -0.4391
11414SOL    HW236781   1.873  10.189   2.500 -1.4984  0.2520  0.0985
11415SOL     OW36782   1.837   8.594   7.727  0.0206  0.3099  0.0734
11415SOL    HW136783   1.866   8.559   7.811 -0.2547 -2.4178 -0.9218
11415SOL    HW236784   1.750   8.555   7.714 -0.0474  0.9209 -1.3570
11416SOL     OW36785   1.415   1.031   7.786 -0.0609 -0.0986  0.5250
11416SOL    HW136786   1.467   1.099   7.744 -0.1453 -1.2395 -1.4548
11416SOL    HW236787   1.475   0.993   7.851  0.0371  1.7048  1.5361
11417SOL     OW36788   2.538   9.528   2.684 -0.2426  0.2917 -0.0494
11417SOL    HW136789   2.500   9.443   2.662  0.8750 -0.1494 -0.3302
11417SOL    HW236790   2.516   9.541   2.776 -1.7290  0.4120 -0.4098
11418SOL     OW36791   3.109   8.852   7.073 -0.0182 -0.2189 -0.2933
11418SOL    HW136792   3.109   8.831   6.980  1.5950  2.8962 -1.0685
11418SOL    HW236793   3.183   8.802   7.109 -0.7859 -1.6050 -0.5898
11419SOL     OW36794   3.331   3.834   7.085 -0.5435 -0.2224 -0.3376
11419SOL    HW136795   3.282   3.865   7.008 -1.1124 -1.0969 -0.3340
11419SOL    HW236796   3.423   3.838   7.058 -0.7298 -0.3195 -0.9921
11420SOL     OW36797   8.100   1.218   5.752  0.0169 -0.2895  0.0929
11420SOL    HW136798   8.026   1.236   5.811  0.5901  1.6867  0.2240
11420SOL    HW236799   8.173   1.199   5.811  0.0326 -0.5633 -0.0152
11421SOL     OW36800   0.519   4.313   6.438  0.4439 -0.0696  0.1506
11421SOL    HW136801   0.536   4.309   6.532 -0.3974  0.7274  0.3458
11421SOL    HW236802   0.549   4.229   6.404  0.5298 -0.4501  1.1690
11422SOL     OW36803   3.039   0.637   4.317 -0.0374 -0.1145  0.0810
11422SOL    HW136804   3.040   0.564   4.379 -1.7040  1.3640  1.9070
11422SOL    HW236805   3.086   0.708   4.363  0.8582  0.2315 -1.3411
11423SOL     OW36806   7.685   2.811   4.448  0.0068 -0.4523  0.0066
11423SOL    HW136807   7.650   2.890   4.407  2.2810  0.8514  0.5736
11423SOL    HW236808   7.612   2.778   4.501 -0.8573  1.4014  0.0186
11424SOL     OW36809   9.448   5.678   9.834 -0.2809 -0.5437 -0.0859
11424SOL    HW136810   9.376   5.736   9.809 -0.5709 -1.0868 -0.5305
11424SOL    HW236811   9.485   5.649   9.750  1.8695  1.4454  0.1268
11425SOL     OW36812   8.747   5.174   6.114  0.3151 -0.1645 -0.1070
11425SOL    HW136813   8.775   5.259   6.149  1.2666  0.2423 -1.7677
11425SOL    HW236814   8.790   5.109   6.171 -0.9120  0.4518  1.5384
11426SOL     OW36815   8.652   9.171   4.976 -0.1679  1.0022  0.3281
11426SOL    HW136816   8.617   9.098   4.926 -1.9268  1.9671  0.0987
11426SOL    HW236817   8.746   9.169   4.959 -0.3829 -0.3363 -0.8027
11427SOL     OW36818   8.947   1.256   2.434  0.1607 -0.3286 -0.6549
11427SOL    HW136819   8.998   1.274   2.355  2.1371 -0.8973  0.4534
11427SOL    HW236820   8.913   1.168   2.423  0.2082 -0.3036 -0.9836
11428SOL     OW36821   2.351   9.302   0.608 -0.1080  0.3031 -0.2093
11428SOL    HW136822   2.389   9.289   0.521 -1.9572  1.3274 -1.1983
11428SOL    HW236823   2.331   9.395   0.612 -0.4796  0.1761  1.1535
11429SOL     OW36824   0.628   1.985   3.875 -0.2891 -0.0102 -0.7803
11429SOL    HW136825   0.555   2.046   3.887  1.2371  2.0310 -1.5427
11429SOL    HW236826   0.663   1.973   3.963 -0.3661  0.5303 -0.6722
11430SOL     OW36827   7.152   1.228   0.619  0.3014  0.5474  0.2730
11430SOL    HW136828   7.193   1.145   0.595 -0.2144  0.0549  1.0961
11430SOL    HW236829   7.161   1.282   0.540  3.0158  0.6629  0.6269
11431SOL     OW36830   0.506   0.428   9.271 -0.1054  0.1100 -0.3402
11431SOL    HW136831   0.455   0.436   9.352 -0.8902  0.0310 -0.8270
11431SOL    HW236832   0.548   0.342   9.277  0.4663  0.4306  0.3431
11432SOL     OW36833   0.760   2.854   1.380  0.4625 -0.4890  0.0092
11432SOL    HW136834   0.697   2.784   1.392  2.1788 -1.8623  1.2872
11432SOL    HW236835   0.832   2.832   1.439  0.7533  2.6945  0.9310
11433SOL     OW36836   9.377  10.031   4.729  0.1905 -0.1439  0.3243
11433SOL    HW136837   9.374   9.945   4.771 -0.2162 -0.1138  0.3623
11433SOL    HW236838   9.367  10.013   4.636  2.8940 -0.3575  0.0453
11434SOL     OW36839   9.693   1.355   3.871 -0.4790  0.1972  0.0633
11434SOL    HW136840   9.786   1.376   3.870 -0.5514  0.4952 -0.4991
11434SOL    HW236841   9.683   1.293   3.943  0.1498  0.1812  0.1367
11435SOL     OW36842   5.758   2.974   1.075  0.4902 -0.6398  0.2405
11435SOL    HW136843   5.811   3.052   1.067  1.6078 -1.4798 -0.7292
11435SOL    HW236844   5.668   3.006   1.076  0.9702  0.7086  0.7628
11436SOL     OW36845   1.410   7.324   0.012  0.9349 -0.2262  0.5473
11436SOL    HW136846   1.365   7.406  -0.009  0.8201 -0.1315  1.1672
11436SOL    HW236847   1.487   7.350   0.062 -1.0783 -0.7167  4.0668
11437SOL     OW36848   3.419   0.667   6.208  0.4777  0.1414  0.1226
11437SOL    HW136849   3.427   0.593   6.148  0.7599  0.6693 -0.4948
11437SOL    HW236850   3.438   0.743   6.154  0.2842  0.6556  0.7822
11438SOL     OW36851   2.998   7.964   9.666  0.7167 -0.2246 -0.1320
11438SOL    HW136852   2.908   7.979   9.697  0.9380 -0.1271  0.4638
11438SOL    HW236853   3.052   7.977   9.744  1.1635 -1.3056 -0.2598
11439SOL     OW36854   6.099   3.282   4.846 -0.1213 -0.1025 -0.0586
11439SOL    HW136855   6.175   3.285   4.903  0.3675 -1.3668 -0.6267
11439SOL    HW236856   6.033   3.234   4.895 -0.5031  0.8578  0.3720
11440SOL     OW36857   9.724   0.906   9.171  0.1574 -0.4019  0.3629
11440SOL    HW136858   9.655   0.972   9.171  0.0515 -0.4751 -1.9255
11440SOL    HW236859   9.803   0.954   9.195 -0.3560  0.0489  1.1827
11441SOL     OW36860   7.604   9.917   2.816 -0.0072  0.3175 -0.0170
11441SOL    HW136861   7.561   9.847   2.867  1.5238 -0.2023  0.5782
11441SOL    HW236862   7.679   9.942   2.869  0.2133  1.4937 -0.8819
11442SOL     OW36863   1.301   7.944   0.972 -0.7601  0.1445 -0.4899
11442SOL    HW136864   1.356   8.022   0.964 -1.2290  0.5632  0.3531
11442SOL    HW236865   1.232   7.957   0.906 -0.3373  0.0121 -0.9668
11443SOL     OW36866   0.415   0.202   9.601  0.4842 -0.1846  0.3465
11443SOL    HW136867   0.439   0.219   9.692  1.1062 -0.4028  0.2240
11443SOL    HW236868   0.386   0.287   9.568 -2.5534 -0.6560  1.5852
11444SOL     OW36869   2.126   5.611   3.485 -0.0979  0.0220 -0.0772
11444SOL    HW136870   2.092   5.594   3.397  3.0645 -0.1240 -1.3417
11444SOL    HW236871   2.127   5.706   3.493 -0.2680  0.0375 -0.2373
11445SOL     OW36872   5.332   6.244   1.179  0.1949  0.2674  0.1001
11445SOL    HW136873   5.371   6.297   1.248  0.1489 -0.3134  0.5722
11445SOL    HW236874   5.302   6.165   1.223 -3.0348  1.4100  0.0721
11446SOL     OW36875   3.034   2.345   6.983  0.3839 -0.4548  0.0798
11446SOL    HW136876   3.043   2.309   7.072 -0.8175  0.7430  0.7119
11446SOL    HW236877   2.958   2.403   6.989 -0.8179 -1.7343 -2.1919
11447SOL     OW36878   4.535   9.264   4.607 -0.1271 -0.4605  0.1197
11447SOL    HW136879   4.548   9.349   4.565  0.3514 -0.4640  0.2596
11447SOL    HW236880   4.469   9.221   4.553 -1.9186  0.8219  1.2354
11448SOL     OW36881  10.168   8.230   3.657 -0.5256  0.1249 -0.0857
11448SOL    HW136882  10.219   8.182   3.592 -1.1469 -0.1168 -0.4031
11448SOL    HW236883  10.190   8.322   3.642  0.8991 -0.0662  0.7216
11449SOL     OW36884   5.175   4.983   0.080 -0.2321  0.2238  0.4434
11449SOL    HW136885   5.180   4.931   0.160  1.6203 -0.7725 -0.2938
11449SOL    HW236886   5.265   5.010   0.062 -0.8737  1.9291 -0.3476
11450SOL     OW36887   4.940   9.604   9.753 -0.0152  0.0487 -0.0806
11450SOL    HW136888   4.994   9.660   9.809 -0.3052 -0.4732  0.7414
11450SOL    HW236889   4.971   9.515   9.773 -0.9406 -0.2294  0.1471
11451SOL     OW36890   0.419   2.092   9.134 -0.7933  0.2889  0.5013
11451SOL    HW136891   0.385   2.136   9.057 -0.9654 -0.2316  0.2768
11451SOL    HW236892   0.500   2.139   9.155  0.8319 -1.3624 -1.7514
11452SOL     OW36893   6.046   4.658   6.813  0.1493  0.4704 -0.5115
11452SOL    HW136894   5.993   4.579   6.803 -0.9411  1.2615 -0.9900
11452SOL    HW236895   6.086   4.671   6.727 -1.5473  1.7679 -1.1253
11453SOL     OW36896   8.858   8.445   9.791 -0.3244  0.0654  0.5486
11453SOL    HW136897   8.794   8.458   9.860 -1.3160  2.2708 -0.7415
11453SOL    HW236898   8.811   8.467   9.710  1.7554  0.7081 -0.5134
11454SOL     OW36899   5.950   0.667  10.003 -0.3717 -0.1613 -0.2307
11454SOL    HW136900   5.941   0.731  10.074 -1.4420 -0.9837  0.3866
11454SOL    HW236901   5.977   0.719   9.927 -3.0712  1.3231 -0.2281
11455SOL     OW36902   9.870   2.006   4.837 -0.0251  0.3922 -0.2606
11455SOL    HW136903   9.862   2.097   4.810 -0.8863  0.6578  0.8396
11455SOL    HW236904   9.790   1.989   4.888  1.1728 -0.3062  1.4210
11456SOL     OW36905   9.212   7.136   6.054 -0.1560  0.0884  0.3373
11456SOL    HW136906   9.280   7.101   5.997 -1.5360 -0.2818 -1.1232
11456SOL    HW236907   9.143   7.164   5.994 -1.2942  0.4370  1.7862
11457SOL     OW36908   8.021   8.641   8.642 -0.0340 -0.1223  0.2056
11457SOL    HW136909   7.949   8.664   8.701  1.6258  0.7761  1.9727
11457SOL    HW236910   8.094   8.621   8.701  0.9259 -1.8602 -1.5180
11458SOL     OW36911   1.296   9.437   3.578  0.3277 -0.2050 -0.5792
11458SOL    HW136912   1.295   9.413   3.486  0.4278 -0.3435 -0.5437
11458SOL    HW236913   1.289   9.354   3.625 -2.2157  0.0386 -0.4668
11459SOL     OW36914   7.199   4.517   4.820  0.5626  0.3049  0.2960
11459SOL    HW136915   7.292   4.519   4.801  0.4924  1.1401 -0.0142
11459SOL    HW236916   7.193   4.525   4.915  0.8047  0.4255  0.3008
11460SOL     OW36917   3.691   1.160   1.436  0.4608  0.2134  0.5322
11460SOL    HW136918   3.700   1.247   1.398  1.0028  0.8185  2.0219
11460SOL    HW236919   3.649   1.174   1.521 -2.1740 -1.2741 -0.4344
11461SOL     OW36920   2.163   2.860   4.216 -0.4048 -1.4315 -0.7508
11461SOL    HW136921   2.202   2.773   4.215 -0.5125 -1.5130  0.7240
11461SOL    HW236922   2.128   2.869   4.305  1.6099  1.0083 -0.1509
11462SOL     OW36923   1.500   9.929   4.719  0.0439  0.9177  0.3924
11462SOL    HW136924   1.542   9.943   4.804 -0.4042  1.2715  0.5566
11462SOL    HW236925   1.502   9.834   4.707  0.0700  0.8620  0.8217
11463SOL     OW36926   9.424   7.402   5.202 -0.4007  0.1495  0.4924
11463SOL    HW136927   9.446   7.477   5.147  2.5576  0.5092  2.0902
11463SOL    HW236928   9.374   7.440   5.274 -0.4319  0.3135  0.3881
11464SOL     OW36929   9.993   5.942   1.670  0.1277  0.2015  0.1663
11464SOL    HW136930  10.047   6.017   1.692  0.2436  0.7627 -1.9588
11464SOL    HW236931   9.906   5.964   1.704  0.2456  1.1418 -0.1341
11465SOL     OW36932   1.489   8.823   9.339 -0.4850  0.2158 -0.1057
11465SOL    HW136933   1.485   8.852   9.248 -0.3440 -1.0484 -0.5176
11465SOL    HW236934   1.436   8.743   9.341  0.5047 -0.4339  0.6571
11466SOL     OW36935   7.838   4.920   8.032 -0.4122 -0.7010 -0.0335
11466SOL    HW136936   7.816   4.901   7.941 -1.4314  0.6290 -0.0733
11466SOL    HW236937   7.829   4.836   8.077 -1.0594 -1.1136 -0.9241
11467SOL     OW36938   9.816   9.446   7.187  0.2097  0.4844  0.5762
11467SOL    HW136939   9.817   9.468   7.094 -0.2929  2.4976  1.0151
11467SOL    HW236940   9.725   9.425   7.206  0.8140 -2.8754 -0.0041
11468SOL     OW36941   4.424   6.669   1.470  0.1831 -0.2656 -0.4239
11468SOL    HW136942   4.432   6.677   1.375  0.3716  0.2149 -0.3675
11468SOL    HW236943   4.513   6.683   1.502 -0.0720  0.6125 -0.1034
11469SOL     OW36944   6.410   8.199   9.552 -0.5606 -0.5710  0.3315
11469SOL    HW136945   6.366   8.252   9.486  1.2490 -0.2137 -0.5978
11469SOL    HW236946   6.444   8.123   9.504  1.8955  0.3362  0.5855
11470SOL     OW36947   6.319   5.923   3.329  0.3584  0.3345 -0.2237
11470SOL    HW136948   6.288   5.993   3.386 -1.5278 -1.0796  0.5220
11470SOL    HW236949   6.347   5.854   3.389 -0.4505 -0.6642 -0.9913
11471SOL     OW36950   1.802   4.617   4.740  0.1091  0.2658 -0.1996
11471SOL    HW136951   1.719   4.663   4.731  0.2571  0.8850  1.4313
11471SOL    HW236952   1.835   4.643   4.826  1.9766  0.0106 -0.8084
11472SOL     OW36953   2.514   7.225   9.955  0.1767 -0.4007  0.2886
11472SOL    HW136954   2.597   7.248   9.998  0.5649 -1.3835  0.0743
11472SOL    HW236955   2.511   7.130   9.958 -1.3501 -0.3359  1.0177
11473SOL     OW36956   8.410   5.513   9.473 -0.3904  0.3078  0.5951
11473SOL    HW136957   8.442   5.504   9.383 -1.9314  1.0961 -0.0622
11473SOL    HW236958   8.409   5.423   9.507  0.6096  0.0526 -0.0184
11474SOL     OW36959   1.613   8.308   3.832  0.1856  0.6556  0.3574
11474SOL    HW136960   1.644   8.331   3.920 -1.0415  1.0347  0.6992
11474SOL    HW236961   1.603   8.393   3.788 -0.9285  0.5816  0.4503
11475SOL     OW36962   1.536   3.075   5.082  0.3175 -0.1817 -0.4723
11475SOL    HW136963   1.617   3.045   5.040  0.7910 -0.3375  0.5301
11475SOL    HW236964   1.483   2.996   5.090  0.5981 -0.3225  0.0311
11476SOL     OW36965   0.980   7.992   8.543 -0.8086  0.4516  0.3664
11476SOL    HW136966   0.930   8.025   8.617  0.1183  1.1090  0.7129
11476SOL    HW236967   0.939   8.033   8.466 -0.5999  1.2624  0.6771
11477SOL     OW36968   4.517   1.728   7.777  0.2725 -0.0085  0.1075
11477SOL    HW136969   4.468   1.806   7.753 -0.2029 -0.4074 -0.2348
11477SOL    HW236970   4.560   1.751   7.860  0.7609  0.8764 -0.3846
11478SOL     OW36971   1.815   3.725   7.243  0.6314 -0.3505 -0.1306
11478SOL    HW136972   1.909   3.717   7.256  0.8174  1.7471  0.0377
11478SOL    HW236973   1.777   3.703   7.328  1.0601  0.0246  0.1630
11479SOL     OW36974   4.735   6.247   1.861 -0.0859 -0.4607 -0.3526
11479SOL    HW136975   4.815   6.202   1.833  1.7119  0.9857  2.2568
11479SOL    HW236976   4.726   6.320   1.801  0.9833 -0.2172 -0.2295
11480SOL     OW36977   4.469   8.399   1.796  0.2600 -0.1992 -0.2084
11480SOL    HW136978   4.458   8.472   1.856 -0.7170 -0.5169  0.0058
11480SOL    HW236979   4.385   8.353   1.798  0.6751 -1.0005 -0.7687
11481SOL     OW36980   0.194   4.283   7.043  0.4067  0.7921  0.2380
11481SOL    HW136981   0.277   4.253   7.006 -0.1183 -1.2749  0.6998
11481SOL    HW236982   0.132   4.278   6.970  0.1843  0.1782  0.4672
11482SOL     OW36983   1.597   1.878   7.691  0.1155  0.1221 -0.7414
11482SOL    HW136984   1.629   1.848   7.606  1.9238 -1.0381  0.3095
11482SOL    HW236985   1.621   1.971   7.693 -1.2906  0.5339 -2.0948
11483SOL     OW36986   9.688   4.262   9.883  0.7584 -0.0965  0.0695
11483SOL    HW136987   9.746   4.329   9.846  1.9468  0.1684  2.3652
11483SOL    HW236988   9.642   4.306   9.954 -0.0036 -1.1717  0.2599
11484SOL     OW36989   7.897   1.290   6.681 -0.0291 -0.5757  0.3265
11484SOL    HW136990   7.990   1.306   6.663  0.0336 -0.6809  0.5441
11484SOL    HW236991   7.878   1.346   6.756 -1.0913  2.2360 -1.9881
11485SOL     OW36992   6.336   8.567   9.425  0.6856  0.2461  0.0559
11485SOL    HW136993   6.317   8.657   9.451  1.6975  0.1761  1.0668
11485SOL    HW236994   6.357   8.574   9.332 -0.1723  0.9129 -0.0985
11486SOL     OW36995   6.816   7.049   7.143 -0.2246  0.2142  0.5609
11486SOL    HW136996   6.847   7.139   7.158  2.0461 -0.3687 -0.5727
11486SOL    HW236997   6.762   7.055   7.064  0.9653  0.3586 -0.2462
11487SOL     OW36998   8.147   8.312   8.375 -0.3346  0.0152 -0.4678
11487SOL    HW136999   8.109   8.225   8.357 -1.1726  0.1844  0.4218
11487SOL    HW237000   8.071   8.367   8.392  0.1906  0.9796 -1.2224
11488SOL     OW37001   1.915   1.194   5.680 -0.2894  0.1587 -0.7555
11488SOL    HW137002   1.956   1.173   5.596  1.2859 -0.0755  0.0531
11488SOL    HW237003   1.854   1.121   5.695  2.1953 -1.8277  0.0866
11489SOL     OW37004   7.329   6.942   9.657  0.0438  0.0583 -0.2392
11489SOL    HW137005   7.277   7.022   9.652  1.1286  0.6968 -1.6816
11489SOL    HW237006   7.371   6.935   9.571  1.4975 -1.0067  0.5374
11490SOL     OW37007   6.994   9.889   8.373  0.4237  0.6970 -0.7057
11490SOL    HW137008   7.056   9.959   8.395  0.3203  0.8311 -0.8447
11490SOL    HW237009   7.003   9.878   8.279  0.3372  0.6225 -0.7043
11491SOL     OW37010   3.131   0.869   7.916  0.4437  0.1131  0.2205
11491SOL    HW137011   3.131   0.776   7.940 -2.1182  0.6137  2.4086
11491SOL    HW237012   3.091   0.870   7.828  1.1663 -0.9137 -0.1310
11492SOL     OW37013   1.013   5.815   2.544  0.1093  0.0553  0.1424
11492SOL    HW137014   0.947   5.869   2.586 -0.7033 -0.1878 -0.7902
11492SOL    HW237015   1.086   5.875   2.526  1.1689 -0.1886  3.3328
11493SOL     OW37016   7.871   8.539   9.165 -0.0688  0.0519 -0.6725
11493SOL    HW137017   7.869   8.446   9.145  0.0337 -0.2459  0.6576
11493SOL    HW237018   7.964   8.563   9.159  0.0193 -0.1438 -0.0400
11494SOL     OW37019   0.369   6.309   2.989  0.3797  0.1955 -0.4696
11494SOL    HW137020   0.407   6.322   3.076  0.1128  0.2701 -0.3615
11494SOL    HW237021   0.412   6.231   2.955  0.5503  0.2173 -0.3059
11495SOL     OW37022   0.720   6.224   9.951 -0.6925  0.1294 -0.3254
11495SOL    HW137023   0.752   6.226   9.861  2.0132  1.1838  0.6217
11495SOL    HW237024   0.679   6.138   9.960 -1.7458  0.3027 -2.7698
11496SOL     OW37025   9.905   5.617   2.901  0.2261  0.1172  0.5012
11496SOL    HW137026   9.890   5.689   2.963 -0.4527 -1.3615  2.0922
11496SOL    HW237027   9.894   5.538   2.953  0.2149 -1.1651 -1.4027
11497SOL     OW37028   7.941   9.184   4.686  0.3904  0.4968  0.2000
11497SOL    HW137029   7.896   9.249   4.632 -2.4808 -0.7745  0.9421
11497SOL    HW237030   7.907   9.199   4.775 -0.3384 -1.9971  0.3792
11498SOL     OW37031   7.297   9.468   5.648 -0.1708  0.2881 -0.2501
11498SOL    HW137032   7.223   9.422   5.608  1.1877 -1.5757 -0.7063
11498SOL    HW237033   7.336   9.403   5.707 -0.0802  1.8906  1.5124
11499SOL     OW37034   8.512   6.568   0.140 -0.2505 -0.5472  0.0276
11499SOL    HW137035   8.512   6.473   0.143  1.0348 -0.5100  2.0486
11499SOL    HW237036   8.422   6.592   0.117 -0.6305 -2.2213 -0.2780
11500SOL     OW37037   3.848   8.817   0.188  0.2068 -0.0083 -0.4918
11500SOL    HW137038   3.837   8.795   0.095  0.2223 -2.1828 -0.0003
11500SOL    HW237039   3.901   8.746   0.224  0.8747  1.2215  1.0300
11501SOL     OW37040   2.700   6.499   1.478  0.6876 -0.5792 -0.4621
11501SOL    HW137041   2.707   6.493   1.574 -0.3162 -4.5902 -0.5657
11501SOL    HW237042   2.606   6.506   1.461  0.7366 -1.6012 -1.2049
11502SOL     OW37043   7.369   0.814   7.098  0.1393  0.2260  0.1017
11502SOL    HW137044   7.342   0.724   7.084  2.3240 -0.6121  0.9705
11502SOL    HW237045   7.298   0.867   7.062 -1.4551 -1.8310  0.1546
11503SOL     OW37046   1.243   0.082   7.381  0.0908  0.0019 -0.1397
11503SOL    HW137047   1.197   0.156   7.341  0.5080 -0.0970 -0.8216
11503SOL    HW237048   1.322   0.121   7.418 -0.2784  0.0870  0.5597
11504SOL     OW37049   4.808   5.588   5.388  0.4301 -0.2782 -0.2937
11504SOL    HW137050   4.809   5.575   5.483 -2.4558 -0.8349 -0.2959
11504SOL    HW237051   4.854   5.670   5.374  0.3593  0.1076  1.6596
11505SOL     OW37052   2.297   5.184   5.517  0.0448  0.0780 -0.2897
11505SOL    HW137053   2.356   5.129   5.568  0.3291  5.0461  5.2268
11505SOL    HW237054   2.210   5.162   5.549 -0.3063 -0.5276 -1.6095
11506SOL     OW37055   5.038   8.980   0.693 -0.0852 -0.0371  0.3093
11506SOL    HW137056   4.996   8.985   0.779 -0.1198  2.3833  0.1876
11506SOL    HW237057   5.128   9.010   0.709  0.8499 -2.6360  0.0788
11507SOL     OW37058   8.257   3.343   6.529  0.4829  0.4026  0.2694
11507SOL    HW137059   8.274   3.361   6.437  3.0574  0.2159  0.6694
11507SOL    HW237060   8.167   3.310   6.531  1.0036 -1.3613 -2.4346
11508SOL     OW37061   2.889   9.195   1.417  0.4546 -0.1349 -0.3044
11508SOL    HW137062   2.887   9.112   1.464  3.2879 -1.5559 -2.5335
11508SOL    HW237063   2.977   9.229   1.434 -0.4756  2.1506  0.0785
11509SOL     OW37064  10.049   2.616   3.753  0.5195 -0.3386  0.4853
11509SOL    HW137065   9.972   2.671   3.755 -0.1619 -1.0765 -2.6207
11509SOL    HW237066  10.102   2.646   3.827 -1.6607  1.7035  1.2836
11510SOL     OW37067   4.904   0.760   6.229  0.1196 -0.0006  0.0724
11510SOL    HW137068   4.846   0.767   6.153 -0.9627 -0.1100  0.8846
11510SOL    HW237069   4.879   0.677   6.270  0.6829  0.0762  0.5764
11511SOL     OW37070   4.871   3.701   0.360  0.3146  0.2331  0.3048
11511SOL    HW137071   4.852   3.651   0.439  2.3703 -1.4868 -0.2357
11511SOL    HW237072   4.812   3.664   0.294 -0.4124  0.7033  0.6912
11512SOL     OW37073   3.972   8.238   0.544  0.1229 -0.2314 -0.6903
11512SOL    HW137074   3.957   8.252   0.450 -0.3314 -0.5450 -0.6679
11512SOL    HW237075   3.945   8.147   0.558 -0.2819 -0.0328 -0.1624
11513SOL     OW37076   2.109   1.714   5.855  0.0381 -0.1843 -0.2397
11513SOL    HW137077   2.099   1.732   5.762 -2.5801 -0.6723 -0.0906
11513SOL    HW237078   2.028   1.668   5.880  1.2230 -1.1705  2.0020
11514SOL     OW37079   3.364   5.055   9.196  1.0112  0.2802 -0.1965
11514SOL    HW137080   3.307   5.072   9.121  0.4024  0.7163  0.3665
11514SOL    HW237081   3.359   5.135   9.249 -0.4829 -0.9691  1.5734
11515SOL     OW37082   2.877   3.018   0.797  0.0530 -0.0269  0.3764
11515SOL    HW137083   2.809   3.079   0.768  1.0559  1.2530  0.6346
11515SOL    HW237084   2.837   2.969   0.868 -1.1379 -0.4498 -0.5762
11516SOL     OW37085   7.186   7.291   1.473  0.2627 -0.4281 -0.8101
11516SOL    HW137086   7.179   7.368   1.416  0.3205 -0.1511 -0.4502
11516SOL    HW237087   7.201   7.328   1.561 -1.4194 -0.7879 -0.3477
11517SOL     OW37088   9.294   2.773   7.898  0.2801  0.5935  0.2682
11517SOL    HW137089   9.217   2.723   7.924  1.0217 -0.0666  1.2393
11517SOL    HW237090   9.317   2.739   7.812 -0.9376  1.3155 -0.3666
11518SOL     OW37091   7.512   8.531   3.279  0.4267 -0.5286  0.7663
11518SOL    HW137092   7.460   8.611   3.273  0.6205 -0.4487  0.0955
11518SOL    HW237093   7.595   8.553   3.236  0.1297 -1.3678 -0.2775
11519SOL     OW37094   5.616   5.814   3.370 -0.3872  0.3156 -0.6790
11519SOL    HW137095   5.659   5.729   3.381  0.3535  0.6296 -1.1466
11519SOL    HW237096   5.683   5.870   3.332 -1.1454  0.8712 -1.2068
11520SOL     OW37097   0.618   8.959   8.772 -0.4837  0.1510  0.0288
11520SOL    HW137098   0.530   8.961   8.809 -0.2706 -0.3415  0.5830
11520SOL    HW237099   0.654   8.876   8.802  0.2851  0.5002  0.0875
11521SOL     OW37100   3.027   8.184   0.354 -0.8543 -0.2130 -0.4970
11521SOL    HW137101   3.120   8.202   0.366 -1.1610  1.1735 -0.1154
11521SOL    HW237102   3.017   8.093   0.380  0.0475  0.1937  1.4250
11522SOL     OW37103   4.056   9.094   6.940  0.3278  0.2203 -0.1426
11522SOL    HW137104   4.002   9.032   6.990 -0.1050  0.3662 -0.4308
11522SOL    HW237105   4.012   9.178   6.950  1.3582  0.6546  0.9230
11523SOL     OW37106   3.878   9.854   3.995 -0.2039 -0.3302 -0.0476
11523SOL    HW137107   3.819   9.901   4.054 -0.5697  0.4186 -0.9996
11523SOL    HW237108   3.820   9.810   3.933  0.2227  0.2931 -0.9022
11524SOL     OW37109   1.123   3.106   2.652  0.4929  0.2296  0.7114
11524SOL    HW137110   1.112   3.166   2.726  1.4325 -0.4828  1.4309
11524SOL    HW237111   1.034   3.095   2.618  0.2168  1.5070  0.9732
11525SOL     OW37112   2.323   3.867   2.061 -0.3000 -0.5283 -0.4166
11525SOL    HW137113   2.294   3.950   2.099  1.1821 -0.0376 -0.3369
11525SOL    HW237114   2.250   3.807   2.077 -2.4081  1.3426 -2.5861
11526SOL     OW37115   4.410   8.513   9.420  0.2404  0.1786  0.0018
11526SOL    HW137116   4.332   8.569   9.422 -0.5941 -0.8752 -1.9411
11526SOL    HW237117   4.459   8.543   9.344  0.3788 -0.9271 -0.3487
11527SOL     OW37118   6.522   6.073   7.986 -0.4254  0.3116  0.2398
11527SOL    HW137119   6.503   6.137   7.918  1.2540 -0.8528 -1.3707
11527SOL    HW237120   6.601   6.106   8.029  0.6573 -0.8632 -0.8409
11528SOL     OW37121   4.199   9.947   3.310  0.4442 -0.2223 -0.5673
11528SOL    HW137122   4.137   9.900   3.255  0.9918 -0.7399 -0.7483
11528SOL    HW237123   4.223   9.884   3.378 -0.7320  0.6200  0.6685
11529SOL     OW37124   9.572   1.288   7.192  0.1831 -0.1201 -0.0296
11529SOL    HW137125   9.535   1.359   7.139  0.3862  0.2880  0.3690
11529SOL    HW237126   9.500   1.260   7.248  0.1830 -0.0425  0.0090
11530SOL     OW37127   1.932   2.275   3.224 -0.6116 -0.6290 -0.5111
11530SOL    HW137128   1.972   2.197   3.264 -0.5424 -0.5246 -0.3762
11530SOL    HW237129   1.996   2.345   3.240 -0.2762 -0.7271 -1.3870
11531SOL     OW37130   5.761   6.356   0.976 -0.0942  0.2325 -0.4590
11531SOL    HW137131   5.813   6.296   0.924 -0.3727 -0.4330  0.0212
11531SOL    HW237132   5.806   6.360   1.061  0.3388  1.2824 -0.7310
11532SOL     OW37133   5.453   1.935   5.184 -0.1442 -0.1722  0.0659
11532SOL    HW137134   5.493   1.895   5.262  0.7829 -1.3945 -1.0166
11532SOL    HW237135   5.404   1.864   5.143 -0.5876  0.4547 -0.5067
11533SOL     OW37136   3.498   1.634   6.137 -0.4873  0.0583  0.4973
11533SOL    HW137137   3.522   1.725   6.118  1.5630 -0.2775  1.4188
11533SOL    HW237138   3.419   1.642   6.191  0.4177  1.3486  1.6768
11534SOL     OW37139   1.443   4.427   0.030  0.0247  0.2140  0.2666
11534SOL    HW137140   1.388   4.485   0.082  0.2428  1.2704 -0.6580
11534SOL    HW237141   1.391   4.346   0.021  0.3064 -0.2855  2.7321
11535SOL     OW37142   2.016   4.890   4.654 -0.4831  0.1494 -0.1280
11535SOL    HW137143   2.002   4.807   4.608  0.0820 -0.1941  0.3152
11535SOL    HW237144   1.982   4.875   4.742 -1.6955  0.8527 -0.4592
11536SOL     OW37145   4.968   6.505   7.668  0.4735  0.3697  0.1477
11536SOL    HW137146   4.887   6.511   7.718  0.2504  0.7025 -0.2518
11536SOL    HW237147   4.959   6.570   7.599  0.6853 -0.2405 -0.4662
11537SOL     OW37148   4.093   7.511   5.601  0.2916 -0.0949 -0.1830
11537SOL    HW137149   4.066   7.583   5.658 -0.1442  0.0731 -0.5928
11537SOL    HW237150   4.173   7.477   5.641  0.7832  0.9488 -0.2799
11538SOL     OW37151   7.940   1.037   2.634  0.3445 -0.3197  0.2814
11538SOL    HW137152   7.890   1.099   2.688  0.8987 -0.2563  0.7334
11538SOL    HW237153   7.963   0.966   2.695  0.0840 -0.7567 -0.1285
11539SOL     OW37154   6.734   0.445   1.248 -0.6381  0.1825  0.5108
11539SOL    HW137155   6.701   0.435   1.337 -3.7580  0.2526 -0.5818
11539SOL    HW237156   6.772   0.359   1.227 -0.5695 -0.0706  1.6142
11540SOL     OW37157   0.175   2.132   6.178  0.4538  0.7967 -0.6618
11540SOL    HW137158   0.148   2.044   6.201  3.1315 -0.1993 -1.1597
11540SOL    HW237159   0.167   2.136   6.082 -0.7066  1.4699 -0.5449
11541SOL     OW37160   5.380   2.699   0.258  0.2417  0.0827  0.7242
11541SOL    HW137161   5.410   2.788   0.274  0.5712 -0.2520  2.0205
11541SOL    HW237162   5.287   2.708   0.239  0.3787  0.7483  0.3533
11542SOL     OW37163   0.225   7.000   5.349 -0.7841 -0.3902 -0.1656
11542SOL    HW137164   0.228   6.992   5.254 -2.0822 -0.9642 -0.1759
11542SOL    HW237165   0.203   6.912   5.379 -0.2211 -0.2485  0.6763
11543SOL     OW37166   6.781  10.171   4.259  0.0083 -0.1711  0.2978
11543SOL    HW137167   6.788  10.266   4.259  0.7424 -0.1900  2.3418
11543SOL    HW237168   6.862  10.140   4.220 -0.8863  0.0453 -1.7809
11544SOL     OW37169   1.985   9.866   9.721 -0.6682  0.4131  0.7293
11544SOL    HW137170   1.931   9.898   9.793  0.8186  0.8912  1.6485
11544SOL    HW237171   2.074   9.867   9.755  0.3721  2.8780 -1.8596
11545SOL     OW37172   4.917   9.418   7.579  0.8774 -0.1878  0.4319
11545SOL    HW137173   4.962   9.346   7.624  1.1933 -0.5741 -0.4848
11545SOL    HW237174   4.961   9.424   7.494 -1.7303 -1.5401 -1.0700
11546SOL     OW37175   1.220   8.410   0.806 -0.1635 -0.0690  0.2079
11546SOL    HW137176   1.259   8.448   0.727  1.0746 -0.0204  0.8254
11546SOL    HW237177   1.241   8.317   0.800  1.4654  0.2014  1.3202
11547SOL     OW37178   2.603   5.796   5.891 -0.8136 -0.1536 -0.3762
11547SOL    HW137179   2.573   5.706   5.876  0.1166 -0.2545 -1.6612
11547SOL    HW237180   2.699   5.789   5.896 -0.8110  0.5528  1.0674
11548SOL     OW37181   1.023   3.989   7.842  0.1015 -0.3895 -0.3817
11548SOL    HW137182   1.009   3.901   7.807  0.1084 -0.0756 -1.1898
11548SOL    HW237183   1.118   3.999   7.844  0.0986 -0.3628 -0.3823
11549SOL     OW37184   5.040   8.382   3.783  0.0179  0.0217  0.1158
11549SOL    HW137185   5.102   8.430   3.837  1.3276 -0.4689 -0.9155
11549SOL    HW237186   4.981   8.340   3.845  0.4967  0.7810  1.0982
11550SOL     OW37187   0.720   9.174   7.565  0.0265 -0.2129  0.4138
11550SOL    HW137188   0.679   9.159   7.650  1.3773 -0.4674  1.0364
11550SOL    HW237189   0.787   9.241   7.582 -0.3628  0.4715 -0.6557
11551SOL     OW37190   1.826   1.795   0.816  0.0097 -0.2782  0.0835
11551SOL    HW137191   1.916   1.796   0.783 -0.5047 -0.2221 -1.3497
11551SOL    HW237192   1.834   1.771   0.908  1.2782 -3.1373 -0.7192
11552SOL     OW37193   1.409   7.993   2.983  0.2702 -0.0350  0.4972
11552SOL    HW137194   1.465   7.916   2.994  0.5975 -0.3267 -2.6795
11552SOL    HW237195   1.334   7.961   2.932 -0.4758  1.3741  0.6790
11553SOL     OW37196   0.194   9.540   0.887  0.0880 -0.6598  0.4929
11553SOL    HW137197   0.147   9.498   0.814 -0.8068  0.1249  0.6116
11553SOL    HW237198   0.128   9.546   0.956  0.6984 -0.6052  1.0629
11554SOL     OW37199   7.827   7.710   9.329 -0.1397  0.0955 -0.2445
11554SOL    HW137200   7.874   7.628   9.315  1.1672  0.7285  0.3575
11554SOL    HW237201   7.831   7.754   9.244  0.5476  0.2304 -0.1507
11555SOL     OW37202   9.298   3.058   7.568 -0.7010 -0.4162 -0.5222
11555SOL    HW137203   9.282   2.969   7.535  1.3856 -0.6806 -0.9121
11555SOL    HW237204   9.305   3.046   7.663  0.0310 -0.7497 -0.6145
11556SOL     OW37205   5.215   2.342   0.815  0.3155  0.1771 -0.0534
11556SOL    HW137206   5.172   2.396   0.881 -1.0175  0.3174 -1.0032
11556SOL    HW237207   5.219   2.255   0.855 -1.5087 -0.0040 -0.1847
11557SOL     OW37208   2.425   9.036   4.633 -0.4610 -0.5953 -0.6910
11557SOL    HW137209   2.429   8.950   4.592  0.4538 -0.7355 -0.3083
11557SOL    HW237210   2.515   9.068   4.631 -0.3587 -0.6766  1.3625
11558SOL     OW37211   6.545   5.652   8.124  0.5395  0.3012  0.1884
11558SOL    HW137212   6.500   5.717   8.071  1.4539  0.6500 -0.1739
11558SOL    HW237213   6.605   5.703   8.179  0.3622 -0.1378  0.7997
11559SOL     OW37214   3.053   6.871   2.856  0.5537 -0.6612  0.0562
11559SOL    HW137215   3.053   6.775   2.862  0.6591 -0.7031 -0.5998
11559SOL    HW237216   3.105   6.900   2.931 -0.2104 -1.0862  0.7572
11560SOL     OW37217   3.030   2.435   5.957 -0.4450  0.3422  0.2805
11560SOL    HW137218   2.973   2.462   6.029  0.4744  1.2040  0.6923
11560SOL    HW237219   3.119   2.445   5.991 -0.0177  0.0196 -0.7112
11561SOL     OW37220   0.894   6.447   7.949  0.3700 -0.3515 -0.7877
11561SOL    HW137221   0.931   6.441   8.037 -0.5689  0.8934 -0.3067
11561SOL    HW237222   0.878   6.356   7.924  1.0884 -0.7410  0.1343
11562SOL     OW37223   7.124   4.946   2.201 -0.3077 -0.2542  0.0687
11562SOL    HW137224   7.045   4.987   2.167  0.6863 -0.2736 -2.3733
11562SOL    HW237225   7.100   4.854   2.212 -1.5492  0.3185  2.3927
11563SOL     OW37226   5.572   5.371   8.678  0.5827  0.4449  0.4588
11563SOL    HW137227   5.631   5.297   8.665  0.2576 -0.1286  2.0711
11563SOL    HW237228   5.494   5.333   8.719  0.0885  1.5577  0.5739
11564SOL     OW37229   7.547   3.406   9.281  0.5700  0.6627 -0.0008
11564SOL    HW137230   7.581   3.473   9.222  1.8476 -0.4411 -0.5621
11564SOL    HW237231   7.557   3.444   9.368  0.9073  1.3618 -0.3388
11565SOL     OW37232   9.364   1.457   7.073  0.6475 -0.1821  0.4440
11565SOL    HW137233   9.328   1.518   7.138 -0.0540  1.2399 -1.2185
11565SOL    HW237234   9.287   1.420   7.029  1.0782 -2.2005  1.3428
11566SOL     OW37235   0.223   4.062   9.735  0.6034 -0.0623 -0.1132
11566SOL    HW137236   0.316   4.054   9.756  0.6729 -3.7634 -1.6072
11566SOL    HW237237   0.196   3.974   9.711 -3.2565  1.0175  0.0327
11567SOL     OW37238   3.735   4.894   5.585  0.0235  0.0632 -0.1470
11567SOL    HW137239   3.708   4.866   5.672 -0.6666  0.0950 -0.3541
11567SOL    HW237240   3.803   4.960   5.601 -1.5944  1.6420  0.3929
11568SOL     OW37241   2.757   8.108   7.178 -0.1179 -0.3203 -0.3392
11568SOL    HW137242   2.764   8.102   7.273 -2.4198 -1.5891 -0.2083
11568SOL    HW237243   2.802   8.030   7.146  0.3462 -0.0790 -0.2719
11569SOL     OW37244   5.905   4.235   1.466 -0.3251 -0.0553  0.8999
11569SOL    HW137245   5.992   4.265   1.441  0.0426 -1.0567  0.9403
11569SOL    HW237246   5.847   4.272   1.400  0.1563  0.4797  0.7755
11570SOL     OW37247   8.040   9.921   9.119  0.1198 -0.0078  0.8511
11570SOL    HW137248   8.034  10.016   9.108 -1.4135 -0.1582  0.2155
11570SOL    HW237249   7.980   9.901   9.190 -1.3164 -0.7547 -0.5489
11571SOL     OW37250   5.275   9.743   0.354  0.4548  0.1952  1.0690
11571SOL    HW137251   5.299   9.727   0.262  0.3304 -1.0572  1.2456
11571SOL    HW237252   5.297   9.835   0.368  0.5288  0.3880 -0.2019
11572SOL     OW37253   0.913   1.407   1.052  0.3484 -0.2257  0.0024
11572SOL    HW137254   0.910   1.331   0.994  3.1138 -1.6544  1.5849
11572SOL    HW237255   0.854   1.385   1.124 -1.5951  0.7140 -1.2658
11573SOL     OW37256   3.636   5.768   0.495 -0.4203 -0.5110 -0.1203
11573SOL    HW137257   3.607   5.777   0.404 -1.6134 -2.7612  0.0198
11573SOL    HW237258   3.731   5.761   0.489 -0.1986  2.4065 -0.9307
11574SOL     OW37259   0.174   9.382   2.492  0.1629  0.4820 -0.0752
11574SOL    HW137260   0.227   9.456   2.519  0.0264  0.6480 -0.2536
11574SOL    HW237261   0.211   9.355   2.408 -0.9725  1.5730 -0.9597
11575SOL     OW37262   1.061   9.043   0.091  0.6199  0.7103  0.5068
11575SOL    HW137263   1.096   8.960   0.061  1.9167  1.5193 -0.2834
11575SOL    HW237264   1.136   9.087   0.133 -0.0163  1.5129  0.8195
11576SOL     OW37265   7.526   4.425   0.625 -0.8716  0.5291 -0.1971
11576SOL    HW137266   7.522   4.360   0.695  1.7905 -1.2518 -1.6031
11576SOL    HW237267   7.482   4.382   0.551 -2.1326  1.7147 -0.1547
11577SOL     OW37268   1.142   6.878   1.010 -0.1979  0.3785 -0.0162
11577SOL    HW137269   1.187   6.913   0.933 -0.6553  1.3952  0.1691
11577SOL    HW237270   1.177   6.930   1.083 -0.4413  0.0404  0.3415
11578SOL     OW37271  10.117   5.786   2.293 -0.1151 -0.2058  0.2198
11578SOL    HW137272  10.211   5.800   2.296 -0.1950  0.1653  1.0120
11578SOL    HW237273  10.104   5.721   2.223  0.5876  0.8762 -0.9373
11579SOL     OW37274  10.064   0.406   1.006  0.3172 -0.4516 -0.3423
11579SOL    HW137275  10.029   0.329   0.962 -1.4885  0.4363 -0.4932
11579SOL    HW237276  10.021   0.406   1.092 -1.0112  1.3146 -0.9758
11580SOL     OW37277   5.720   8.813   6.056 -0.4243 -0.5279  0.3266
11580SOL    HW137278   5.752   8.743   6.113 -0.3990  0.9762  2.2023
11580SOL    HW237279   5.635   8.837   6.093 -0.9284 -0.2944 -0.9614
11581SOL     OW37280   7.549   7.550   6.823 -0.2236  0.3091  0.5156
11581SOL    HW137281   7.618   7.537   6.888  0.5663  0.8974 -0.2058
11581SOL    HW237282   7.469   7.521   6.868  0.5836 -1.0958  1.1040
11582SOL     OW37283   4.098   8.308   8.386 -0.3618 -0.2072  0.0860
11582SOL    HW137284   4.005   8.297   8.409 -0.8836  1.0251 -1.3683
11582SOL    HW237285   4.117   8.399   8.406  0.4352 -0.3572  0.0146
11583SOL     OW37286   2.804   1.009   7.203  0.8090  0.3385  0.4344
11583SOL    HW137287   2.847   1.073   7.260  0.8039  0.3438  0.4323
11583SOL    HW237288   2.870   0.987   7.137  0.8290  0.3016  0.4664
11584SOL     OW37289   2.309   6.267   5.561  0.3784  0.3723 -0.1564
11584SOL    HW137290   2.402   6.247   5.551  0.5931  0.5830  1.3953
11584SOL    HW237291   2.307   6.356   5.595 -0.4091  0.5127 -0.5641
11585SOL     OW37292   5.537   6.598   5.966  0.0503 -0.0969  0.2831
11585SOL    HW137293   5.526   6.567   5.876  1.1476  0.1861  0.0377
11585SOL    HW237294   5.606   6.542   6.002  0.7033  0.8026  0.4530
11586SOL     OW37295   3.137   0.095   2.978  0.2434 -0.3316  0.0810
11586SOL    HW137296   3.224   0.133   2.962  0.3086 -0.9255 -0.9948
11586SOL    HW237297   3.119   0.042   2.900 -1.2440  0.0800  0.1267
11587SOL     OW37298   3.113   3.656   6.500 -0.0119 -0.4003  0.5159
11587SOL    HW137299   3.094   3.563   6.514 -0.4299 -0.0586  2.2670
11587SOL    HW237300   3.032   3.701   6.524 -0.0249  0.3834 -0.9349
11588SOL     OW37301   7.711   4.029   3.532 -0.1566  0.0604  0.3926
11588SOL    HW137302   7.768   4.106   3.539  0.2968 -0.0411 -1.9675
11588SOL    HW237303   7.767   3.955   3.554 -0.2116  0.2503  1.1946
11589SOL     OW37304   5.740   5.681   0.010  0.0520  0.3512  0.6997
11589SOL    HW137305   5.781   5.631   0.081  0.3269  0.9857  0.9906
11589SOL    HW237306   5.810   5.694  -0.054  0.1248  0.8325  0.8750
11590SOL     OW37307   9.398   2.999   9.564  0.3641 -0.1956 -0.1632
11590SOL    HW137308   9.418   3.038   9.479 -1.3118  0.2273 -0.3843
11590SOL    HW237309   9.404   2.905   9.549  1.1240 -0.0968 -0.4813
11591SOL     OW37310   8.903   4.840   3.754 -0.8347 -0.1115  0.1212
11591SOL    HW137311   8.823   4.789   3.763 -0.8409  0.0061  0.7752
11591SOL    HW237312   8.937   4.848   3.843 -0.5323  0.5470 -0.0467
11592SOL     OW37313   8.084   0.940   5.606 -0.0017 -0.5115 -0.1487
11592SOL    HW137314   8.031   0.996   5.662  0.8370 -1.3795  1.5487
11592SOL    HW237315   8.024   0.871   5.577  0.5006 -2.4009  3.0558
11593SOL     OW37316   6.758   0.030   8.411  0.3831 -0.2071  0.4595
11593SOL    HW137317   6.689   0.017   8.346  0.5184 -0.6236  0.3947
11593SOL    HW237318   6.718   0.085   8.478  0.8489  1.8594 -0.9395
11594SOL     OW37319   2.384   5.350   9.875 -0.1115  0.0211  0.7153
11594SOL    HW137320   2.296   5.388   9.876  0.8457  2.3588 -0.4246
11594SOL    HW237321   2.373   5.267   9.828 -1.7932  0.0753  0.9771
11595SOL     OW37322   0.747   0.719   2.940  0.9588 -0.4779 -0.0726
11595SOL    HW137323   0.734   0.630   2.973  2.5083 -0.8901 -0.5130
11595SOL    HW237324   0.841   0.735   2.950  0.8412  0.7798 -0.8152
11596SOL     OW37325   4.673   5.500  10.163  0.2371 -0.2134  0.2901
11596SOL    HW137326   4.684   5.451  10.244 -0.3473  0.5110  0.8151
11596SOL    HW237327   4.696   5.590  10.186 -0.2976  0.0667 -0.2457
11597SOL     OW37328   1.192   5.194   5.924 -0.6103  0.2833 -0.0546
11597SOL    HW137329   1.173   5.174   5.832 -1.7633 -2.6399  0.7616
11597SOL    HW237330   1.212   5.287   5.924  0.6694  0.0882 -3.4643
11598SOL     OW37331   0.150   6.815   3.305 -0.1384 -0.0260 -0.1244
11598SOL    HW137332   0.098   6.738   3.330 -1.3017  0.8057  0.0827
11598SOL    HW237333   0.139   6.822   3.211 -1.4830  0.8877  0.0777
11599SOL     OW37334   4.303   1.534   4.590 -0.4273  0.3674 -0.4758
11599SOL    HW137335   4.357   1.518   4.668 -0.6185  0.0640 -0.4068
11599SOL    HW237336   4.336   1.472   4.525 -0.3398  0.5472 -0.6018
11600SOL     OW37337   5.319   6.854   7.772  0.1245  0.3499  0.1528
11600SOL    HW137338   5.389   6.825   7.713 -1.3526  1.3563 -2.1700
11600SOL    HW237339   5.277   6.774   7.802 -0.0936 -0.1475 -1.4272
11601SOL     OW37340   7.923   4.004   5.932  0.6256  0.3131  0.2228
11601SOL    HW137341   7.929   4.075   5.996 -0.9878  0.1575  0.5546
11601SOL    HW237342   7.864   4.037   5.864  1.0140 -0.1606 -0.3567
11602SOL     OW37343   9.706   6.416  10.197 -0.1529 -0.2657  0.2288
11602SOL    HW137344   9.776   6.434  10.260 -0.0723 -0.5956  0.2321
11602SOL    HW237345   9.729   6.472  10.122  0.4811 -0.8635 -0.0304
11603SOL     OW37346   7.821   2.818   7.193 -0.3456 -0.3351 -0.0237
11603SOL    HW137347   7.855   2.896   7.235  1.5886 -1.1780  0.0087
11603SOL    HW237348   7.852   2.823   7.103 -2.0248 -0.0085 -0.6148
11604SOL     OW37349   6.567   6.978   7.806  0.3128  0.5753  0.2770
11604SOL    HW137350   6.601   6.893   7.833  0.6784  0.8373  0.6568
11604SOL    HW237351   6.557   7.027   7.888  0.3892  0.9999  0.0357
11605SOL     OW37352   9.435  10.025   6.870  0.0127  0.2835 -0.1906
11605SOL    HW137353   9.392   9.981   6.943 -0.6705  0.5604 -0.4176
11605SOL    HW237354   9.507   9.967   6.845 -0.1513 -0.1217  0.2791
11606SOL     OW37355   4.099   6.577   1.221 -0.1168 -0.9143 -0.2649
11606SOL    HW137356   4.159   6.524   1.272  0.6842  1.1064  0.9769
11606SOL    HW237357   4.068   6.519   1.151  1.6984 -2.5871  0.2770
11607SOL     OW37358   2.724   8.497   4.440  0.5715 -0.0600  0.1621
11607SOL    HW137359   2.700   8.443   4.516 -1.7755 -1.2216 -1.3172
11607SOL    HW237360   2.694   8.585   4.463  0.0911 -0.3536  0.6941
11608SOL     OW37361  10.002   3.585   7.992  0.4778 -0.0776 -0.0579
11608SOL    HW137362  10.061   3.512   7.974  1.6512  0.5629  1.1152
11608SOL    HW237363   9.915   3.550   7.975  0.8472 -2.4467  2.7132
11609SOL     OW37364   4.709   0.615   5.098  0.1314  0.0840 -0.1006
11609SOL    HW137365   4.709   0.585   5.007 -2.5454 -1.1971  0.2765
11609SOL    HW237366   4.658   0.696   5.096 -2.1835 -1.3021  0.6137
11610SOL     OW37367   1.101   3.292   9.547  0.2478 -0.0005  0.0330
11610SOL    HW137368   1.017   3.331   9.570  0.1493 -0.2897  0.1737
11610SOL    HW237369   1.098   3.281   9.452  0.1881  0.1305  0.0204
11611SOL     OW37370   4.729   0.080   3.960 -0.3263  0.2445  0.1309
11611SOL    HW137371   4.643   0.050   3.929 -0.5777  0.0107  1.0115
11611SOL    HW237372   4.791   0.050   3.893 -0.9248  0.3538 -0.4757
11612SOL     OW37373   7.064   4.793   2.820  0.1412  0.2976  0.1873
11612SOL    HW137374   7.150   4.751   2.810  0.1717  0.5141 -0.4909
11612SOL    HW237375   7.049   4.837   2.737 -1.4320 -1.2371 -0.3925
11613SOL     OW37376   8.693   5.664   4.022  0.6074 -0.2940 -0.1928
11613SOL    HW137377   8.723   5.577   4.048  2.6553  0.2759 -0.5651
11613SOL    HW237378   8.634   5.691   4.092  2.2544 -0.7864  1.4249
11614SOL     OW37379   6.011   5.308   0.730 -0.0591 -0.2033  0.2018
11614SOL    HW137380   6.077   5.239   0.728 -0.5069 -0.6217 -0.1748
11614SOL    HW237381   6.059   5.388   0.707  0.2425 -0.5606 -0.4007
11615SOL     OW37382   7.984   5.064   9.652 -0.1425 -0.7400 -0.2498
11615SOL    HW137383   8.030   4.980   9.647  0.4051 -0.3919 -1.1484
11615SOL    HW237384   8.012   5.101   9.736 -0.5237 -1.5319  0.2323
11616SOL     OW37385   3.758   9.378   8.788  0.2450  0.1805 -0.1530
11616SOL    HW137386   3.687   9.398   8.726  0.4680  2.0382  0.1526
11616SOL    HW237387   3.804   9.304   8.749 -0.6037  0.2886 -1.3941
11617SOL     OW37388   7.613   6.467   2.861 -0.3058  0.2968  0.0154
11617SOL    HW137389   7.639   6.551   2.897  1.4643 -0.1290 -0.2472
11617SOL    HW237390   7.655   6.402   2.918  0.2616 -0.3969 -1.1676
11618SOL     OW37391   4.809   2.385   6.683  0.4352  0.3252 -0.0187
11618SOL    HW137392   4.726   2.343   6.703 -1.8409  4.0071 -1.2467
11618SOL    HW237393   4.841   2.340   6.605 -1.8279  0.6569 -1.1785
11619SOL     OW37394   9.224   9.875   3.889  0.0648  0.5117 -0.2498
11619SOL    HW137395   9.195   9.787   3.914 -0.4028  0.9665  0.8524
11619SOL    HW237396   9.295   9.860   3.826  0.5593 -0.6532  0.5709
11620SOL     OW37397   3.821   2.536   3.931 -0.0558 -1.0011  0.0578
11620SOL    HW137398   3.871   2.582   3.863 -1.1837  0.0323 -0.0955
11620SOL    HW237399   3.864   2.559   4.013 -1.4542  1.5166  0.1232
11621SOL     OW37400   8.671   0.917   5.015  0.0857  0.0088  0.1351
11621SOL    HW137401   8.708   0.925   4.927  0.3434  0.9941  0.3267
11621SOL    HW237402   8.609   0.843   5.009  0.5936 -0.3544 -0.6944
11622SOL     OW37403   3.018   8.156   3.112  0.0712  0.1028  0.6936
11622SOL    HW137404   3.096   8.111   3.078  0.1488  0.9650 -0.2933
11622SOL    HW237405   3.015   8.132   3.205 -0.0113 -2.1133  0.1587
11623SOL     OW37406   3.789   1.164   3.482 -0.1760 -0.2349 -0.0955
11623SOL    HW137407   3.811   1.185   3.573 -1.2954  1.2012 -0.1324
11623SOL    HW237408   3.841   1.226   3.431  2.7492 -2.9796 -0.6188
11624SOL     OW37409   8.316   6.023   8.386  0.8727 -0.3094  0.0284
11624SOL    HW137410   8.298   6.062   8.472  0.4866 -0.3047 -0.0538
11624SOL    HW237411   8.234   5.979   8.363  0.6035  0.6681 -0.8737
11625SOL     OW37412   1.637   2.911   4.735  0.5506 -0.4733  0.1374
11625SOL    HW137413   1.709   2.858   4.770  0.2650 -0.1120  1.2905
11625SOL    HW237414   1.677   2.997   4.720  0.9040 -0.8784 -1.3184
11626SOL     OW37415   3.272   3.307   3.629 -0.4724  0.2932  0.6027
11626SOL    HW137416   3.210   3.289   3.558 -1.1038  1.2730  0.9007
11626SOL    HW237417   3.271   3.228   3.683 -0.4398 -0.2231 -0.1479
11627SOL     OW37418   8.304   5.737   1.103  0.0007  0.4014  0.0438
11627SOL    HW137419   8.286   5.831   1.091  1.8361  0.5692 -1.6084
11627SOL    HW237420   8.380   5.734   1.161  1.9204  0.0850 -2.3787
11628SOL     OW37421   9.865   9.464   8.181  0.1600 -0.3714 -0.2475
11628SOL    HW137422   9.941   9.515   8.151 -0.7213  0.7523 -0.5775
11628SOL    HW237423   9.874   9.462   8.276  1.0100 -0.8969 -0.3271
11629SOL     OW37424   7.128   8.395   6.115  0.1603 -0.1551 -0.1712
11629SOL    HW137425   7.149   8.373   6.024  1.4553  0.4946 -0.0511
11629SOL    HW237426   7.033   8.397   6.118  0.0987 -0.6355 -1.4052
11630SOL     OW37427   3.560   2.997   2.009 -0.6732  0.3416  0.0832
11630SOL    HW137428   3.530   2.919   1.964 -0.1184  0.1551  0.0450
11630SOL    HW237429   3.491   3.014   2.075 -0.1770 -0.8986  0.9376
11631SOL     OW37430   2.822   4.274   9.645 -0.1249 -1.1085 -0.0737
11631SOL    HW137431   2.782   4.284   9.732  0.5639 -0.6911  0.1987
11631SOL    HW237432   2.749   4.279   9.584 -0.9891 -4.0350  0.6170
11632SOL     OW37433   6.666   1.177   0.701  0.0865 -0.8664  0.0332
11632SOL    HW137434   6.592   1.142   0.750  0.0049  0.1738  0.6617
11632SOL    HW237435   6.627   1.216   0.623  0.1113 -1.5499 -0.3247
11633SOL     OW37436   7.312   6.519   5.825 -0.3062 -0.2848  0.1304
11633SOL    HW137437   7.390   6.480   5.786 -0.4842 -1.2305  0.7196
11633SOL    HW237438   7.346   6.586   5.885  0.0033  0.3688 -0.7685
11634SOL     OW37439   1.534   9.763   0.427 -0.2655 -0.4073 -0.2661
11634SOL    HW137440   1.542   9.670   0.446 -0.4222 -0.6414 -1.3350
11634SOL    HW237441   1.440   9.780   0.427 -0.3308 -0.6836 -2.0955
11635SOL     OW37442   2.699   6.519   1.765 -0.4063 -0.1703  0.0229
11635SOL    HW137443   2.758   6.589   1.793  0.5197 -1.0632  0.3351
11635SOL    HW237444   2.628   6.521   1.828  0.0544 -0.0823  0.5427
11636SOL     OW37445   9.702   7.055   0.907  0.2192  0.0838 -0.6501
11636SOL    HW137446   9.619   7.088   0.874 -1.2416 -2.4588  0.3255
11636SOL    HW237447   9.734   6.997   0.837  0.5396  0.0974 -0.5156
11637SOL     OW37448   5.349   8.632   5.393  0.2457  0.4022  0.1016
11637SOL    HW137449   5.313   8.574   5.326  0.0069 -0.5015  1.0144
11637SOL    HW237450   5.279   8.695   5.411 -0.2744 -0.3485  0.6871
11638SOL     OW37451   4.839   7.433   2.099  0.2479  0.0585 -0.1571
11638SOL    HW137452   4.931   7.435   2.126  0.4032 -0.6169 -0.6181
11638SOL    HW237453   4.841   7.393   2.012 -0.8478 -3.5184  1.3761
11639SOL     OW37454   9.401   0.720   4.975 -0.3392  0.4180 -0.3246
11639SOL    HW137455   9.375   0.651   5.036  0.5355 -0.1060 -0.5299
11639SOL    HW237456   9.429   0.792   5.031  0.5658 -0.1011 -0.0940
11640SOL     OW37457   0.475   6.371   1.428  0.0266 -0.9057 -0.5162
11640SOL    HW137458   0.433   6.347   1.346  0.9861 -1.7493 -0.7599
11640SOL    HW237459   0.438   6.311   1.492  0.0509 -0.9268 -0.5217
11641SOL     OW37460   3.149   8.219   4.633 -0.2843  0.2807  0.2961
11641SOL    HW137461   3.061   8.216   4.671  0.1495 -0.0062  1.2960
11641SOL    HW237462   3.205   8.181   4.700  0.5473  0.0737 -0.5097
11642SOL     OW37463   4.959   8.947   9.851 -0.1631 -0.4090  0.6229
11642SOL    HW137464   4.939   8.862   9.890 -2.5895 -0.3056 -0.3345
11642SOL    HW237465   4.965   9.006   9.926  0.5565 -1.2030  1.2141
11643SOL     OW37466   2.779   1.885   2.313  0.6155 -0.0459  0.7981
11643SOL    HW137467   2.731   1.945   2.370 -1.2110  0.5637 -1.2927
11643SOL    HW237468   2.813   1.940   2.243  1.2726 -1.0332  0.3275
11644SOL     OW37469   3.087   8.181   5.890 -0.2896  0.1486 -0.3313
11644SOL    HW137470   3.182   8.181   5.885 -0.2493  2.2997 -0.1523
11644SOL    HW237471   3.059   8.214   5.805 -0.9322 -1.6297 -0.8277
11645SOL     OW37472   4.550   1.473   8.126  0.0066  0.0753  0.1987
11645SOL    HW137473   4.624   1.496   8.068  2.0063 -2.2607  1.7092
11645SOL    HW237474   4.515   1.392   8.088  0.4663 -0.7271  1.4780
11646SOL     OW37475   7.209   1.085   8.733  0.5076 -0.0194  0.1326
11646SOL    HW137476   7.219   1.006   8.680  0.5430  0.1278 -0.0812
11646SOL    HW237477   7.119   1.080   8.766  0.8017 -0.6022  0.8598
11647SOL     OW37478   3.051   7.866   0.123  0.2382 -0.2782  0.3076
11647SOL    HW137479   3.034   7.805   0.052  0.7898 -0.2749  0.1738
11647SOL    HW237480   3.082   7.945   0.080 -1.1790  0.3685  0.4197
11648SOL     OW37481   0.230   3.405   9.554  0.1791  0.2274 -0.5055
11648SOL    HW137482   0.192   3.317   9.561  0.6038  0.1152  0.4635
11648SOL    HW237483   0.169   3.453   9.499 -0.5676 -0.3939 -0.2362
11649SOL     OW37484   3.153   1.898   0.502  0.0649  0.9137 -0.3783
11649SOL    HW137485   3.199   1.870   0.582  1.2552 -0.0049 -1.3712
11649SOL    HW237486   3.087   1.830   0.488  0.6943  0.4127 -0.8887
11650SOL     OW37487   0.229   9.458   6.007  0.0807  0.1140 -0.1500
11650SOL    HW137488   0.300   9.432   5.949  0.8387  1.0129  0.3662
11650SOL    HW237489   0.192   9.375   6.038  0.7165 -0.3553 -0.6395
11651SOL     OW37490   0.639   4.597   6.356 -0.7827 -0.3608 -1.1879
11651SOL    HW137491   0.705   4.652   6.315 -0.5048  1.2760  1.3449
11651SOL    HW237492   0.655   4.509   6.321  0.9749  0.5234 -2.6552
11652SOL     OW37493   8.485   5.514   6.513 -0.4424 -0.2766  0.2337
11652SOL    HW137494   8.444   5.600   6.516 -1.2520 -0.6544  0.1056
11652SOL    HW237495   8.511   5.503   6.421  0.7719  0.3429  0.4987
11653SOL     OW37496   0.595   3.437   2.980  0.5798 -0.2328 -0.3252
11653SOL    HW137497   0.602   3.450   2.886  2.9504 -0.6300 -0.2491
11653SOL    HW237498   0.583   3.525   3.016 -1.3846 -0.1819 -1.0347
11654SOL     OW37499   8.713   6.942   6.958  0.4867  0.1485 -0.3306
11654SOL    HW137500   8.764   7.022   6.971 -1.2451  1.8321 -3.5316
11654SOL    HW237501   8.632   6.957   7.008  1.8831 -1.4278  2.5451
11655SOL     OW37502   9.360   0.660   2.407 -0.1662 -0.4228  0.3345
11655SOL    HW137503   9.321   0.659   2.320  1.4817  0.8671 -0.4468
11655SOL    HW237504   9.444   0.705   2.396 -0.2675  0.4819  2.7202
11656SOL     OW37505   7.941   7.266   3.359 -0.4951  0.0698  0.0620
11656SOL    HW137506   8.031   7.235   3.367 -0.5901 -0.1384  0.3588
11656SOL    HW237507   7.919   7.298   3.446 -0.1050  1.8060 -0.4737
11657SOL     OW37508   3.340   3.384   6.431  0.1176 -0.2749  0.9448
11657SOL    HW137509   3.377   3.302   6.400 -0.0081  0.6858 -1.8882
11657SOL    HW237510   3.412   3.447   6.424 -1.4626  1.2431 -3.0520
11658SOL     OW37511   1.635   3.532   9.001  0.0806  0.0064  0.5098
11658SOL    HW137512   1.635   3.444   8.963 -0.6534  0.1682  0.1327
11658SOL    HW237513   1.578   3.524   9.078  0.4255  0.0287  0.7702
11659SOL     OW37514   4.185   4.062   0.647 -0.4659 -0.6702  0.2568
11659SOL    HW137515   4.119   4.041   0.713 -0.5160 -0.9962  0.1090
11659SOL    HW237516   4.266   4.075   0.696 -0.5547 -0.6709  0.4022
11660SOL     OW37517   2.891   9.162   9.035 -0.3169  0.7816 -0.2514
11660SOL    HW137518   2.807   9.200   9.010 -1.0336  0.2074  1.2412
11660SOL    HW237519   2.901   9.185   9.128  1.6830  1.7817 -0.6819
11661SOL     OW37520   6.409   9.454   5.514  0.1008 -0.0751  0.6278
11661SOL    HW137521   6.488   9.465   5.566  0.7439  0.8021 -0.4997
11661SOL    HW237522   6.383   9.543   5.490  0.1087 -0.4735 -0.9402
11662SOL     OW37523   1.234   9.885   9.687  0.3923  0.1142  0.2194
11662SOL    HW137524   1.191   9.799   9.684  0.1959  0.2291 -0.2427
11662SOL    HW237525   1.235   9.914   9.596  0.8969  0.3849  0.3119
11663SOL     OW37526   7.235   0.210   3.399  0.1684  0.1715 -0.1421
11663SOL    HW137527   7.301   0.153   3.360  0.1171 -0.3261  0.4921
11663SOL    HW237528   7.285   0.286   3.429  0.3142  0.2215 -0.5042
11664SOL     OW37529   7.070   6.739   0.047  0.2053  0.4324 -0.0726
11664SOL    HW137530   7.058   6.647   0.022  0.3322  0.3748  0.0800
11664SOL    HW237531   6.992   6.783   0.013 -1.2239 -0.2002  2.2986
11665SOL     OW37532   8.545   7.615   0.209 -0.1310 -0.1362  0.3717
11665SOL    HW137533   8.458   7.582   0.186  0.4939 -0.9900 -0.8508
11665SOL    HW237534   8.529   7.678   0.279 -1.5908 -1.4223  1.2545
11666SOL     OW37535   4.326  10.150   4.478 -0.1646 -0.5017 -0.3171
11666SOL    HW137536   4.250  10.184   4.525  0.0124 -0.5543  0.0065
11666SOL    HW237537   4.292  10.075   4.428 -0.2875 -0.6308 -0.0396
11667SOL     OW37538   2.167   3.051   2.465 -0.3216  0.3563 -0.3202
11667SOL    HW137539   2.181   3.041   2.370  2.3442  1.3659 -0.0816
11667SOL    HW237540   2.179   2.963   2.500 -0.7393  0.0778 -0.8715
11668SOL     OW37541   1.903   1.219   6.080 -0.2256 -0.1739  0.0473
11668SOL    HW137542   1.956   1.208   6.160  0.7549 -0.4539 -0.6367
11668SOL    HW237543   1.959   1.188   6.010  0.3592  3.6212 -1.2555
11669SOL     OW37544   3.244   7.101   5.665 -0.1380  0.3222 -0.4218
11669SOL    HW137545   3.289   7.045   5.602 -0.7128 -0.6689  0.0432
11669SOL    HW237546   3.151   7.092   5.644 -0.1420  2.2804 -1.3067
11670SOL     OW37547   0.101   8.491   1.944  0.3292 -0.5636  0.0992
11670SOL    HW137548   0.108   8.473   1.850 -1.7131  0.5090 -0.2926
11670SOL    HW237549   0.159   8.427   1.985  1.4964 -0.8466 -1.9034
11671SOL     OW37550   9.972   9.958   0.417 -0.7386 -0.3156 -0.1126
11671SOL    HW137551  10.041  10.021   0.397 -1.3062 -0.3892 -2.4977
11671SOL    HW237552   9.891  10.008   0.410 -1.1367 -1.0611 -1.1549
11672SOL     OW37553   0.558   5.668   9.475 -0.2119  0.1868  0.0365
11672SOL    HW137554   0.579   5.577   9.496 -1.4712  0.0258  0.6550
11672SOL    HW237555   0.620   5.692   9.406 -0.3491 -1.3740 -0.6541
11673SOL     OW37556   6.689   6.353   7.154 -0.3449 -0.0178  0.0321
11673SOL    HW137557   6.761   6.367   7.216  0.6551 -0.1307 -1.0780
11673SOL    HW237558   6.618   6.408   7.186  0.1971 -0.0040  1.2201
11674SOL     OW37559   8.960   1.230   6.870  0.3944  0.1859  0.7806
11674SOL    HW137560   9.027   1.161   6.873  0.2544  0.1079  3.1743
11674SOL    HW237561   8.883   1.187   6.833  0.4449 -0.8317  1.8297
11675SOL     OW37562   3.421   5.418   0.262 -0.4274 -0.2179 -0.3234
11675SOL    HW137563   3.401   5.343   0.206 -2.1704 -1.4918  1.9165
11675SOL    HW237564   3.352   5.482   0.244  0.0521  0.1381 -0.9320
11676SOL     OW37565   3.538   1.374   0.295 -0.4298  0.7296 -0.0808
11676SOL    HW137566   3.558   1.323   0.374 -0.5848 -0.8824 -1.0427
11676SOL    HW237567   3.449   1.346   0.272  0.2984 -0.1991 -1.8449
11677SOL     OW37568   6.803   5.453   6.448 -0.2438  0.2087 -0.1253
11677SOL    HW137569   6.873   5.513   6.475  1.0750 -1.0052 -0.7678
11677SOL    HW237570   6.725   5.487   6.491  0.6565  1.8354  0.2861
11678SOL     OW37571   2.075   1.530   4.339 -1.0661 -0.5395 -0.2566
11678SOL    HW137572   2.002   1.513   4.398 -1.6102  0.5040 -0.6173
11678SOL    HW237573   2.034   1.555   4.256 -0.3736  3.9238  0.6144
11679SOL     OW37574   3.213   3.242   5.640 -0.3490  0.5794 -0.7626
11679SOL    HW137575   3.163   3.321   5.620 -0.8432  0.8188  1.3311
11679SOL    HW237576   3.303   3.273   5.649 -0.1597  0.5095 -2.2798
11680SOL     OW37577   1.315   4.109   7.786 -0.3411  0.1796  0.4056
11680SOL    HW137578   1.387   4.128   7.726  0.9596 -0.2706  1.7780
11680SOL    HW237579   1.355   4.112   7.873 -1.0855 -3.9162  1.0007
11681SOL     OW37580   3.665   6.594  10.105  0.5559  0.0434  0.2176
11681SOL    HW137581   3.704   6.507  10.098  0.3371 -0.0563  0.2143
11681SOL    HW237582   3.737   6.652  10.128  1.3752  0.4016 -2.9438
11682SOL     OW37583   2.295   1.338   9.683 -0.1589 -0.5206 -0.4355
11682SOL    HW137584   2.298   1.430   9.658  0.5592 -0.2858  0.4634
11682SOL    HW237585   2.214   1.305   9.645  0.9443 -0.2230 -3.1171
11683SOL     OW37586   3.406   2.442   4.880 -0.4368  0.1111  0.0742
11683SOL    HW137587   3.411   2.533   4.907 -1.8637 -0.2020  1.5031
11683SOL    HW237588   3.408   2.445   4.785 -1.4581  1.7105  0.0797
11684SOL     OW37589   0.328   2.699   2.353  0.2368 -0.1201  0.0669
11684SOL    HW137590   0.289   2.613   2.371  1.1189 -0.7413 -0.9185
11684SOL    HW237591   0.284   2.758   2.414 -1.5272 -0.9843 -0.3378
11685SOL     OW37592   8.928   8.105   3.910  0.0108  0.0733  0.1859
11685SOL    HW137593   8.854   8.139   3.962  0.9857 -2.3205  3.2893
11685SOL    HW237594   8.889   8.036   3.856 -0.2620 -0.3163  0.8741
11686SOL     OW37595   3.844   8.696   5.985  0.1724 -0.1819 -1.1560
11686SOL    HW137596   3.778   8.629   5.967 -0.4574  0.0976  0.0915
11686SOL    HW237597   3.811   8.774   5.941 -0.1074 -0.1523 -0.8907
11687SOL     OW37598   1.771   5.132   4.056  0.2250  0.1051  0.3668
11687SOL    HW137599   1.782   5.221   4.088  0.0881  0.7653 -1.3534
11687SOL    HW237600   1.821   5.130   3.974 -0.4499 -1.1530 -0.0265
11688SOL     OW37601   7.531   1.046   1.722 -0.5050 -0.0582  0.2403
11688SOL    HW137602   7.614   1.015   1.757 -1.1616  0.0729  1.9752
11688SOL    HW237603   7.508   0.982   1.654  1.0439 -0.0361 -0.3179
11689SOL     OW37604   7.645   9.733   8.130  0.3391  0.1011 -0.5700
11689SOL    HW137605   7.620   9.759   8.041 -1.6803 -0.4171 -0.1862
11689SOL    HW237606   7.642   9.814   8.181 -1.1359 -0.0212 -0.4262
11690SOL     OW37607   9.053   5.851   3.795 -0.1218  0.1899  0.6593
11690SOL    HW137608   9.071   5.821   3.884  0.3720 -1.3976  0.0384
11690SOL    HW237609   9.119   5.919   3.779 -0.0453  0.2932  1.4078
11691SOL     OW37610   1.520   8.196   8.777 -0.1875  0.1126 -0.2605
11691SOL    HW137611   1.474   8.241   8.706  0.5090  1.8939  0.3951
11691SOL    HW237612   1.612   8.199   8.752  0.2310  2.1320  1.4553
11692SOL     OW37613   3.256   2.217   3.921 -0.2490  0.4712  0.0399
11692SOL    HW137614   3.165   2.237   3.898  0.0659  1.5394 -0.2994
11692SOL    HW237615   3.282   2.148   3.859 -1.4206 -1.2466  1.3929
11693SOL     OW37616   9.272   0.830  10.091 -0.1495  0.7668 -0.3393
11693SOL    HW137617   9.202   0.766  10.108  1.3321 -0.7795 -0.0034
11693SOL    HW237618   9.322   0.833  10.172  1.3100  0.4435 -1.2129
11694SOL     OW37619   4.834   0.190   7.207  0.0681  0.6607 -0.1221
11694SOL    HW137620   4.904   0.160   7.149 -0.3107  0.0871 -0.2838
11694SOL    HW237621   4.798   0.110   7.245 -0.8916  0.9126 -0.4845
11695SOL     OW37622   9.560   1.527   9.917 -0.5658  0.4155 -0.0751
11695SOL    HW137623   9.587   1.618   9.929 -1.0831  0.7977 -1.7455
11695SOL    HW237624   9.487   1.531   9.856  0.5944 -1.2775 -1.6157
11696SOL     OW37625   3.098   5.445   1.721  0.3027 -0.3696  0.1114
11696SOL    HW137626   3.143   5.530   1.726 -0.1238 -0.0843 -0.8969
11696SOL    HW237627   3.005   5.467   1.722  0.1938 -0.7873 -0.7849
11697SOL     OW37628   5.088   6.363   4.822  0.0683 -0.4359  0.0074
11697SOL    HW137629   5.102   6.292   4.885 -2.8693 -1.1225 -0.0529
11697SOL    HW237630   5.166   6.362   4.767  0.4249 -3.1020  0.5019
11698SOL     OW37631   5.426   3.459   5.170  0.8672  0.0507  0.1966
11698SOL    HW137632   5.409   3.381   5.117 -0.4096 -0.1201  0.8399
11698SOL    HW237633   5.428   3.427   5.260  1.7760  0.5403  0.3619
11699SOL     OW37634   8.148   7.181   5.264 -0.6119 -0.0352 -0.3532
11699SOL    HW137635   8.153   7.125   5.186  2.4630  0.9847 -0.9229
11699SOL    HW237636   8.108   7.262   5.232 -1.1222 -0.3177 -0.4431
11700SOL     OW37637   9.506   2.631   5.212  0.2093 -0.2516 -0.1571
11700SOL    HW137638   9.456   2.633   5.130 -1.6290  0.8014  0.9446
11700SOL    HW237639   9.458   2.690   5.270  2.6930  0.7034  0.9993
11701SOL     OW37640   1.002   5.417   1.604  0.0072 -0.0466  0.0945
11701SOL    HW137641   0.965   5.414   1.692 -1.6353 -0.4356 -0.6018
11701SOL    HW237642   1.036   5.329   1.589  1.7704  0.4527  0.9378
11702SOL     OW37643   7.364   5.896   1.155 -0.3290  0.5375 -0.3354
11702SOL    HW137644   7.397   5.980   1.125  0.3073  0.9932  1.5819
11702SOL    HW237645   7.341   5.910   1.247  2.0998 -1.9918  0.7254
11703SOL     OW37646   6.182   0.035   9.601 -0.2513  0.5960 -0.4161
11703SOL    HW137647   6.249   0.045   9.668 -0.4632  1.1807 -0.2897
11703SOL    HW237648   6.138  -0.047   9.623  0.5168  0.1366 -0.5867
11704SOL     OW37649   5.273   7.390   0.840 -0.4980 -0.3414  0.2219
11704SOL    HW137650   5.315   7.313   0.876 -1.6271 -0.6915  0.7753
11704SOL    HW237651   5.300   7.462   0.898  0.4962 -0.3133 -0.2569
11705SOL     OW37652   3.722   9.562   8.092  0.8805  0.1133 -0.1623
11705SOL    HW137653   3.789   9.628   8.110  1.5439 -0.8106  0.8459
11705SOL    HW237654   3.759   9.481   8.126 -0.9459 -0.3195  0.8490
11706SOL     OW37655   6.078   3.787   9.048  0.1663  0.2524 -0.5018
11706SOL    HW137656   6.050   3.877   9.034 -1.5934 -0.1250  0.3992
11706SOL    HW237657   6.019   3.754   9.117  0.8085 -1.5558 -0.7852
11707SOL     OW37658   9.901   0.523   2.228 -0.4660  0.7425 -0.1044
11707SOL    HW137659   9.925   0.606   2.269  0.0085  0.9538 -0.8016
11707SOL    HW237660   9.934   0.531   2.139  1.5435 -1.1068  0.4541
11708SOL     OW37661   5.359   2.249   9.850 -0.1428 -0.0474  0.3878
11708SOL    HW137662   5.411   2.302   9.789  1.4667 -0.0917  1.6880
11708SOL    HW237663   5.302   2.313   9.893  1.4316  0.5906  1.5797
11709SOL     OW37664   4.489   0.184   6.165 -0.3978  0.5885  0.0169
11709SOL    HW137665   4.477   0.189   6.260 -0.0818  1.1457  0.0352
11709SOL    HW237666   4.525   0.097   6.150 -1.0344  0.2648  0.3414
11710SOL     OW37667   7.746   7.097   0.428 -0.1248  0.5284 -0.5320
11710SOL    HW137668   7.695   7.172   0.396  0.5076  1.5488  0.8303
11710SOL    HW237669   7.705   7.021   0.386 -2.3027  1.4015 -0.0661
11711SOL     OW37670   9.670   5.120   3.744  0.5534  0.0840 -0.6396
11711SOL    HW137671   9.662   5.044   3.687  2.2502 -1.4451  1.1136
11711SOL    HW237672   9.667   5.084   3.833  0.7021  2.1342  0.2259
11712SOL     OW37673   1.150   9.398   4.779 -0.4336 -0.6959 -0.2812
11712SOL    HW137674   1.154   9.408   4.875 -0.4372  0.6039 -0.4112
11712SOL    HW237675   1.089   9.465   4.751 -0.9910 -1.5492 -1.1454
11713SOL     OW37676   0.670   8.569   1.197  0.0505 -0.4647 -0.4751
11713SOL    HW137677   0.697   8.657   1.169 -0.3635 -0.8048 -2.0089
11713SOL    HW237678   0.605   8.543   1.132  1.8849 -2.8433 -1.4435
11714SOL     OW37679   4.821   1.929   5.401 -0.0299  0.0604 -0.1573
11714SOL    HW137680   4.882   1.995   5.367 -0.7740  1.1338  0.5628
11714SOL    HW237681   4.770   1.902   5.325  0.6060 -0.0431 -0.5530
11715SOL     OW37682   1.935   7.197   1.430 -0.3400 -0.4600  0.4695
11715SOL    HW137683   1.885   7.206   1.511 -0.6078  2.7674  0.0353
11715SOL    HW237684   2.004   7.264   1.437 -0.4852  0.0142 -2.0205
11716SOL     OW37685   5.519   3.435   4.852  0.0614 -0.3081  0.3743
11716SOL    HW137686   5.447   3.497   4.843  0.7747  0.5199  0.3745
11716SOL    HW237687   5.575   3.451   4.776 -0.0136 -1.3092  0.0898
11717SOL     OW37688   4.569   6.741   2.816 -0.2696 -0.6755  0.1826
11717SOL    HW137689   4.517   6.786   2.883  1.4836  1.7540 -0.0482
11717SOL    HW237690   4.660   6.760   2.840  0.4606 -2.4522 -1.0865
11718SOL     OW37691   1.250   5.905   7.938  0.5539 -0.5396  0.5592
11718SOL    HW137692   1.283   5.975   7.994 -0.3692  1.4156 -1.2878
11718SOL    HW237693   1.323   5.843   7.932  1.9600  1.0396  0.8997
11719SOL     OW37694   9.517   1.419   2.772  0.2890 -0.4544 -1.0496
11719SOL    HW137695   9.548   1.434   2.861  2.3015  0.7087 -1.9007
11719SOL    HW237696   9.476   1.333   2.775  1.1725 -0.8411  0.7946
11720SOL     OW37697   2.818   2.841   7.898  0.1154 -0.1849  0.8375
11720SOL    HW137698   2.734   2.887   7.902  0.1182 -0.0354 -0.7239
11720SOL    HW237699   2.881   2.903   7.936 -0.4498 -0.2501  1.8984
11721SOL     OW37700   7.859   2.102   4.314  0.4542  0.1491 -0.6050
11721SOL    HW137701   7.937   2.074   4.363  0.2051  0.1918 -0.1778
11721SOL    HW237702   7.786   2.064   4.363  0.3342 -2.5004 -2.7394
11722SOL     OW37703   3.429   9.461   4.301 -0.1156  0.0460 -0.4871
11722SOL    HW137704   3.510   9.496   4.339 -0.5074 -0.8565  1.1988
11722SOL    HW237705   3.365   9.530   4.316 -0.2274 -0.2360  0.3301
11723SOL     OW37706   3.546   7.404   9.610 -0.0907 -0.0656  0.0382
11723SOL    HW137707   3.473   7.401   9.549 -0.5471  1.6374  0.4748
11723SOL    HW237708   3.505   7.421   9.695  0.9582  3.7037 -0.1131
11724SOL     OW37709   7.166   5.902   0.268 -0.6219 -0.5191 -0.0641
11724SOL    HW137710   7.137   5.830   0.324 -1.4104 -0.6315 -0.6159
11724SOL    HW237711   7.141   5.875   0.180  3.1613 -1.6621 -0.8817
11725SOL     OW37712   5.453   0.372   4.211 -0.1227  0.3451 -0.0002
11725SOL    HW137713   5.547   0.387   4.218 -0.0761  0.4012 -0.7726
11725SOL    HW237714   5.421   0.446   4.159 -0.4276 -0.2958 -0.7191
11726SOL     OW37715   2.366   9.966   0.190  0.6487  0.0439 -0.0416
11726SOL    HW137716   2.397   9.877   0.174  0.1916  0.2161 -1.9171
11726SOL    HW237717   2.271   9.959   0.191  0.5958  0.6018 -0.7673
11727SOL     OW37718   9.641   1.274   9.396 -0.2057 -0.7986 -0.2267
11727SOL    HW137719   9.616   1.291   9.486 -1.3370 -0.8712 -0.5180
11727SOL    HW237720   9.689   1.352   9.369  2.5750 -1.8920  1.2755
11728SOL     OW37721   4.928  10.016   5.673  0.0900 -0.3498 -0.4271
11728SOL    HW137722   4.945  10.046   5.584 -1.0232  1.6906  0.0121
11728SOL    HW237723   5.001  10.052   5.725 -0.3684  0.2232 -0.1750
11729SOL     OW37724   6.747   3.432   5.866 -0.1815 -0.6174  0.1999
11729SOL    HW137725   6.719   3.452   5.777 -0.8905  1.5325  0.8639
11729SOL    HW237726   6.827   3.483   5.878 -0.9053  0.3046  1.2619
11730SOL     OW37727   6.337   7.340   6.980 -0.2976  0.1167 -0.1446
11730SOL    HW137728   6.399   7.344   6.907 -0.0071  0.1474  0.1055
11730SOL    HW237729   6.383   7.382   7.053 -1.2292  1.6621 -0.4117
11731SOL     OW37730   7.629   3.941   2.202  0.0280  0.1979 -0.4595
11731SOL    HW137731   7.600   4.016   2.253  0.9293 -0.9788  1.8529
11731SOL    HW237732   7.670   3.979   2.124 -0.7991  2.0528 -0.0082
11732SOL     OW37733   7.885   0.939   8.654 -0.1534 -0.6197  0.0003
11732SOL    HW137734   7.863   1.019   8.607 -0.4016 -0.6622  0.0402
11732SOL    HW237735   7.872   0.962   8.746  1.3517 -0.2222  0.1256
11733SOL     OW37736   9.898   9.681   6.526  0.0715 -0.1696 -0.0022
11733SOL    HW137737   9.935   9.620   6.590  0.8696  0.6829  0.3769
11733SOL    HW237738   9.956   9.758   6.531 -1.0190  0.6857 -0.3228
11734SOL     OW37739   2.003   9.874   2.891 -0.4666 -0.2705 -0.8612
11734SOL    HW137740   1.980   9.781   2.892 -0.1000 -0.3632 -0.9342
11734SOL    HW237741   2.093   9.876   2.860  0.7711 -0.1794  2.5429
11735SOL     OW37742   2.585   3.219   5.629  0.3316  0.0956  0.5371
11735SOL    HW137743   2.660   3.216   5.688  0.1342 -1.2980  0.7299
11735SOL    HW237744   2.623   3.222   5.541  0.6228  2.0707  0.7157
11736SOL     OW37745   2.624   8.735   9.777  0.5760 -0.5499  0.0381
11736SOL    HW137746   2.661   8.665   9.724  1.2837 -0.3157  0.2108
11736SOL    HW237747   2.646   8.711   9.867  0.5297 -0.2830  0.1207
11737SOL     OW37748   9.941   4.559   1.504 -0.1434  0.2474 -0.4019
11737SOL    HW137749   9.953   4.645   1.463  1.6997  0.0913 -0.2264
11737SOL    HW237750  10.012   4.506   1.469 -1.0792 -1.1315 -0.2548
11738SOL     OW37751   5.089   9.221   5.584 -0.8475  0.5652 -0.5712
11738SOL    HW137752   5.001   9.206   5.551 -1.8936  1.7847  1.5331
11738SOL    HW237753   5.142   9.239   5.506 -3.1330  3.0143 -1.6557
11739SOL     OW37754   7.565   0.627   0.599  0.3631 -0.1830 -0.0946
11739SOL    HW137755   7.491   0.569   0.615  1.5065 -1.7832 -0.4825
11739SOL    HW237756   7.547   0.664   0.512 -0.4545  0.1728  0.2216
11740SOL     OW37757   1.787   7.272   4.926  0.3375  0.4335  0.4443
11740SOL    HW137758   1.820   7.308   5.009  0.5899  0.5099  0.3122
11740SOL    HW237759   1.722   7.206   4.952  1.2455 -0.3563  0.7304
11741SOL     OW37760   1.538   3.398   2.122 -0.1393  0.1152  0.1510
11741SOL    HW137761   1.488   3.447   2.188  0.0736  1.1155 -0.4255
11741SOL    HW237762   1.529   3.449   2.042 -0.2393 -1.0013 -0.5594
11742SOL     OW37763   4.164   5.554   4.117  0.2464  0.4721 -0.1799
11742SOL    HW137764   4.222   5.599   4.178 -0.8890  1.7231  0.0189
11742SOL    HW237765   4.221   5.526   4.046  1.2429  0.8634  0.4516
11743SOL     OW37766   1.788   3.976   7.118  0.7041  0.5441  0.4852
11743SOL    HW137767   1.779   3.882   7.130 -0.0455  0.4922 -0.4382
11743SOL    HW237768   1.699   4.010   7.125  0.7919  1.0126 -0.5871
11744SOL     OW37769   1.170   3.273   5.535  0.5599 -0.6151 -0.8304
11744SOL    HW137770   1.183   3.325   5.456  0.8359 -0.6073 -0.7805
11744SOL    HW237771   1.175   3.336   5.606  1.6966 -0.8140 -0.7109
11745SOL     OW37772   9.561   9.464   7.967  0.0692 -0.1107 -0.5698
11745SOL    HW137773   9.494   9.437   7.904  0.8353  0.1494 -1.5129
11745SOL    HW237774   9.640   9.418   7.940  0.4730  0.2203  0.0319
11746SOL     OW37775   6.172   5.233   9.522  0.7556  0.4278 -0.2220
11746SOL    HW137776   6.081   5.239   9.551  0.9687 -0.4464  0.6561
11746SOL    HW237777   6.185   5.141   9.501  1.4589  0.5381 -0.2942
11747SOL     OW37778   9.265   0.578   0.108  0.1558 -0.2195  0.7808
11747SOL    HW137779   9.192   0.607   0.053  1.6735  1.1548 -0.5631
11747SOL    HW237780   9.227   0.568   0.196 -1.9305 -0.8653 -0.1733
11748SOL     OW37781   2.791   8.622   3.630 -0.3346  0.7374 -0.1834
11748SOL    HW137782   2.804   8.606   3.723 -0.3599 -0.4635 -0.3853
11748SOL    HW237783   2.831   8.547   3.586  1.0102  2.0207 -1.2132
11749SOL     OW37784   7.568   6.167   0.546 -0.8650  0.1391 -0.1168
11749SOL    HW137785   7.474   6.175   0.533 -0.7222 -0.6383 -1.6567
11749SOL    HW237786   7.587   6.074   0.533  0.1029  0.2627  0.3171
11750SOL     OW37787   2.820   9.040   3.101 -0.1750  0.3860  0.5637
11750SOL    HW137788   2.835   8.948   3.078 -0.4040  0.8217 -1.4310
11750SOL    HW237789   2.905   9.071   3.133  0.2467 -0.1657 -0.0184
11751SOL     OW37790   3.833   1.027   0.353  0.5511 -0.0425 -0.1350
11751SOL    HW137791   3.780   0.956   0.316 -1.2872  0.5478  1.3277
11751SOL    HW237792   3.798   1.106   0.312  0.5978  0.3046  0.5022
11752SOL     OW37793   2.677   2.979   0.133  0.1470  0.1827 -0.1422
11752SOL    HW137794   2.684   2.964   0.038 -1.1070 -1.0377 -0.0684
11752SOL    HW237795   2.604   3.039   0.142 -1.4246 -1.7111  0.1763
11753SOL     OW37796   6.548   0.153   6.800  0.4285  0.2370 -0.0483
11753SOL    HW137797   6.582   0.212   6.732 -0.6387 -0.4110 -1.1674
11753SOL    HW237798   6.618   0.147   6.864  1.4783  0.8300 -1.1206
11754SOL     OW37799   0.535   2.677   1.400  0.1428 -0.9345  0.2473
11754SOL    HW137800   0.508   2.690   1.491  1.3119 -0.5429  0.5412
11754SOL    HW237801   0.499   2.752   1.353  0.6898 -0.4287  0.6337
11755SOL     OW37802   4.975   5.923   7.667  0.1569 -0.3398  0.4934
11755SOL    HW137803   4.958   5.971   7.748 -1.7447 -0.7530  0.3568
11755SOL    HW237804   4.998   5.834   7.696  0.0851 -0.3225  0.6020
11756SOL     OW37805   3.611   1.096   7.588 -0.2275  0.1757  0.0271
11756SOL    HW137806   3.638   1.141   7.508 -1.5027 -0.1316 -0.5924
11756SOL    HW237807   3.627   1.159   7.658 -1.0606  1.2424 -0.7167
11757SOL     OW37808   0.937   4.233   3.286  0.2832  0.6188 -0.2527
11757SOL    HW137809   0.921   4.265   3.375 -2.7465 -1.3423 -0.0358
11757SOL    HW237810   0.973   4.145   3.298  1.5907  1.0523 -0.9479
11758SOL     OW37811   5.829   9.261   6.438  0.0588  0.4178 -0.3086
11758SOL    HW137812   5.820   9.222   6.351  0.5782  2.2298 -1.1986
11758SOL    HW237813   5.796   9.351   6.428 -1.1966  0.2367  1.7064
11759SOL     OW37814   6.152   5.574   3.996 -0.7497  0.1882  0.3127
11759SOL    HW137815   6.071   5.524   4.000 -0.7014  0.2422  2.3705
11759SOL    HW237816   6.142   5.641   4.064  0.4189  1.1181 -0.4053
11760SOL     OW37817   2.440   0.708   1.501 -0.2421 -0.4235  0.1604
11760SOL    HW137818   2.483   0.772   1.557 -0.8065 -0.6551  0.8661
11760SOL    HW237819   2.407   0.641   1.562 -0.2560 -1.0288 -0.5052
11761SOL     OW37820   6.306   3.401   6.339 -0.5486 -0.2117 -0.3608
11761SOL    HW137821   6.254   3.382   6.261 -1.9549  0.2370  0.4654
11761SOL    HW237822   6.335   3.315   6.370  1.5956 -0.2899 -2.4151
11762SOL     OW37823   8.932   5.318   8.395 -0.1948 -0.3290 -0.3787
11762SOL    HW137824   8.868   5.316   8.467  2.1308 -0.3428  1.7447
11762SOL    HW237825   8.997   5.251   8.419  0.9444  0.1025 -2.1904
11763SOL     OW37826   6.694   6.655   9.898  0.5167  0.3595  0.8550
11763SOL    HW137827   6.734   6.597   9.833 -0.7221  0.8947 -0.4015
11763SOL    HW237828   6.641   6.596   9.952  0.4246  0.1118  0.5006
11764SOL     OW37829   0.727   3.426   5.731  0.6842  0.3001 -0.5850
11764SOL    HW137830   0.728   3.331   5.720 -2.5165 -0.0019  1.0407
11764SOL    HW237831   0.636   3.451   5.716  1.4450  3.1081 -0.7969
11765SOL     OW37832   0.809   9.506   5.543  0.2239 -0.3799  0.2531
11765SOL    HW137833   0.859   9.584   5.566  0.6462 -1.3188  2.6089
11765SOL    HW237834   0.842   9.481   5.456  1.0679  1.2429  0.0965
11766SOL     OW37835   8.163   0.611   4.870  0.2673 -0.1407  0.0907
11766SOL    HW137836   8.212   0.656   4.939 -0.9038 -1.5193  1.8394
11766SOL    HW237837   8.071   0.620   4.895 -0.2633  0.3240 -1.9014
11767SOL     OW37838   3.870   0.418   0.231  0.0098  0.2471 -0.5339
11767SOL    HW137839   3.845   0.345   0.286 -1.5666  1.5250  0.4923
11767SOL    HW237840   3.841   0.394   0.144  1.3271 -1.2114 -0.5954
11768SOL     OW37841   1.689   6.089   0.944  0.0204  0.2666 -0.0829
11768SOL    HW137842   1.713   6.178   0.970  0.8233  0.6591 -2.0983
11768SOL    HW237843   1.605   6.099   0.900 -0.0685 -0.0391  0.0161
11769SOL     OW37844   4.652   2.760  10.158  0.4888  0.0746  0.1965
11769SOL    HW137845   4.697   2.682  10.126  1.6424 -0.3932  2.7698
11769SOL    HW237846   4.564   2.730  10.179  0.9746 -0.6406  1.3346
11770SOL     OW37847   9.183   5.657   2.863  0.0786  0.6094  0.5100
11770SOL    HW137848   9.138   5.636   2.781 -0.4020 -1.8439  1.3627
11770SOL    HW237849   9.116   5.699   2.917 -0.1407  0.4739  0.3487
11771SOL     OW37850   2.299   7.281   2.533  0.4798  0.2118 -0.0427
11771SOL    HW137851   2.332   7.191   2.536 -0.2672 -0.0638  0.1384
11771SOL    HW237852   2.335   7.317   2.452  1.5255  0.0491  0.3422
11772SOL     OW37853   1.410   4.624   2.605  0.5764 -0.0906  0.5621
11772SOL    HW137854   1.474   4.695   2.608  1.9817 -1.3267  0.4533
11772SOL    HW237855   1.404   4.601   2.512 -0.9283  0.7967  0.4188
11773SOL     OW37856   2.120   5.875   7.752  0.3626  0.5637 -0.1359
11773SOL    HW137857   2.167   5.919   7.681  0.6663  0.6038  0.0915
11773SOL    HW237858   2.062   5.942   7.788 -2.8001 -0.5011 -2.9879
11774SOL     OW37859   5.014   5.714   8.910 -0.2979  0.3949 -0.0119
11774SOL    HW137860   5.092   5.673   8.870  1.3176  2.5406  0.8403
11774SOL    HW237861   5.042   5.737   8.998 -1.4781  2.3789 -0.1310
11775SOL     OW37862   8.275  10.051   5.723 -0.0455  0.6880  0.6989
11775SOL    HW137863   8.310  10.008   5.645 -1.1700 -0.1956  0.6808
11775SOL    HW237864   8.275  10.144   5.702  1.1575  0.5942  0.2471
11776SOL     OW37865   3.505   0.581   2.431 -0.2452  0.3596  0.4332
11776SOL    HW137866   3.493   0.670   2.397  1.8824  0.2841 -0.6280
11776SOL    HW237867   3.489   0.525   2.355 -0.9203 -0.1261  0.9352
11777SOL     OW37868   2.226   5.394   1.385  0.7366  0.3586 -0.1926
11777SOL    HW137869   2.249   5.487   1.375  0.3287  0.5922  0.9318
11777SOL    HW237870   2.167   5.392   1.461  1.2932 -0.9081  0.2172
11778SOL     OW37871   2.206   4.437   8.365 -0.2738 -0.1224 -0.0367
11778SOL    HW137872   2.171   4.507   8.311  2.4045 -0.5822 -2.4949
11778SOL    HW237873   2.246   4.482   8.440  0.1145  0.8460 -0.8243
11779SOL     OW37874   9.027   8.759   7.740 -0.2102 -0.1465 -0.7873
11779SOL    HW137875   8.982   8.721   7.815  1.0696  0.9947  0.5695
11779SOL    HW237876   9.085   8.689   7.709 -1.6272 -1.0361 -1.5038
11780SOL     OW37877   9.869   5.148   1.928  0.0545  0.0327 -0.2870
11780SOL    HW137878   9.775   5.168   1.933  0.5207  2.8598 -1.9775
11780SOL    HW237879   9.905   5.186   2.008 -0.2885 -1.5177  0.6241
11781SOL     OW37880   6.907   6.354   7.729  0.1332  0.8480 -0.4870
11781SOL    HW137881   6.840   6.286   7.715  0.8554 -0.2514  1.1643
11781SOL    HW237882   6.864   6.418   7.785  0.3352  0.3067  0.3020
11782SOL     OW37883   4.390   1.478   7.008 -0.5994 -0.1447 -0.1367
11782SOL    HW137884   4.439   1.561   7.001  0.8261 -0.9411  0.3021
11782SOL    HW237885   4.331   1.491   7.082 -0.9102  0.7425 -0.5292
11783SOL     OW37886   5.482   1.748   4.171  0.3489  0.7209  0.0729
11783SOL    HW137887   5.550   1.701   4.124 -0.1113  0.7220 -0.6066
11783SOL    HW237888   5.498   1.729   4.264  1.5690  1.1370 -0.0468
11784SOL     OW37889  10.109   8.329   2.726 -0.2004 -0.0509 -0.0023
11784SOL    HW137890  10.110   8.246   2.775 -1.2022  0.4197  0.8186
11784SOL    HW237891  10.178   8.381   2.767  2.0246 -1.3225 -2.0229
11785SOL     OW37892   5.835   8.262   5.549  0.4575  0.8288  0.0472
11785SOL    HW137893   5.853   8.296   5.637  0.6342 -0.4213  0.5121
11785SOL    HW237894   5.886   8.181   5.544 -0.3706  0.3448 -0.8134
11786SOL     OW37895   9.154   8.593   4.927 -0.1811  0.0986 -0.5569
11786SOL    HW137896   9.180   8.583   4.835 -0.0888 -0.2012 -0.5017
11786SOL    HW237897   9.191   8.516   4.970  1.5470  1.2812  0.1185
11787SOL     OW37898   3.149   3.230   2.972 -0.3715 -0.5255 -0.5424
11787SOL    HW137899   3.200   3.310   2.958 -0.8616 -0.1099  0.0279
11787SOL    HW237900   3.215   3.160   2.976  0.1490 -0.0105  0.0469
11788SOL     OW37901   2.810   9.740   7.423 -0.3067  0.5902  0.1510
11788SOL    HW137902   2.900   9.711   7.433 -1.1797 -2.2548  0.3102
11788SOL    HW237903   2.774   9.685   7.353 -2.0861  1.2514  0.5034
11789SOL     OW37904   7.742   1.971   7.714  0.5605  0.3560 -0.7521
11789SOL    HW137905   7.688   2.046   7.736  0.9021  0.1520  0.8398
11789SOL    HW237906   7.828   2.009   7.693  0.2709  0.5412 -1.6157
11790SOL     OW37907   6.843   8.769   7.207 -0.7374 -0.8718  0.0404
11790SOL    HW137908   6.785   8.769   7.282  1.3312  1.4601  1.7136
11790SOL    HW237909   6.828   8.853   7.164  1.3048 -0.2189  0.5081
11791SOL     OW37910   1.363   7.909   8.418  0.4443  0.6297  0.4442
11791SOL    HW137911   1.321   7.926   8.503  1.1449 -2.0448  1.3820
11791SOL    HW237912   1.440   7.966   8.418  0.6287  0.4167  1.7850
11792SOL     OW37913   6.470   0.021   0.483  0.2696  0.3575 -0.2116
11792SOL    HW137914   6.418  -0.014   0.411 -0.0901  0.9391 -0.2427
11792SOL    HW237915   6.525   0.089   0.442  2.2957 -1.4093 -0.4924
11793SOL     OW37916   9.087   3.018   1.194 -0.2341  0.2410 -0.7435
11793SOL    HW137917   9.135   2.947   1.152 -0.1192  0.3753 -0.8447
11793SOL    HW237918   8.995   2.993   1.188 -0.2805  0.6145 -1.7721
11794SOL     OW37919   7.915   5.950   1.061  0.2963 -0.3278  0.2534
11794SOL    HW137920   7.971   6.008   1.112 -1.2492  0.7531  0.7482
11794SOL    HW237921   7.837   6.003   1.040  1.1558 -0.4994 -3.8021
11795SOL     OW37922   8.209   4.443   1.635  0.5408 -0.5263  0.0688
11795SOL    HW137923   8.276   4.462   1.568 -0.3011  0.9562 -0.3772
11795SOL    HW237924   8.166   4.527   1.650 -1.9901 -1.6654 -0.4832
11796SOL     OW37925   7.450   3.089   1.683  0.2291  0.5227 -0.2326
11796SOL    HW137926   7.544   3.087   1.704 -0.0333  0.9780  0.9985
11796SOL    HW237927   7.419   3.002   1.706  0.7655 -0.3685 -2.6940
11797SOL     OW37928   4.624   4.176   2.553 -0.3859 -0.3104 -0.3241
11797SOL    HW137929   4.685   4.152   2.622 -0.6940  1.1269  0.4581
11797SOL    HW237930   4.563   4.236   2.595 -0.7488  0.3495 -1.7783
11798SOL     OW37931   2.953   3.284   3.720 -0.4633  0.1274  0.6364
11798SOL    HW137932   3.029   3.235   3.687  0.1914  0.6669  1.3079
11798SOL    HW237933   2.985   3.374   3.726 -0.4273 -0.0292  3.1267
11799SOL     OW37934   4.631   6.165   5.818  0.2537  0.0596 -0.0681
11799SOL    HW137935   4.648   6.164   5.724 -0.6072 -1.8179 -0.2307
11799SOL    HW237936   4.554   6.221   5.828  0.7626  0.8287 -0.3919
11800SOL     OW37937   5.188   9.330   4.301  0.2561  0.3412 -0.0085
11800SOL    HW137938   5.278   9.359   4.316  0.3288  0.1837 -0.1316
11800SOL    HW237939   5.191   9.288   4.215 -0.1231  1.1053 -0.3936
11801SOL     OW37940   2.640   1.678   1.905 -0.0714 -0.0184 -0.1919
11801SOL    HW137941   2.703   1.747   1.884  2.0854 -2.1827 -1.0620
11801SOL    HW237942   2.606   1.650   1.821 -2.5928  1.4388  0.3068
11802SOL     OW37943   8.526   9.887   6.113  0.0399  0.0743  0.0924
11802SOL    HW137944   8.507   9.952   6.046  0.2912  0.8880  0.7984
11802SOL    HW237945   8.549   9.938   6.190 -0.9897 -0.8350  1.0282
11803SOL     OW37946  10.031   0.066   6.201 -0.0851  0.2276 -0.2341
11803SOL    HW137947  10.035   0.026   6.115  0.6464 -0.4264  0.0955
11803SOL    HW237948  10.007   0.157   6.185 -1.5869 -0.2821 -1.0074
11804SOL     OW37949   0.863   9.189   0.882  0.3098 -0.5027  0.7306
11804SOL    HW137950   0.819   9.245   0.946  0.8753  0.6862  0.0923
11804SOL    HW237951   0.944   9.162   0.926  0.0981 -0.7213  0.9901
11805SOL     OW37952   9.537   7.529   4.074 -0.0235  0.6855  0.0949
11805SOL    HW137953   9.444   7.537   4.053 -0.4459  1.4616  2.1399
11805SOL    HW237954   9.576   7.609   4.039 -0.4654  1.2805  0.9438
11806SOL     OW37955   8.252   7.848   9.817 -0.1286 -0.0182  0.2147
11806SOL    HW137956   8.309   7.771   9.821 -0.5035 -0.2256  1.9465
11806SOL    HW237957   8.166   7.815   9.842 -0.5655  0.7272 -0.2711
11807SOL     OW37958   2.834   2.770   1.760 -0.2688 -0.0344 -0.1140
11807SOL    HW137959   2.815   2.840   1.822  0.1486  0.3588 -0.4282
11807SOL    HW237960   2.914   2.729   1.792 -0.5740 -0.4475  0.1337
11808SOL     OW37961   9.208   3.215   1.337 -0.5988 -0.1837 -0.0645
11808SOL    HW137962   9.178   3.139   1.288 -0.7189  0.7007 -1.3801
11808SOL    HW237963   9.297   3.192   1.366 -0.8928 -1.0841  0.1337
11809SOL     OW37964  10.151   0.427   9.615 -0.0779  0.4016  0.1452
11809SOL    HW137965  10.119   0.344   9.581 -2.5192  0.7762  1.4063
11809SOL    HW237966  10.163   0.482   9.537 -3.0971  0.4091 -0.3808
11810SOL     OW37967   6.356   2.955   3.209  0.0938  0.0133 -0.1625
11810SOL    HW137968   6.351   3.017   3.137  1.2869 -2.2743 -2.2812
11810SOL    HW237969   6.276   2.902   3.202  1.9987 -2.7254 -2.2547
11811SOL     OW37970   7.975   2.947   4.547  0.0032  0.3935 -0.1219
11811SOL    HW137971   7.976   2.894   4.468 -0.1469 -0.1769  0.2527
11811SOL    HW237972   7.956   3.036   4.517  0.8995  0.3513 -0.8187
11812SOL     OW37973   8.244   0.876   8.903 -0.5155  0.4310 -0.4430
11812SOL    HW137974   8.339   0.872   8.910 -0.6910 -2.1404  0.9115
11812SOL    HW237975   8.222   0.815   8.833 -1.1221  1.5341 -1.2195
11813SOL     OW37976  10.176   1.831   3.807 -0.4480 -0.2584 -0.6625
11813SOL    HW137977  10.179   1.893   3.734 -1.0691 -0.5476 -0.9403
11813SOL    HW237978  10.247   1.770   3.790  0.0860  0.3008 -0.4572
11814SOL     OW37979   1.112   2.396   3.547 -0.3391 -0.2391 -0.4039
11814SOL    HW137980   1.160   2.401   3.464  0.1665  0.0165 -0.0998
11814SOL    HW237981   1.024   2.429   3.526  0.3408  1.6384 -0.4211
11815SOL     OW37982   7.812   2.108   3.490  0.3771  0.5001 -0.5160
11815SOL    HW137983   7.757   2.119   3.567 -2.9032 -2.3407 -2.3634
11815SOL    HW237984   7.892   2.068   3.523 -0.7893 -0.2203  1.4751
11816SOL     OW37985   2.314   1.414  10.144 -0.3130  0.3098  0.4339
11816SOL    HW137986   2.405   1.434  10.168 -0.4265  0.1888  0.9786
11816SOL    HW237987   2.274   1.499  10.128  0.0292  0.3374 -0.3136
11817SOL     OW37988   9.534   0.512   4.215  0.0486  0.2556 -0.1332
11817SOL    HW137989   9.600   0.458   4.173  0.3319  1.3755 -1.1868
11817SOL    HW237990   9.504   0.461   4.289  0.6798 -1.1062 -0.7985
11818SOL     OW37991   5.200   7.432   6.125  0.8380  0.8632  0.0670
11818SOL    HW137992   5.148   7.510   6.108  0.1259  0.2211 -0.7059
11818SOL    HW237993   5.230   7.403   6.039  1.3545  0.4603  0.3789
11819SOL     OW37994   1.800   4.794   9.832  0.1501  0.0921  0.3795
11819SOL    HW137995   1.887   4.788   9.872  0.1783 -1.7354  0.0909
11819SOL    HW237996   1.816   4.788   9.738 -0.3655 -1.4964  0.3792
11820SOL     OW37997   9.175   9.350   3.824 -0.2529  0.1958 -0.0158
11820SOL    HW137998   9.110   9.417   3.803  0.1658  1.1448  1.5531
11820SOL    HW237999   9.160   9.331   3.917 -0.7079 -2.2917 -0.5828
11821SOL     OW38000   5.917   6.119   2.301 -0.0803 -0.1381  0.3707
11821SOL    HW138001   5.899   6.208   2.331  0.7440  1.2528 -3.0118
11821SOL    HW238002   5.983   6.086   2.362 -1.4529  0.9808  2.5322
11822SOL     OW38003   8.114   4.997   2.565 -0.1932 -0.3886 -0.7477
11822SOL    HW138004   8.149   4.983   2.478 -0.1948 -1.6963 -0.5382
11822SOL    HW238005   8.041   4.936   2.573  1.8890 -2.7255  1.3653
11823SOL     OW38006   4.353   8.168   3.208  0.4156  0.7220 -0.1938
11823SOL    HW138007   4.384   8.152   3.118  0.8091 -0.1125  0.0767
11823SOL    HW238008   4.433   8.169   3.261 -0.0610 -3.6719  0.8382
11824SOL     OW38009   8.455   7.768   3.031 -0.0805 -0.0075 -0.6249
11824SOL    HW138010   8.529   7.750   3.089  0.2380  1.5995 -0.4960
11824SOL    HW238011   8.390   7.701   3.052 -0.3488  1.1055  2.2825
11825SOL     OW38012   7.260   5.092   0.877 -0.1327 -0.3272 -0.5422
11825SOL    HW138013   7.178   5.096   0.926  0.8397  0.0042  1.1145
11825SOL    HW238014   7.323   5.055   0.939  1.0733 -0.1669 -1.6441
11826SOL     OW38015   4.600   6.377   7.104  0.4030 -0.4704  0.0852
11826SOL    HW138016   4.592   6.402   7.196  0.2869  0.8185 -0.2678
11826SOL    HW238017   4.650   6.448   7.064  1.2387 -1.4650 -0.6689
11827SOL     OW38018   2.374   9.756   9.236 -0.3083 -0.1129  0.6132
11827SOL    HW138019   2.397   9.677   9.188 -2.3573 -1.1852  1.3375
11827SOL    HW238020   2.279   9.762   9.229 -0.3466  1.3384  2.0049
11828SOL     OW38021   7.466   7.006   7.853 -0.2599  0.0278 -0.0394
11828SOL    HW138022   7.559   7.013   7.832  0.1786  0.2658  1.8318
11828SOL    HW238023   7.421   7.046   7.779  1.0693 -1.1716 -1.5163
11829SOL     OW38024   3.038   5.601   8.336  0.6144  0.1603  0.0187
11829SOL    HW138025   3.062   5.603   8.428  0.5340 -0.2518  0.0499
11829SOL    HW238026   3.100   5.661   8.293  1.1006 -0.1852  0.2359
11830SOL     OW38027   0.543   7.709   6.344 -0.3520  0.8525 -0.2054
11830SOL    HW138028   0.612   7.769   6.372 -0.6817  1.6419 -1.0513
11830SOL    HW238029   0.553   7.633   6.400  0.7327  1.2752  0.1877
11831SOL     OW38030   0.549   8.633   0.462 -0.0226  0.5029 -0.7106
11831SOL    HW138031   0.623   8.585   0.500 -0.3556  0.1776 -0.4667
11831SOL    HW238032   0.588   8.712   0.425  0.5589 -0.0417 -1.2759
11832SOL     OW38033   1.362   2.714   3.916  0.0316 -0.5138  0.1806
11832SOL    HW138034   1.292   2.710   3.981 -1.8060  0.4781 -1.6756
11832SOL    HW238035   1.330   2.662   3.842  0.6139  1.0588 -1.2259
11833SOL     OW38036   5.689   8.649   5.701 -0.1993  0.2733  0.0580
11833SOL    HW138037   5.688   8.560   5.735  1.4672  0.3701  0.4436
11833SOL    HW238038   5.668   8.704   5.777  1.0214  0.3288  0.3781
11834SOL     OW38039   0.066   4.702   7.540 -0.1338 -0.2168 -0.7641
11834SOL    HW138040   0.074   4.767   7.470  2.9295 -0.2854 -0.5469
11834SOL    HW238041   0.152   4.661   7.544 -0.4643 -0.6802  2.6202
11835SOL     OW38042   9.249   2.476   7.285 -0.7798  0.0629  0.1365
11835SOL    HW138043   9.327   2.495   7.233 -1.5781  0.1691 -1.0448
11835SOL    HW238044   9.282   2.447   7.370  0.5346 -0.1797 -0.4616
11836SOL     OW38045   0.105   9.827   0.833  0.5265  0.0452  0.0086
11836SOL    HW138046   0.186   9.871   0.859  0.8517  0.6442 -1.9078
11836SOL    HW238047   0.131   9.737   0.812  0.8508  0.4594 -1.3927
11837SOL     OW38048   4.009   0.138   8.212  0.1610  0.5460 -0.5715
11837SOL    HW138049   3.964   0.218   8.187 -0.8401  0.1263 -0.1580
11837SOL    HW238050   3.995   0.130   8.307  0.9330  0.2978 -0.4672
11838SOL     OW38051   2.425   0.661   2.822  0.0355  0.5756  0.4011
11838SOL    HW138052   2.340   0.670   2.865  0.2959  1.1173  0.8216
11838SOL    HW238053   2.423   0.727   2.753  0.0943  0.5573  0.3822
11839SOL     OW38054   3.328   6.688   8.509  0.1192  0.7522 -0.2594
11839SOL    HW138055   3.264   6.707   8.578  0.6030 -1.2284  0.7578
11839SOL    HW238056   3.405   6.656   8.556  0.7011  0.0498 -1.6690
11840SOL     OW38057   5.644   2.329   9.527 -0.2430  0.2457  0.3949
11840SOL    HW138058   5.576   2.384   9.566 -0.6823 -1.7981  2.5939
11840SOL    HW238059   5.723   2.349   9.578  0.2672  0.7952 -0.5718
11841SOL     OW38060   9.656   9.403   4.928  0.2476  0.1644  0.4252
11841SOL    HW138061   9.698   9.489   4.931  0.4988  0.0514  0.2291
11841SOL    HW238062   9.729   9.342   4.914  0.0558 -0.0646  0.4203
11842SOL     OW38063   1.331   5.263   7.065 -0.6354  0.2043  0.5758
11842SOL    HW138064   1.343   5.234   6.974 -0.5951  1.2305  0.2486
11842SOL    HW238065   1.365   5.191   7.118  0.4832  0.1234 -0.2449
11843SOL     OW38066   4.574   1.600   1.143 -0.1502  0.3984 -0.1927
11843SOL    HW138067   4.543   1.589   1.233 -1.8207 -0.3213 -0.8396
11843SOL    HW238068   4.616   1.517   1.122 -1.2024 -0.0368 -0.6174
11844SOL     OW38069   1.336   6.292   3.823 -0.2701  0.3341  0.1893
11844SOL    HW138070   1.397   6.337   3.765  0.5698 -0.8234  0.1736
11844SOL    HW238071   1.388   6.225   3.867 -0.6934  1.6842  2.9126
11845SOL     OW38072   7.217   7.731   0.191 -0.2758  0.0469  0.5026
11845SOL    HW138073   7.284   7.800   0.190 -1.9377  1.6882 -0.5757
11845SOL    HW238074   7.150   7.764   0.250 -0.7056 -1.0485  0.6325
11846SOL     OW38075   4.795   6.237   1.029 -0.4503  1.1563 -0.1788
11846SOL    HW138076   4.888   6.254   1.014 -0.4479  0.3897 -1.0706
11846SOL    HW238077   4.752   6.321   1.013 -0.0348  1.2346 -0.8990
11847SOL     OW38078   7.090   9.146   3.344 -0.1098  0.3621 -0.4494
11847SOL    HW138079   7.031   9.123   3.415 -1.2199  1.0678 -1.1365
11847SOL    HW238080   7.036   9.196   3.283  1.4052  1.7618 -0.6650
11848SOL     OW38081   3.117   7.362   3.496  0.1119 -0.3478 -0.3796
11848SOL    HW138082   3.106   7.409   3.579  3.0348 -0.7629  0.3197
11848SOL    HW238083   3.117   7.429   3.429 -0.6058  0.1584  0.1242
11849SOL     OW38084   5.790   4.085   3.407  0.1457 -0.1897 -0.2801
11849SOL    HW138085   5.839   4.022   3.354  1.2042  1.0381 -0.8049
11849SOL    HW238086   5.853   4.154   3.425 -0.5677 -0.0094  1.5753
11850SOL     OW38087   2.512   5.993   6.426 -0.3528 -0.0739  0.6648
11850SOL    HW138088   2.543   5.973   6.515 -0.1031 -0.7069  0.4389
11850SOL    HW238089   2.471   5.912   6.396  0.8965 -0.3592 -0.3570
11851SOL     OW38090   4.215   9.895   6.002 -0.0944 -0.1924  0.3080
11851SOL    HW138091   4.206   9.949   6.081 -0.0648 -0.0449  0.2114
11851SOL    HW238092   4.227   9.806   6.035 -0.3900 -0.1755  0.4681
11852SOL     OW38093   2.859   8.389   5.339  0.2312  0.0887 -0.2238
11852SOL    HW138094   2.875   8.378   5.245 -0.4203 -0.2886 -0.2905
11852SOL    HW238095   2.816   8.475   5.346  1.0671  0.5093 -0.1795
11853SOL     OW38096   8.546   4.278   5.548 -0.3111 -0.4168 -0.1116
11853SOL    HW138097   8.619   4.336   5.568 -2.2173  1.5281  1.5038
11853SOL    HW238098   8.529   4.291   5.455  0.4475  0.2563 -0.1607
11854SOL     OW38099   1.434   0.898   1.117  0.0010 -0.2891 -0.0188
11854SOL    HW138100   1.397   0.816   1.152 -0.5346  0.0564  0.2204
11854SOL    HW238101   1.506   0.869   1.061 -0.9720 -0.9797 -0.9147
11855SOL     OW38102   3.743   9.418   5.639 -0.1952  0.3966  0.3112
11855SOL    HW138103   3.749   9.399   5.546  0.9279  1.1345  0.2254
11855SOL    HW238104   3.649   9.419   5.658 -0.4305  0.5337 -0.8665
11856SOL     OW38105   2.480   4.451   6.229  0.2462 -0.1860 -0.1155
11856SOL    HW138106   2.419   4.523   6.246  2.0756  1.9010 -1.9611
11856SOL    HW238107   2.450   4.414   6.146  1.6262  1.0831 -1.2177
11857SOL     OW38108   6.754   6.482   9.694 -0.7660 -0.0170  1.0143
11857SOL    HW138109   6.776   6.398   9.653 -0.2993  0.2106  0.7973
11857SOL    HW238110   6.659   6.487   9.689 -0.5704  1.6035 -3.2098
11858SOL     OW38111   6.367   6.912   4.057  0.0540  0.1345 -0.0058
11858SOL    HW138112   6.276   6.907   4.087  0.5431  0.6510  1.5994
11858SOL    HW238113   6.419   6.879   4.130  1.2402  0.9586 -0.4612
11859SOL     OW38114   0.179  10.023   8.353  0.4729 -0.3754  0.3035
11859SOL    HW138115   0.182   9.931   8.329 -1.1669 -0.1701 -0.8044
11859SOL    HW238116   0.239  10.066   8.293  0.6612 -0.6105  0.3209
11860SOL     OW38117   1.889   1.530   4.771 -0.2264 -0.1373 -0.7982
11860SOL    HW138118   1.852   1.527   4.859  0.1007 -0.7250 -0.6767
11860SOL    HW238119   1.871   1.619   4.740 -1.0799 -0.1896 -0.4628
11861SOL     OW38120   8.246   3.689   2.734 -0.0340 -0.0295 -0.3967
11861SOL    HW138121   8.229   3.781   2.753  0.0601  0.7063 -3.5942
11861SOL    HW238122   8.159   3.648   2.734 -0.1003  0.0720  0.7231
11862SOL     OW38123   4.535   8.803   7.053  0.0223  0.1336 -0.0442
11862SOL    HW138124   4.554   8.709   7.047  0.7715  0.3973 -1.8500
11862SOL    HW238125   4.441   8.806   7.071  0.1194 -0.9760  0.7111
11863SOL     OW38126   5.822   5.486   7.151 -0.1174 -0.0206  0.1316
11863SOL    HW138127   5.728   5.497   7.169 -0.2014  1.3564 -1.0438
11863SOL    HW238128   5.830   5.394   7.125 -1.2138 -0.0425 -0.1835
11864SOL     OW38129   6.161   5.558   0.633 -0.5184  0.3510  0.2208
11864SOL    HW138130   6.102   5.629   0.607 -0.2634  0.1694 -0.9053
11864SOL    HW238131   6.228   5.557   0.564 -1.8481 -2.5471 -1.1173
11865SOL     OW38132   0.507  10.062   9.349 -0.3455 -0.7798 -0.3389
11865SOL    HW138133   0.523   9.980   9.396  1.3872 -0.2916 -0.0073
11865SOL    HW238134   0.505  10.128   9.418  1.2497 -0.1771 -0.8476
11866SOL     OW38135   4.694   4.633   0.447 -0.7024  0.4905 -0.7615
11866SOL    HW138136   4.704   4.724   0.419 -1.2400  0.2504 -1.7248
11866SOL    HW238137   4.619   4.601   0.398 -1.0838 -0.2031  0.2664
11867SOL     OW38138   8.114   8.465   9.428  0.1124 -0.3314 -0.1206
11867SOL    HW138139   8.075   8.491   9.512  1.8800 -0.6278  0.8226
11867SOL    HW238140   8.061   8.391   9.399 -1.6250  0.9171 -0.1665
11868SOL     OW38141   4.002   5.457   7.351 -0.1287  0.2635  0.1519
11868SOL    HW138142   4.054   5.412   7.285  2.0437  0.5415  1.6296
11868SOL    HW238143   3.919   5.409   7.354  1.6272 -2.8497  0.7430
11869SOL     OW38144   5.592   8.113   2.837  0.5960 -0.7255  0.3470
11869SOL    HW138145   5.640   8.033   2.856 -1.3460 -2.0343 -0.0865
11869SOL    HW238146   5.507   8.100   2.878  0.0180  0.8346 -0.3164
11870SOL     OW38147   5.060   7.581   4.558  0.0476  0.0826  0.0620
11870SOL    HW138148   5.078   7.640   4.631 -2.3652  0.3418  0.5075
11870SOL    HW238149   5.007   7.633   4.497 -1.3884 -1.3379  0.0604
11871SOL     OW38150   1.317   0.633   7.662 -0.0190 -0.2490 -0.5187
11871SOL    HW138151   1.265   0.666   7.735 -0.6146 -1.9601 -0.1591
11871SOL    HW238152   1.320   0.706   7.600  0.1564  1.0684  1.0231
11872SOL     OW38153   9.258   9.118   4.659  0.3704  0.0696 -0.6083
11872SOL    HW138154   9.185   9.070   4.699  0.2443 -1.3688 -2.4673
11872SOL    HW238155   9.336   9.080   4.699  0.1942 -0.5795 -0.8553
11873SOL     OW38156   8.189   8.775   3.130 -0.4444 -0.0654  0.3808
11873SOL    HW138157   8.270   8.757   3.178 -0.4350 -1.4585 -0.1457
11873SOL    HW238158   8.205   8.859   3.086  0.9556 -0.6700 -0.2652
11874SOL     OW38159   9.724   2.732   1.408 -0.3666 -0.1651  0.0698
11874SOL    HW138160   9.794   2.684   1.452  1.2618  1.8554 -0.2200
11874SOL    HW238161   9.758   2.749   1.320 -1.2802  0.6605 -0.1372
11875SOL     OW38162   5.912   1.517   0.371 -0.4337  0.5198  0.3402
11875SOL    HW138163   5.908   1.582   0.301 -1.0856 -0.3600 -0.4563
11875SOL    HW238164   5.970   1.449   0.337 -0.0307  0.5204  1.0256
11876SOL     OW38165   1.010   6.591   7.661  0.2946  0.2382  0.2454
11876SOL    HW138166   0.987   6.575   7.752 -0.2006  1.6968  0.3854
11876SOL    HW238167   0.995   6.685   7.648 -0.4123 -0.0914 -1.5436
11877SOL     OW38168   9.643   3.857   9.559  0.4574 -0.1450  0.1382
11877SOL    HW138169   9.587   3.800   9.612  1.4727 -1.9736 -0.7309
11877SOL    HW238170   9.715   3.881   9.618 -0.6064  1.2665  0.8888
11878SOL     OW38171   1.988   3.138   0.440 -0.0384  0.3456 -0.1067
11878SOL    HW138172   2.037   3.061   0.468  2.9589  0.6430 -4.0706
11878SOL    HW238173   2.029   3.211   0.485  0.5628  0.1533 -0.3363
11879SOL     OW38174   7.276   4.979   7.817  0.4098 -0.0021  0.1127
11879SOL    HW138175   7.369   4.999   7.832  0.5103 -0.5914  0.2760
11879SOL    HW238176   7.235   5.065   7.806  1.1602  0.2100 -1.1005
11880SOL     OW38177   0.223   5.470   1.129  1.0048 -0.0038  0.4843
11880SOL    HW138178   0.187   5.527   1.196 -0.1498 -2.9240  2.4589
11880SOL    HW238179   0.148   5.440   1.078  1.2202 -1.8520  1.1912
11881SOL     OW38180   4.187   4.219   4.910  0.5763  0.3625 -0.1267
11881SOL    HW138181   4.098   4.188   4.928  1.0417 -0.8140  0.2395
11881SOL    HW238182   4.235   4.202   4.991  0.8078  2.2405  0.1359
11882SOL     OW38183   1.882   1.593   2.504  0.0295 -0.2651  0.3981
11882SOL    HW138184   1.893   1.506   2.465 -1.1209 -0.0953 -0.3375
11882SOL    HW238185   1.923   1.653   2.441 -0.4952 -0.1355  0.1762
11883SOL     OW38186   5.926   5.986   0.640 -0.0885  0.0219  0.5200
11883SOL    HW138187   5.848   6.032   0.610  1.4074  2.2266 -0.0650
11883SOL    HW238188   5.897   5.937   0.717 -1.6708  2.1535  1.3239
11884SOL     OW38189   8.163   2.893   9.844 -0.2024 -0.4145 -0.0762
11884SOL    HW138190   8.222   2.835   9.795  0.1410  0.5264 -0.7832
11884SOL    HW238191   8.168   2.861   9.934 -0.6760 -2.0388 -0.5995
11885SOL     OW38192   7.384   8.299   2.198 -0.0680 -0.1265  0.2038
11885SOL    HW138193   7.398   8.221   2.251  1.0066 -1.2050 -1.6216
11885SOL    HW238194   7.312   8.276   2.139 -1.0716  0.9664  0.9623
11886SOL     OW38195   7.660   5.270   7.735 -0.4366  0.7688 -0.3865
11886SOL    HW138196   7.744   5.235   7.705 -0.9395 -0.2973 -0.5864
11886SOL    HW238197   7.611   5.286   7.654 -0.2456  1.8615 -0.2913
11887SOL     OW38198   1.481   6.437   0.975  0.0837 -0.0886 -0.0029
11887SOL    HW138199   1.432   6.370   0.929  0.8805  0.2514 -1.3714
11887SOL    HW238200   1.423   6.464   1.046 -0.9462 -0.9882 -0.4831
11888SOL     OW38201   7.063   4.537  10.022  0.0711 -0.0601 -0.0606
11888SOL    HW138202   7.080   4.568  10.111 -3.0323  0.4752  0.4148
11888SOL    HW238203   7.070   4.442  10.027 -0.9289 -0.0936  0.9967
11889SOL     OW38204   5.938   0.611   4.102 -0.5508  0.1303  0.5050
11889SOL    HW138205   5.960   0.610   4.009  1.3323  1.0870  0.9210
11889SOL    HW238206   5.881   0.535   4.114 -1.5679  0.5202 -1.5888
11890SOL     OW38207   4.853   3.469   4.778  0.3096  0.1387 -0.0235
11890SOL    HW138208   4.903   3.413   4.837 -0.0881 -1.8791 -1.5713
11890SOL    HW238209   4.765   3.432   4.779 -0.6634  2.3907  1.0227
11891SOL     OW38210   2.070   7.545   2.186  0.4688 -0.0074  0.2458
11891SOL    HW138211   2.079   7.574   2.277  0.3323 -0.6906  0.4778
11891SOL    HW238212   2.037   7.455   2.193 -1.1134  0.4906 -0.4836
11892SOL     OW38213   9.905   4.326   4.525 -0.3932  0.5749 -0.0063
11892SOL    HW138214   9.912   4.236   4.493  0.1778  1.3496 -2.1228
11892SOL    HW238215   9.966   4.329   4.599  0.4825 -0.4773 -0.6562
11893SOL     OW38216   5.068   0.153   0.127  0.0946 -0.2300 -0.7002
11893SOL    HW138217   5.007   0.168   0.199  1.7408  2.3592  0.2299
11893SOL    HW238218   5.150   0.129   0.170  0.1845 -2.1740 -1.8887
11894SOL     OW38219   8.952   6.719   5.266  0.4046  0.2029  0.0076
11894SOL    HW138220   8.922   6.808   5.245 -0.7968 -0.2851 -0.4268
11894SOL    HW238221   8.935   6.710   5.360  0.1964  0.3115 -0.0197
11895SOL     OW38222   5.620   6.248   5.752 -0.1823 -0.3084 -0.1291
11895SOL    HW138223   5.637   6.330   5.706  0.9293 -0.9751 -0.9212
11895SOL    HW238224   5.536   6.262   5.796  0.1113  1.3238 -0.0740
11896SOL     OW38225   6.541   1.515   9.531 -0.1996 -0.1973 -0.1805
11896SOL    HW138226   6.613   1.469   9.488 -1.2546  0.6453 -2.9880
11896SOL    HW238227   6.547   1.489   9.623  4.4662  0.9253 -0.0792
11897SOL     OW38228   4.301   9.421   7.399  0.1171  0.4236  0.4384
11897SOL    HW138229   4.244   9.421   7.476 -0.6260 -0.3825 -0.1075
11897SOL    HW238230   4.257   9.364   7.336 -0.9192  3.5561 -1.7839
11898SOL     OW38231   1.347   2.915   3.306 -0.0617 -0.0744  0.0589
11898SOL    HW138232   1.256   2.887   3.316 -0.5226  0.9284 -1.1800
11898SOL    HW238233   1.398   2.844   3.344 -1.3718 -0.4991  1.0741
11899SOL     OW38234   6.434   8.025   5.305  0.6307  0.0080 -0.0157
11899SOL    HW138235   6.492   8.096   5.277  0.6178 -0.0864 -0.2778
11899SOL    HW238236   6.465   8.001   5.392 -0.1540  1.1995  0.6106
11900SOL     OW38237   2.456   3.641   1.640 -0.6307 -0.2121 -0.0791
11900SOL    HW138238   2.379   3.673   1.688 -0.5044  3.1292 -1.9260
11900SOL    HW238239   2.422   3.614   1.555  0.0153 -0.1543 -0.3572
11901SOL     OW38240   7.064   5.734   9.490  0.0680 -0.1071 -0.5248
11901SOL    HW138241   7.094   5.823   9.504  2.2117 -0.8536 -0.1883
11901SOL    HW238242   7.104   5.683   9.561 -2.2021 -1.1158  0.0784
11902SOL     OW38243   9.058   3.295   3.288  0.4720  0.1659  0.1159
11902SOL    HW138244   9.008   3.376   3.276  0.9047  0.6661  1.5550
11902SOL    HW238245   9.009   3.230   3.239  0.0807  1.2904 -1.0125
11903SOL     OW38246   2.553   2.294   3.230 -0.1039  0.5796 -0.3204
11903SOL    HW138247   2.541   2.201   3.245 -0.1703  0.4450 -1.1497
11903SOL    HW238248   2.550   2.334   3.317  0.5230 -0.2533  0.0858
11904SOL     OW38249   1.055   6.536  10.078 -0.1507  0.8806  0.3839
11904SOL    HW138250   1.116   6.553  10.006  2.6515 -2.2934  1.8545
11904SOL    HW238251   1.031   6.444  10.068 -1.1454  0.8819  2.4219
11905SOL     OW38252   4.966   1.601   1.432 -0.2261 -0.0382  0.5434
11905SOL    HW138253   4.932   1.646   1.355 -4.5945  0.4153  2.5857
11905SOL    HW238254   4.959   1.508   1.410  1.1844  0.1362 -0.6511
11906SOL     OW38255   8.270   1.577   1.564  0.5674  0.3133  0.6281
11906SOL    HW138256   8.195   1.560   1.508  1.4094  0.5092 -0.5894
11906SOL    HW238257   8.316   1.493   1.570  1.0004  0.5142  0.2171
11907SOL     OW38258   1.417   8.868   7.499 -0.2791 -0.4435  0.2101
11907SOL    HW138259   1.411   8.798   7.434 -3.0621 -0.9870  0.9838
11907SOL    HW238260   1.469   8.936   7.457  0.5915 -2.0728 -1.3941
11908SOL     OW38261   9.353   7.953   0.612  0.1602  0.0942  0.7131
11908SOL    HW138262   9.264   7.949   0.577  0.4012  0.2420  0.0582
11908SOL    HW238263   9.351   8.023   0.676 -0.3198 -0.2484  1.0791
11909SOL     OW38264   0.797   0.158   8.942 -0.7001 -0.4290 -0.4754
11909SOL    HW138265   0.757   0.144   8.856  1.3204 -0.6038 -1.4092
11909SOL    HW238266   0.803   0.253   8.951 -1.8583 -0.3872 -0.0659
11910SOL     OW38267   3.097  10.132   7.636 -0.0670  0.1328 -0.2902
11910SOL    HW138268   3.144  10.215   7.650 -0.9964  0.7773 -0.9471
11910SOL    HW238269   3.122  10.078   7.711 -1.9659  2.1819  1.9224
11911SOL     OW38270   1.654   1.526   6.732 -0.2006 -0.3384 -0.2808
11911SOL    HW138271   1.626   1.440   6.701  0.1860  0.5097 -3.0664
11911SOL    HW238272   1.591   1.549   6.800 -0.5006 -2.6694  0.2710
11912SOL     OW38273  10.186   4.557   2.026 -0.3059  0.0173  0.1360
11912SOL    HW138274  10.104   4.514   2.051  0.1026 -0.4037  0.7545
11912SOL    HW238275  10.171   4.585   1.936 -0.9047 -0.6029  0.0347
11913SOL     OW38276   8.300   4.106   6.200  0.3243 -0.0392  0.4257
11913SOL    HW138277   8.238   4.051   6.247  0.8382  0.0465  1.2173
11913SOL    HW238278   8.334   4.166   6.266 -0.7576  1.7200 -0.5817
11914SOL     OW38279   2.542   8.808   9.156 -0.2058 -0.0508 -0.0636
11914SOL    HW138280   2.616   8.819   9.097 -0.4898  1.1769 -0.2048
11914SOL    HW238281   2.507   8.896   9.168 -0.9781 -0.4677  0.8703
11915SOL     OW38282   5.395   9.101   2.056  0.4167 -0.0108 -0.0585
11915SOL    HW138283   5.470   9.047   2.078  2.2698  2.1086 -0.9111
11915SOL    HW238284   5.394   9.169   2.123 -0.3185  0.3761 -0.4565
11916SOL     OW38285   4.772   7.780   5.808  0.0270  0.2912  0.1711
11916SOL    HW138286   4.755   7.860   5.858  0.3971 -1.1914  2.7681
11916SOL    HW238287   4.708   7.717   5.842 -0.0442 -0.6347 -1.6092
11917SOL     OW38288   3.493   9.725   9.402  0.5065  0.1593  0.2838
11917SOL    HW138289   3.541   9.689   9.476 -0.0513 -1.2226 -0.0153
11917SOL    HW238290   3.482   9.652   9.341 -0.6969  0.7995 -0.3064
11918SOL     OW38291   9.387   1.905   7.909  0.3300 -0.4334 -0.2337
11918SOL    HW138292   9.391   1.985   7.857 -0.2554 -1.8255 -2.4997
11918SOL    HW238293   9.472   1.901   7.953  0.6481  1.0345 -0.6733
11919SOL     OW38294   6.694   3.641   3.239  0.0979  0.8917  0.3710
11919SOL    HW138295   6.610   3.683   3.227  0.5688  1.2732 -1.8286
11919SOL    HW238296   6.733   3.684   3.315 -1.1697  1.5372  0.6568
11920SOL     OW38297   7.959   5.935   9.043  0.1909 -0.1122  0.0608
11920SOL    HW138298   7.946   5.877   9.118  0.3941  1.1306  1.0870
11920SOL    HW238299   7.877   5.984   9.036 -1.2545 -2.7843 -2.8691
11921SOL     OW38300   9.416   7.511   8.100 -0.0602 -0.2476  0.2667
11921SOL    HW138301   9.356   7.576   8.135 -0.8294  0.4521 -2.2416
11921SOL    HW238302   9.442   7.459   8.176 -0.5727  2.0449  2.0805
11922SOL     OW38303   6.107   7.277   5.880  0.3502 -0.2815 -0.3353
11922SOL    HW138304   6.171   7.220   5.924  2.0549  2.5463  1.0153
11922SOL    HW238305   6.048   7.304   5.950 -0.4620 -0.4177 -0.9702
11923SOL     OW38306   0.478   0.146   1.144  0.8549 -0.1101  0.1135
11923SOL    HW138307   0.402   0.186   1.186  1.5071  1.5952 -0.3078
11923SOL    HW238308   0.512   0.085   1.210 -0.3320 -0.2264  0.6371
11924SOL     OW38309   3.233   6.501   1.311  0.6745  0.3106 -0.1606
11924SOL    HW138310   3.236   6.593   1.286 -0.0569  0.3879  0.0474
11924SOL    HW238311   3.170   6.497   1.383 -0.3260 -0.5524 -1.0601
11925SOL     OW38312   9.750   9.820   1.318 -0.3060  0.1695  0.8275
11925SOL    HW138313   9.821   9.757   1.331  0.7981  1.3690  0.7477
11925SOL    HW238314   9.735   9.820   1.223  0.4353  0.8128  0.7079
11926SOL     OW38315   3.289   2.994   6.010 -0.2466 -0.3869  0.8381
11926SOL    HW138316   3.235   2.986   5.932  0.3504 -0.4790  0.4296
11926SOL    HW238317   3.370   3.035   5.979  1.1591 -3.0484  0.8755
11927SOL     OW38318   5.679   2.881   5.831 -0.0602 -0.2212 -0.3132
11927SOL    HW138319   5.620   2.956   5.824 -0.0595 -0.1385  0.5425
11927SOL    HW238320   5.668   2.850   5.921  0.9574 -0.4103 -0.2519
11928SOL     OW38321   5.645   0.290   7.932  0.0523 -0.3633 -0.4231
11928SOL    HW138322   5.565   0.342   7.922 -0.8350 -1.6685 -0.3231
11928SOL    HW238323   5.705   0.347   7.980 -0.4996  0.9635 -1.2604
11929SOL     OW38324   5.788   7.960   1.210 -0.2532  0.3283  0.0470
11929SOL    HW138325   5.712   7.960   1.268 -0.5031  0.6214 -0.2745
11929SOL    HW238326   5.753   7.932   1.125 -0.0653  0.7689 -0.1783
11930SOL     OW38327   8.273   8.970   8.370 -0.4368  0.0922  0.7988
11930SOL    HW138328   8.317   8.936   8.292  1.7868  0.2084  1.9522
11930SOL    HW238329   8.246   9.059   8.346  1.7348  0.7585  0.6649
11931SOL     OW38330   7.923   9.668   9.700 -0.1687  0.0560  0.0848
11931SOL    HW138331   7.895   9.758   9.689  1.6124  0.5119 -0.9918
11931SOL    HW238332   8.001   9.673   9.755  1.0780 -0.6043 -1.5551
11932SOL     OW38333   8.416   0.811   4.637  0.0691  0.0757  0.4532
11932SOL    HW138334   8.321   0.811   4.631  0.1376  0.1460 -0.7387
11932SOL    HW238335   8.443   0.733   4.588  0.7053  1.0415 -0.7566
11933SOL     OW38336   0.486   0.561   6.925  0.3500 -0.2325  0.3187
11933SOL    HW138337   0.527   0.583   7.009 -0.5083 -0.4381  0.7990
11933SOL    HW238338   0.396   0.592   6.933  0.8702  1.8800 -1.4220
11934SOL     OW38339   6.070   8.497   6.954  0.4213  0.0000  0.0859
11934SOL    HW138340   6.136   8.563   6.932  0.0121  0.1119 -0.8194
11934SOL    HW238341   6.118   8.414   6.951  0.7253  0.1676  0.3060
11935SOL     OW38342   3.524   2.716   4.975  0.2719 -0.3373  0.4232
11935SOL    HW138343   3.478   2.748   5.052  0.8254  0.5145  0.4106
11935SOL    HW238344   3.486   2.765   4.902  0.1155 -0.7578  0.2192
11936SOL     OW38345   4.975   9.371   2.357 -0.0529  0.4301  0.6039
11936SOL    HW138346   4.906   9.308   2.338 -0.5587  1.3293 -0.6146
11936SOL    HW238347   4.989   9.364   2.452 -0.4113 -1.1759  0.5452
11937SOL     OW38348   2.591   2.165   6.424  0.1021 -0.3146  0.2347
11937SOL    HW138349   2.570   2.258   6.424  1.5024  0.0117 -0.0973
11937SOL    HW238350   2.574   2.136   6.514  2.4357  0.9185  1.1076
11938SOL     OW38351   9.895   8.339   3.323  0.2618  0.1693 -0.5084
11938SOL    HW138352   9.987   8.362   3.333 -0.0156  1.1982 -0.2758
11938SOL    HW238353   9.888   8.251   3.361  1.0374  0.3099 -0.0322
11939SOL     OW38354   6.987   0.053   2.504 -0.2415 -0.1406  0.1690
11939SOL    HW138355   7.051   0.123   2.491  0.2070 -0.6713 -0.5900
11939SOL    HW238356   6.936   0.052   2.423  0.1523 -1.0705 -0.0841
11940SOL     OW38357   7.382   2.443   8.912 -0.1157 -0.3816 -0.3813
11940SOL    HW138358   7.391   2.367   8.970  0.9166  0.3988  0.5052
11940SOL    HW238359   7.370   2.405   8.825  2.0044 -1.5864 -0.1914
11941SOL     OW38360   5.152   6.211   3.266  0.0234 -0.0370 -0.2922
11941SOL    HW138361   5.111   6.168   3.191 -1.9350  0.2505  0.5844
11941SOL    HW238362   5.181   6.138   3.322  0.5960 -0.2408 -0.8510
11942SOL     OW38363   2.279  10.022   0.643 -0.4709  0.4241 -0.4119
11942SOL    HW138364   2.284   9.928   0.659 -2.1803  0.5959  1.3678
11942SOL    HW238365   2.198  10.033   0.593 -0.9326  1.0872  0.4829
11943SOL     OW38366   7.644   0.231   5.941  0.6341  0.4606 -0.0874
11943SOL    HW138367   7.603   0.195   5.863  0.4175 -0.3595  0.3987
11943SOL    HW238368   7.623   0.324   5.940 -0.1663  0.2720 -0.5036
11944SOL     OW38369   1.040   4.590   2.641  0.2067 -0.0063  0.3525
11944SOL    HW138370   0.948   4.575   2.660  0.1321  1.0482  0.8118
11944SOL    HW238371   1.087   4.554   2.716  0.0287  1.9639  1.4278
11945SOL     OW38372   6.280   8.712   1.390  0.0598  0.7670  0.2487
11945SOL    HW138373   6.185   8.706   1.404  0.1166 -1.5861 -0.1027
11945SOL    HW238374   6.289   8.750   1.303 -0.6347 -0.6960 -0.4967
11946SOL     OW38375   5.127   8.201   3.001  0.0838 -0.5030  0.0937
11946SOL    HW138376   5.103   8.263   3.069 -0.9214  1.0736 -1.6765
11946SOL    HW238377   5.090   8.117   3.030 -1.0008  0.3165  1.0863
11947SOL     OW38378   3.714   2.739   5.320 -0.2732 -0.0485  0.4672
11947SOL    HW138379   3.784   2.674   5.322 -0.9044 -0.7388 -0.1306
11947SOL    HW238380   3.751   2.813   5.272 -0.4132 -0.9433 -1.0316
11948SOL     OW38381   4.405   9.024   0.212  0.3057  0.6257  0.5979
11948SOL    HW138382   4.346   9.098   0.202  0.3036  0.4615 -0.6969
11948SOL    HW238383   4.353   8.948   0.188  0.4535  0.2427  1.4446
11949SOL     OW38384   8.446   8.056   1.954 -0.3777 -0.1948  0.6020
11949SOL    HW138385   8.468   7.963   1.946  0.7952  0.1470 -0.3246
11949SOL    HW238386   8.359   8.057   1.994 -0.5211 -1.6993  0.3484
11950SOL     OW38387   4.071  10.018   7.634  0.1247  0.2204  0.1218
11950SOL    HW138388   4.021  10.035   7.554  0.9993  0.0118 -0.4773
11950SOL    HW238389   4.163  10.026   7.607  0.4373 -0.5174  0.9484
11951SOL     OW38390   2.383   0.425   7.914  0.5730  0.2101  0.1789
11951SOL    HW138391   2.477   0.424   7.892  0.7351 -3.6878  0.6704
11951SOL    HW238392   2.374   0.496   7.977  2.8231  1.9380 -1.3815
11952SOL     OW38393   4.887   2.220   6.496 -0.5981  0.0742  0.4310
11952SOL    HW138394   4.838   2.138   6.501 -0.9225  0.1478 -1.1470
11952SOL    HW238395   4.959   2.200   6.437  0.9108  0.1659  2.2023
11953SOL     OW38396   7.600   8.084   6.014 -0.2442  0.0530 -0.1445
11953SOL    HW138397   7.508   8.076   6.039 -0.5135  0.5621 -0.9451
11953SOL    HW238398   7.603   8.047   5.925  0.4348 -0.4849  0.0976
11954SOL     OW38399   4.140   9.634   6.065 -0.1092  0.1692 -0.3590
11954SOL    HW138400   4.201   9.592   6.005 -0.4969 -0.1977 -0.5009
11954SOL    HW238401   4.074   9.567   6.084 -0.7040  0.6935 -0.5430
11955SOL     OW38402   3.586   9.643   9.687  0.0351  0.2643 -0.0069
11955SOL    HW138403   3.677   9.630   9.661 -0.2115  0.3678 -0.9184
11955SOL    HW238404   3.588   9.635   9.783  0.7318 -1.3695 -0.1283
11956SOL     OW38405   3.557   4.659   1.605  0.0840 -0.4292  0.0597
11956SOL    HW138406   3.501   4.616   1.670  0.6311 -0.7460  0.3287
11956SOL    HW238407   3.596   4.733   1.651 -0.8998  0.4001 -0.4208
11957SOL     OW38408   3.061   0.254   7.635  0.5502  0.2599 -0.0928
11957SOL    HW138409   3.052   0.312   7.711 -1.0223 -0.2463  0.1448
11957SOL    HW238410   2.973   0.218   7.622  0.6483  0.8239 -2.5597
11958SOL     OW38411   4.829   9.700   2.847  0.9785  0.3774 -0.3678
11958SOL    HW138412   4.849   9.757   2.921  1.0316 -0.1512  0.0301
11958SOL    HW238413   4.865   9.615   2.872  1.9860  0.4659 -1.4814
11959SOL     OW38414   0.186   9.977   5.141 -0.0702 -0.1896 -0.6804
11959SOL    HW138415   0.178   9.895   5.093  1.1211  1.7069 -4.3081
11959SOL    HW238416   0.096  10.007   5.153 -0.3918 -0.2381 -2.6896
11960SOL     OW38417   6.365   7.250   6.116 -0.3930  0.0647  0.3024
11960SOL    HW138418   6.384   7.197   6.193  1.7320  1.0468  0.4688
11960SOL    HW238419   6.450   7.284   6.088 -0.9190 -1.3408 -3.2806
11961SOL     OW38420   4.371   3.398   3.150 -0.4202  0.0097  0.2201
11961SOL    HW138421   4.451   3.353   3.123  0.7794  1.9846  0.3396
11961SOL    HW238422   4.388   3.424   3.241 -2.3661 -2.0616  1.2299
11962SOL     OW38423   7.277   1.091   3.724 -0.0426  0.3597 -0.2358
11962SOL    HW138424   7.264   1.033   3.799  0.0216  2.1860  1.2015
11962SOL    HW238425   7.359   1.137   3.742  0.9683 -0.5437 -2.3455
11963SOL     OW38426  10.069   0.783   8.710  0.2408  0.2768  0.3995
11963SOL    HW138427  10.036   0.852   8.768  0.5635  1.2041 -0.4960
11963SOL    HW238428  10.098   0.714   8.769 -2.7391 -0.3093  1.2236
11964SOL     OW38429   2.420   8.660   6.719 -0.0202  0.6508  0.4301
11964SOL    HW138430   2.376   8.731   6.672  0.0902  0.6254  0.2873
11964SOL    HW238431   2.499   8.700   6.753 -1.1340  1.2260  2.4242
11965SOL     OW38432   0.689   1.945   2.824 -0.2139  0.2934 -0.1373
11965SOL    HW138433   0.771   1.942   2.873 -0.9167  1.2237  1.1100
11965SOL    HW238434   0.691   2.029   2.778  1.0723 -1.1427 -2.8879
11966SOL     OW38435   6.893   4.729   4.531  0.1156 -0.2643 -0.1584
11966SOL    HW138436   6.821   4.707   4.472  1.6755 -0.6063 -1.9989
11966SOL    HW238437   6.922   4.816   4.503  0.3947 -0.1026  0.6015
11967SOL     OW38438   0.648   0.105   7.974 -0.8949  0.3595  0.2483
11967SOL    HW138439   0.644   0.095   8.069 -1.6248 -1.1529  0.0639
11967SOL    HW238440   0.599   0.031   7.940  0.8024 -0.0507 -1.3509
11968SOL     OW38441   3.590   8.284   0.880 -0.4920  0.3510  0.7131
11968SOL    HW138442   3.650   8.329   0.820 -1.4675 -0.9055 -1.2396
11968SOL    HW238443   3.554   8.354   0.935 -0.5277  1.6866 -0.9787
11969SOL     OW38444   0.745   8.814   4.740  0.0323  0.9242  0.2215
11969SOL    HW138445   0.827   8.863   4.739 -0.7956  2.3360 -1.0976
11969SOL    HW238446   0.766   8.731   4.697  1.1244  0.6320  1.2855
11970SOL     OW38447   0.991   2.510   0.999 -0.0705  0.0994 -0.2414
11970SOL    HW138448   0.944   2.574   1.052 -1.9423 -0.8667 -0.6648
11970SOL    HW238449   0.966   2.425   1.036 -0.0142 -0.4992 -1.5507
11971SOL     OW38450   2.287   5.211   7.119 -0.0085 -0.4283 -0.2190
11971SOL    HW138451   2.240   5.214   7.036 -0.6767 -1.5082  0.1090
11971SOL    HW238452   2.346   5.137   7.110 -1.6486 -1.9345  1.0699
11972SOL     OW38453   7.505   2.296  10.124 -0.7178  0.0945 -0.1687
11972SOL    HW138454   7.450   2.295  10.045 -1.4115 -1.6592  0.3071
11972SOL    HW238455   7.594   2.294  10.091 -0.9950 -0.1697 -0.9220
11973SOL     OW38456   3.303   7.414   9.457  0.2729  0.6025 -0.2061
11973SOL    HW138457   3.209   7.402   9.466  0.1969  2.2484  1.3747
11973SOL    HW238458   3.314   7.458   9.373 -0.6995  3.8809  1.3348
11974SOL     OW38459   4.332   8.376   6.066 -0.3322 -0.4497  0.7980
11974SOL    HW138460   4.421   8.341   6.057  0.7662  1.9959  1.6684
11974SOL    HW238461   4.307   8.355   6.156 -0.8322 -1.5453  0.4093
11975SOL     OW38462   6.222   4.595   5.567 -0.0141  0.1835  0.1648
11975SOL    HW138463   6.173   4.572   5.488  0.5427 -1.0386  0.1682
11975SOL    HW238464   6.271   4.673   5.543  0.5314 -0.4609 -0.8612
11976SOL     OW38465   5.760   7.942   2.398  0.6946  0.0202  0.0054
11976SOL    HW138466   5.695   7.999   2.439  0.4609  0.3045 -0.7455
11976SOL    HW238467   5.812   7.908   2.470  0.1056  0.2869  0.5586
11977SOL     OW38468   5.148   2.854   6.169  0.2892  0.4985 -0.1747
11977SOL    HW138469   5.069   2.903   6.192 -0.9461 -1.6954  0.4132
11977SOL    HW238470   5.123   2.802   6.092  0.8747 -0.8613  0.5341
11978SOL     OW38471   8.260   3.310   8.374  0.3234 -0.3270  0.0765
11978SOL    HW138472   8.255   3.219   8.404  0.0036 -0.3589 -0.0607
11978SOL    HW238473   8.321   3.308   8.301  0.1778 -0.4666 -0.0431
11979SOL     OW38474   2.179   8.694   7.257  0.5130 -0.5474  0.0352
11979SOL    HW138475   2.105   8.714   7.316  0.5624  2.6990 -0.9108
11979SOL    HW238476   2.254   8.739   7.296  0.9484  0.0802 -1.4752
11980SOL     OW38477   5.142   1.527   5.232 -0.1343 -0.0246 -0.1736
11980SOL    HW138478   5.077   1.547   5.299  0.2197 -0.0224  0.1746
11980SOL    HW238479   5.168   1.437   5.250  0.8136  0.3579  0.4213
11981SOL     OW38480   7.034   1.393   1.565  0.5749  0.3228 -0.1894
11981SOL    HW138481   7.109   1.439   1.602  0.2462  1.0796 -0.4447
11981SOL    HW238482   7.037   1.306   1.605  2.0393  0.0763 -0.8006
11982SOL     OW38483   7.823   9.508   7.007 -0.6519  0.0007  0.1546
11982SOL    HW138484   7.858   9.519   6.919 -0.0317  3.2010  0.7460
11982SOL    HW238485   7.894   9.466   7.056 -1.2468 -2.4176 -0.9862
11983SOL     OW38486   4.400   2.791   4.628  0.1238  0.3581 -1.0030
11983SOL    HW138487   4.440   2.834   4.703 -1.5852  1.1137 -0.4822
11983SOL    HW238488   4.429   2.700   4.633  0.1082  0.4276  0.5242
11984SOL     OW38489  10.011   1.296   3.484  0.1702  0.6356  0.0254
11984SOL    HW138490   9.929   1.256   3.514 -0.6447  1.2234 -1.3374
11984SOL    HW238491  10.076   1.267   3.547 -1.0564  0.0075  1.0413
11985SOL     OW38492   7.778   5.731   6.573 -0.3367 -0.3671  0.0973
11985SOL    HW138493   7.729   5.649   6.565 -2.4989  0.9850 -1.3410
11985SOL    HW238494   7.734   5.777   6.645  0.7442 -0.3837  0.7698
11986SOL     OW38495   1.668   6.464   0.488 -0.0213 -0.3831 -0.2918
11986SOL    HW138496   1.721   6.419   0.422  1.5613  1.9799 -0.7005
11986SOL    HW238497   1.622   6.532   0.440 -0.6919 -0.1450  0.6680
11987SOL     OW38498   7.599   7.844   0.777  0.2272 -0.2110  0.6299
11987SOL    HW138499   7.549   7.923   0.797  0.1220 -0.4911  1.4982
11987SOL    HW238500   7.552   7.774   0.821 -0.3787 -0.9624 -1.1584
11988SOL     OW38501   4.265   6.427   1.381  0.2390  0.5992 -0.3450
11988SOL    HW138502   4.351   6.456   1.411 -0.5013  1.1116  1.3453
11988SOL    HW238503   4.218   6.405   1.461 -1.0608 -0.0751 -1.2827
11989SOL     OW38504   8.176   3.953   0.235 -0.4826  0.0403  0.3810
11989SOL    HW138505   8.096   3.904   0.254 -0.4773  0.2583  1.0122
11989SOL    HW238506   8.238   3.923   0.301  0.1329 -0.5379 -0.4679
11990SOL     OW38507   8.806   7.461   8.438 -0.2633 -0.2652  0.6386
11990SOL    HW138508   8.852   7.427   8.361  0.3168  1.1417  0.3610
11990SOL    HW238509   8.716   7.429   8.428 -0.2382  0.0603 -0.7324
11991SOL     OW38510   7.277   4.023   5.710  0.1012 -0.0154  0.1160
11991SOL    HW138511   7.220   4.021   5.632  0.3507 -0.3674 -0.0612
11991SOL    HW238512   7.358   3.980   5.681  0.5966  0.8219  0.2666
11992SOL     OW38513   7.568   9.506   4.488 -0.1417  0.0168 -0.1322
11992SOL    HW138514   7.594   9.475   4.574 -0.2096  1.1436  0.3070
11992SOL    HW238515   7.484   9.551   4.503 -0.3395 -0.1039 -0.8445
11993SOL     OW38516   7.707   1.256   9.882  0.3192 -0.3947  0.3939
11993SOL    HW138517   7.786   1.271   9.829  0.7043 -1.6975  0.5772
11993SOL    HW238518   7.642   1.224   9.819 -0.5306  1.9997 -0.0118
11994SOL     OW38519   3.018   4.204   3.681 -0.5548 -0.8423 -0.0842
11994SOL    HW138520   2.982   4.227   3.767  0.9912 -0.8089  0.5607
11994SOL    HW238521   3.015   4.109   3.678  0.2335 -0.8802  0.3706
11995SOL     OW38522   8.128   8.434   2.091  0.1488  0.2440  0.0324
11995SOL    HW138523   8.189   8.504   2.111  2.6846 -2.5016  2.6020
11995SOL    HW238524   8.158   8.398   2.008  0.5161  0.4708  0.0681
11996SOL     OW38525  10.183   5.601   4.921 -0.3220  0.1258  0.2439
11996SOL    HW138526  10.114   5.537   4.906  0.2936 -0.4203 -0.2679
11996SOL    HW238527  10.262   5.560   4.886  0.2284  0.8219  0.6597
11997SOL     OW38528   7.332   4.242   4.891 -0.3783  0.1878 -0.2289
11997SOL    HW138529   7.408   4.186   4.881  0.0806  0.6406  0.6530
11997SOL    HW238530   7.300   4.256   4.802 -0.9155 -2.0078 -0.4095
11998SOL     OW38531   7.671   8.483   2.862 -0.1708 -0.3513 -0.1204
11998SOL    HW138532   7.710   8.483   2.775 -0.7025 -0.5883 -0.3543
11998SOL    HW238533   7.580   8.457   2.849 -0.4730  0.4184  0.4072
11999SOL     OW38534   4.032   7.517   2.018  0.0674  0.1141 -0.5287
11999SOL    HW138535   4.077   7.583   1.964  0.1055 -0.5386 -1.3079
11999SOL    HW238536   4.018   7.444   1.958  0.4441 -0.7722  0.4621
12000SOL     OW38537   8.547   0.962   2.442 -0.1081  0.3560 -0.4209
12000SOL    HW138538   8.547   0.941   2.535  1.0623  0.5488 -0.3759
12000SOL    HW238539   8.540   1.058   2.439 -2.3775  0.2077 -0.5780
12001SOL     OW38540   7.167   9.678   1.133 -0.0174 -0.7213  0.6182
12001SOL    HW138541   7.076   9.650   1.123  0.6802 -2.6041 -0.7400
12001SOL    HW238542   7.185   9.730   1.055 -0.1683  0.3436  1.2892
12002SOL     OW38543   7.517   7.821   6.977 -0.0777  0.4345 -0.0009
12002SOL    HW138544   7.428   7.831   7.009  0.9738  0.6518  3.0327
12002SOL    HW238545   7.537   7.728   6.992 -0.0572  0.2001 -1.4286
12003SOL     OW38546   9.535   0.775   1.871  0.3586 -0.0125 -0.0604
12003SOL    HW138547   9.561   0.810   1.956  3.7512 -0.7345 -0.7174
12003SOL    HW238548   9.595   0.817   1.809 -1.5360 -0.0990 -2.0116
12004SOL     OW38549   1.559   6.563   3.683 -0.0486  0.3789  0.0274
12004SOL    HW138550   1.480   6.606   3.650 -0.1223 -0.0630 -0.3727
12004SOL    HW238551   1.544   6.557   3.778 -1.5323 -1.7703 -0.3040
12005SOL     OW38552   0.208   5.228   5.630 -0.2227  0.7851  0.5287
12005SOL    HW138553   0.132   5.196   5.678 -0.7441  3.0030  1.2383
12005SOL    HW238554   0.171   5.281   5.559  0.5683 -1.4680 -1.6632
12006SOL     OW38555   9.778   2.009   7.004 -0.0714 -0.5052  0.0657
12006SOL    HW138556   9.866   2.016   6.965 -0.5317  0.9737 -0.7687
12006SOL    HW238557   9.781   2.070   7.078 -0.4569 -0.3209 -0.0738
12007SOL     OW38558   9.775   1.987   1.068  0.7514  0.0987 -0.5491
12007SOL    HW138559   9.750   1.913   1.124  1.7525 -1.4262 -2.0735
12007SOL    HW238560   9.837   2.037   1.121  0.3498 -0.3435  0.3520
12008SOL     OW38561   6.841   9.515   2.632  0.1492  0.3162  0.3954
12008SOL    HW138562   6.798   9.438   2.667  1.2394 -0.5956 -0.2332
12008SOL    HW238563   6.822   9.513   2.538 -0.2210  1.0857  0.4436
12009SOL     OW38564   9.028   6.548   3.056  0.6080  0.1397 -0.1621
12009SOL    HW138565   8.986   6.607   2.993 -0.4568 -2.0122 -1.5110
12009SOL    HW238566   9.040   6.602   3.134 -1.7573  1.7167 -0.8258
12010SOL     OW38567   9.577   7.257   4.621  0.1461  0.9683 -0.1325
12010SOL    HW138568   9.613   7.169   4.613 -1.6817  0.3345 -1.8710
12010SOL    HW238569   9.608   7.303   4.543 -0.2202  1.3650 -0.0477
12011SOL     OW38570   6.601   6.170   6.084 -0.1476 -0.5572  0.1441
12011SOL    HW138571   6.552   6.252   6.087 -0.5176 -0.8133  1.5019
12011SOL    HW238572   6.596   6.143   5.993 -0.7078  0.5230 -0.1587
12012SOL     OW38573   5.320   3.630   3.422 -0.4066  0.1111  0.1083
12012SOL    HW138574   5.325   3.560   3.487  1.8382 -0.2490 -0.4198
12012SOL    HW238575   5.297   3.586   3.340 -0.3061  0.1779  0.0446
12013SOL     OW38576   3.348   1.586   2.068 -0.2222 -0.1093 -0.2345
12013SOL    HW138577   3.277   1.562   2.127  0.5229  0.9171  1.1049
12013SOL    HW238578   3.322   1.549   1.983 -1.8972 -0.5429  0.4430
12014SOL     OW38579   5.353   4.142   1.199  0.4035  0.6883 -0.1460
12014SOL    HW138580   5.421   4.206   1.180  0.8048  0.3597  0.1965
12014SOL    HW238581   5.400   4.062   1.219 -0.1074  0.2303 -0.7602
12015SOL     OW38582   3.383  10.121   3.385  0.8719 -0.0283 -0.4146
12015SOL    HW138583   3.368  10.077   3.301  0.6125 -0.4477 -0.1467
12015SOL    HW238584   3.478  10.114   3.399  0.9558  0.2802 -0.7988
12016SOL     OW38585   7.620   4.491   3.601 -0.1528 -0.1291 -0.5277
12016SOL    HW138586   7.644   4.447   3.520 -0.9835 -1.6345  0.0252
12016SOL    HW238587   7.544   4.545   3.577 -1.5877 -2.0353 -0.3447
12017SOL     OW38588   3.152   2.247   1.218  0.1322  0.2817  0.9153
12017SOL    HW138589   3.184   2.336   1.202 -0.4876  0.2882 -0.3316
12017SOL    HW238590   3.149   2.240   1.313 -2.1116  2.4497  1.0650
12018SOL     OW38591   6.337   2.952   4.060 -0.7213 -0.3146  0.2480
12018SOL    HW138592   6.244   2.930   4.065 -0.3259 -2.2806 -0.5816
12018SOL    HW238593   6.381   2.883   4.110  0.3208  0.3577  0.2735
12019SOL     OW38594   9.494   4.152   6.504  0.9270 -0.5411 -0.2299
12019SOL    HW138595   9.565   4.088   6.494  0.7365 -0.5392 -1.7175
12019SOL    HW238596   9.520   4.224   6.447  1.4227  0.9784  1.8584
12020SOL     OW38597   6.546   9.476   7.921 -0.6751 -0.1935 -0.0042
12020SOL    HW138598   6.491   9.532   7.867 -1.0720  0.0524  0.6453
12020SOL    HW238599   6.534   9.388   7.886 -0.4932  0.0424 -0.6628
12021SOL     OW38600   5.067   5.225   0.165  0.0198  0.4703 -0.1514
12021SOL    HW138601   5.084   5.144   0.117  0.1895  0.7814 -0.6203
12021SOL    HW238602   4.989   5.206   0.218 -0.0149  0.0448 -0.3555
12022SOL     OW38603   9.465   6.445   2.573  0.3095 -0.1473  0.3496
12022SOL    HW138604   9.488   6.352   2.576 -0.5638 -0.4077 -0.5992
12022SOL    HW238605   9.513   6.480   2.499  0.9326  0.2496  0.9353
12023SOL     OW38606   5.711   3.430   4.579 -0.9478  0.6606  0.5639
12023SOL    HW138607   5.770   3.363   4.613  0.3430  1.6311  0.2697
12023SOL    HW238608   5.713   3.418   4.484  0.0778  1.7463  0.4346
12024SOL     OW38609   0.260   9.221   5.317  0.0903  0.5567  0.0287
12024SOL    HW138610   0.184   9.271   5.287 -0.9267  0.7808  2.8471
12024SOL    HW238611   0.245   9.133   5.283 -0.0937  1.2180 -1.6484
12025SOL     OW38612   9.324   6.304   7.572 -0.4868  0.3431 -0.1972
12025SOL    HW138613   9.381   6.305   7.495 -2.0512  2.8729 -1.3976
12025SOL    HW238614   9.236   6.310   7.537 -1.2845  0.3506  1.7531
12026SOL     OW38615   5.847   2.534   4.483  0.2120  0.1391  0.2516
12026SOL    HW138616   5.782   2.600   4.460 -0.3394 -0.2995  0.5342
12026SOL    HW238617   5.873   2.495   4.400  1.1134  1.2412  0.0077
12027SOL     OW38618   4.603   9.973   7.715  0.2041 -0.0203  0.3295
12027SOL    HW138619   4.638  10.045   7.767  0.8207 -0.7454  0.9259
12027SOL    HW238620   4.600   9.899   7.775 -0.8692 -0.3781 -0.1477
12028SOL     OW38621   6.562   3.945   1.927  0.5360  0.2048 -0.7479
12028SOL    HW138622   6.608   3.942   2.011 -1.3039 -0.1523  0.2824
12028SOL    HW238623   6.538   4.037   1.916  0.7408  0.2445 -0.8583
12029SOL     OW38624   4.583   1.158   3.760 -0.0954  0.1365  0.1830
12029SOL    HW138625   4.607   1.184   3.849  0.4455  1.1306 -0.2453
12029SOL    HW238626   4.651   1.197   3.704 -1.7167  1.5423 -0.8870
12030SOL     OW38627   8.560   1.158   1.032 -0.1172  0.4419  0.1300
12030SOL    HW138628   8.474   1.141   1.072 -0.0183 -1.0420 -0.2288
12030SOL    HW238629   8.619   1.099   1.079  0.9034  2.1251  1.0114
12031SOL     OW38630   5.961   2.578   9.376  0.0773  0.2557  0.2956
12031SOL    HW138631   5.915   2.644   9.324 -0.0155 -0.1274 -0.1141
12031SOL    HW238632   5.993   2.515   9.311 -0.2630 -0.3647  0.7219
12032SOL     OW38633   6.937   5.611   2.826  0.3654  0.1569  0.3480
12032SOL    HW138634   6.954   5.673   2.897 -1.1053 -0.2292  1.0778
12032SOL    HW238635   6.906   5.532   2.871  0.4522 -0.4597 -0.6701
12033SOL     OW38636   7.902   4.101   7.441 -0.7013  0.3764  0.2057
12033SOL    HW138637   7.931   4.169   7.380 -0.0387 -0.0249  0.0711
12033SOL    HW238638   7.963   4.028   7.427 -0.0048  0.6058  1.9478
12034SOL     OW38639   6.346   9.160   1.381 -0.7925 -0.2748 -0.0869
12034SOL    HW138640   6.305   9.081   1.417 -0.2185 -0.9004 -0.7648
12034SOL    HW238641   6.440   9.146   1.395 -0.6918  0.2779 -0.2275
12035SOL     OW38642   4.911   7.389   2.837 -0.2345  0.1993 -0.0243
12035SOL    HW138643   4.874   7.324   2.777 -0.7355  0.1176  0.3726
12035SOL    HW238644   4.864   7.376   2.919 -0.3118  1.0358  0.0701
12036SOL     OW38645   5.995   4.718   3.766  0.1520 -0.2247  0.0445
12036SOL    HW138646   6.002   4.710   3.861 -1.2699  0.0577  0.1956
12036SOL    HW238647   6.005   4.811   3.749  3.0100 -0.5750 -0.3546
12037SOL     OW38648   9.235   4.560   0.428  0.2658  0.0006  0.4211
12037SOL    HW138649   9.176   4.507   0.482 -0.5070  1.6643  1.2618
12037SOL    HW238650   9.178   4.625   0.388  0.5880 -2.1419 -3.7168
12038SOL     OW38651   1.815   9.057   8.791  0.4679 -0.1808 -0.1928
12038SOL    HW138652   1.798   9.135   8.739  0.0681 -1.4682 -2.0335
12038SOL    HW238653   1.729   9.033   8.828  1.0989  1.9145  2.8478
12039SOL     OW38654   0.388   4.719   2.500  0.2529  0.0009  0.1887
12039SOL    HW138655   0.441   4.660   2.446  0.1326 -0.5625  0.6735
12039SOL    HW238656   0.376   4.671   2.582 -1.7008 -0.2517 -0.2156
12040SOL     OW38657   7.589   0.106   8.446 -0.1848  0.2564 -0.3973
12040SOL    HW138658   7.504   0.062   8.441  0.7984 -1.6691 -0.7961
12040SOL    HW238659   7.619   0.090   8.535  0.6501 -0.8670 -0.8546
12041SOL     OW38660   5.245   0.537   5.619  0.2012 -0.1410  0.0076
12041SOL    HW138661   5.317   0.565   5.676  0.0472  2.0392 -0.8489
12041SOL    HW238662   5.285   0.472   5.561  1.7858  1.8276 -1.1815
12042SOL     OW38663   4.698   4.055   0.464  0.0367  0.7988  0.4514
12042SOL    HW138664   4.791   4.070   0.447  0.1410 -0.6749 -0.3924
12042SOL    HW238665   4.695   4.015   0.551  0.4338 -1.4673 -0.5375
12043SOL     OW38666   0.529   6.845   2.534 -0.4214 -0.1668  0.1355
12043SOL    HW138667   0.492   6.867   2.620 -0.7253 -0.6959  0.1470
12043SOL    HW238668   0.479   6.768   2.506 -0.7678  0.4088 -0.8203
12044SOL     OW38669   4.743   5.939   3.264  0.1932  0.3409  0.0276
12044SOL    HW138670   4.651   5.950   3.288 -0.1263  1.4547 -1.5725
12044SOL    HW238671   4.752   5.845   3.246 -0.5700  0.1843  0.4518
12045SOL     OW38672   9.202   6.324   4.308 -1.0547 -0.3509 -0.3433
12045SOL    HW138673   9.294   6.307   4.327 -1.4440 -1.8391  0.2827
12045SOL    HW238674   9.196   6.321   4.212 -0.3643  0.3076 -0.4148
12046SOL     OW38675   7.818   1.953   1.115  0.4628  0.2557 -0.1129
12046SOL    HW138676   7.755   1.907   1.171 -1.1421  2.4080 -0.0531
12046SOL    HW238677   7.872   2.003   1.176  0.6104  0.3370 -0.3107
12047SOL     OW38678   8.849   6.900   0.909 -0.8657 -0.1825  0.0250
12047SOL    HW138679   8.780   6.844   0.873  0.3522 -1.4029 -0.4409
12047SOL    HW238680   8.805   6.984   0.926 -2.5854 -1.0901  0.2298
12048SOL     OW38681   4.790   1.092   7.506  0.0875 -0.2820  0.2646
12048SOL    HW138682   4.839   1.059   7.430 -2.3093 -2.6049 -0.3645
12048SOL    HW238683   4.714   1.136   7.468  1.0299  2.2722  1.2600
12049SOL     OW38684   0.018   0.796   1.866  0.2640  0.7707 -0.2403
12049SOL    HW138685  -0.071   0.791   1.831  0.3968  0.8546 -0.5949
12049SOL    HW238686   0.074   0.791   1.789  0.6212 -1.2649  0.1318
12050SOL     OW38687   1.677   6.593   2.551  0.1077  0.1845  0.2045
12050SOL    HW138688   1.666   6.688   2.552  1.7690  0.3815  0.8066
12050SOL    HW238689   1.672   6.567   2.643 -0.5772 -0.3433  0.0235
12051SOL     OW38690   4.672   8.594   1.302 -0.0077 -0.0891 -0.1324
12051SOL    HW138691   4.744   8.655   1.318 -0.9185  1.2017 -0.8495
12051SOL    HW238692   4.694   8.551   1.220  0.0831  0.1180 -0.2171
12052SOL     OW38693   1.283   5.913   9.102 -0.1194  0.3373 -0.3070
12052SOL    HW138694   1.214   5.941   9.042  2.2419  0.7111 -2.9288
12052SOL    HW238695   1.365   5.938   9.059  1.6998 -0.3597  2.5825
12053SOL     OW38696   2.479   7.302   5.987  0.0487  0.0044 -0.2794
12053SOL    HW138697   2.441   7.329   5.903  0.6508  0.3008 -0.4615
12053SOL    HW238698   2.422   7.340   6.053  0.8816  1.7108 -0.5323
12054SOL     OW38699   6.452   6.917   5.658 -0.1004  0.5456 -0.0952
12054SOL    HW138700   6.493   6.832   5.675 -0.6132  0.2795 -0.1811
12054SOL    HW238701   6.486   6.974   5.727 -1.1371 -0.1984  1.0654
12055SOL     OW38702   8.286   4.300   7.497  0.2594  0.4823 -0.1353
12055SOL    HW138703   8.242   4.367   7.445  1.5200 -0.4706 -2.5336
12055SOL    HW238704   8.257   4.217   7.459  0.7967 -0.2563  1.0410
12056SOL     OW38705   4.173   9.239   7.593  0.3158  0.2710 -0.0072
12056SOL    HW138706   4.257   9.198   7.571 -0.0592 -0.4885 -0.0117
12056SOL    HW238707   4.116   9.166   7.617 -1.1907  0.5023 -2.6984
12057SOL     OW38708   7.891   9.020   2.447 -0.5008  0.0910 -0.5728
12057SOL    HW138709   7.919   9.019   2.539 -1.6472 -3.3532 -0.2078
12057SOL    HW238710   7.944   8.952   2.406 -1.7824 -0.1176 -1.8928
12058SOL     OW38711   1.439  10.093   4.231 -0.2430 -0.1352 -0.4325
12058SOL    HW138712   1.463  10.055   4.146 -2.8203  0.1381 -1.3280
12058SOL    HW238713   1.377  10.030   4.268 -2.2209  1.6729 -0.5829
12059SOL     OW38714   2.594   3.854   8.766  0.0548 -0.4685  0.3123
12059SOL    HW138715   2.638   3.934   8.794  0.1202 -0.4067  0.0402
12059SOL    HW238716   2.659   3.806   8.715  0.6277 -1.6169  2.0768
12060SOL     OW38717   8.945   2.960   5.891  0.2654  0.0990 -0.4279
12060SOL    HW138718   8.965   2.926   5.978 -1.6177  1.1513  0.4441
12060SOL    HW238719   8.903   2.888   5.845  0.5366 -0.2024 -0.2003
12061SOL     OW38720   5.407   3.307   6.149 -0.3351  0.0287  0.6372
12061SOL    HW138721   5.326   3.357   6.165 -0.9679 -0.6116 -0.5118
12061SOL    HW238722   5.468   3.373   6.114 -1.6212 -0.2073 -2.2593
12062SOL     OW38723   1.027   5.056   1.200  0.0813 -0.7004 -0.1397
12062SOL    HW138724   0.975   5.117   1.253  1.3977  0.9203 -0.6608
12062SOL    HW238725   1.106   5.041   1.253 -0.4461 -2.3141  0.1858
12063SOL     OW38726   9.339   3.506   4.709 -0.3458  0.3727 -0.1285
12063SOL    HW138727   9.387   3.443   4.655 -0.1875  0.4628 -0.0937
12063SOL    HW238728   9.249   3.503   4.675 -0.6750 -0.9559  0.8652
12064SOL     OW38729   4.210   2.403   4.186  0.0114  0.1128  0.3688
12064SOL    HW138730   4.249   2.344   4.251  0.6234 -0.3025 -0.3753
12064SOL    HW238731   4.155   2.462   4.238 -1.9373 -2.1354  0.9917
12065SOL     OW38732   1.236   5.544   6.520 -0.2074 -0.4368 -0.6312
12065SOL    HW138733   1.260   5.451   6.528  0.1597 -0.2868 -0.0165
12065SOL    HW238734   1.298   5.590   6.576 -1.3764  0.0424  0.2729
12066SOL     OW38735   7.363   7.635   4.595 -0.4040 -0.3342  0.5436
12066SOL    HW138736   7.373   7.637   4.499 -0.1773  1.3567  0.5884
12066SOL    HW238737   7.446   7.600   4.627  0.0407  0.3974  0.1941
12067SOL     OW38738   4.022   8.412   1.537 -0.4999  0.1478  0.5217
12067SOL    HW138739   3.952   8.354   1.566 -0.2065  0.3592  1.6777
12067SOL    HW238740   4.002   8.429   1.445 -1.6579 -0.2397  0.6919
12068SOL     OW38741   2.807   3.102   4.801  0.2452 -0.3967 -0.2989
12068SOL    HW138742   2.801   3.026   4.858 -0.8114 -0.6351 -0.7096
12068SOL    HW238743   2.804   3.177   4.860 -0.6366 -0.6423 -0.0207
12069SOL     OW38744   1.993   1.861   3.544  0.1746 -0.0648 -0.3200
12069SOL    HW138745   1.933   1.933   3.566 -0.6687 -0.4898 -1.2153
12069SOL    HW238746   1.936   1.787   3.524  1.0625 -1.3447  1.7437
12070SOL     OW38747   8.249   7.380   4.583  0.1706  0.6372 -0.1437
12070SOL    HW138748   8.205   7.391   4.499  0.7756  0.2208 -0.5189
12070SOL    HW238749   8.252   7.468   4.620  0.6269  0.9505 -0.9190
12071SOL     OW38750   1.918   9.754   3.413  0.2453 -0.4935  0.0766
12071SOL    HW138751   1.886   9.731   3.325  1.3426 -1.0881 -0.1703
12071SOL    HW238752   1.958   9.840   3.402 -1.3911  0.3519  0.4297
12072SOL     OW38753   0.006   5.198   5.817 -0.4027 -0.5092  0.3730
12072SOL    HW138754  -0.038   5.142   5.882  1.6562 -0.9417  1.4450
12072SOL    HW238755  -0.003   5.287   5.851 -1.5761 -0.4486 -0.0868
12073SOL     OW38756   7.495   3.538   4.395  0.0286 -0.3343 -0.4842
12073SOL    HW138757   7.412   3.534   4.442  0.6562 -0.3851  0.6428
12073SOL    HW238758   7.548   3.602   4.445  1.5272 -2.0845  0.2215
12074SOL     OW38759   4.448   2.677   6.311 -0.0545 -0.5535  0.3774
12074SOL    HW138760   4.502   2.752   6.287 -1.6151  0.5213  0.1879
12074SOL    HW238761   4.477   2.654   6.399  0.8824 -0.1602  0.1797
12075SOL     OW38762   7.004   7.564   0.075 -0.5273  0.2719 -0.0739
12075SOL    HW138763   7.010   7.659   0.062  0.1207  0.1560 -0.6231
12075SOL    HW238764   7.088   7.539   0.114 -0.7543 -0.0566  0.2140
12076SOL     OW38765   8.431   9.183   8.941  0.0479 -0.1568 -0.0038
12076SOL    HW138766   8.376   9.120   8.894 -0.0662  0.3837 -0.6069
12076SOL    HW238767   8.446   9.253   8.877  0.8992  0.0065  0.3761
12077SOL     OW38768   5.614   5.026   7.985  0.2613 -0.2744  0.3715
12077SOL    HW138769   5.680   4.981   7.933  0.5731  1.7783 -1.1012
12077SOL    HW238770   5.532   5.009   7.940  0.4431  0.9549 -0.4645
12078SOL     OW38771   4.971   7.966   2.873  0.1996 -0.0165  0.6127
12078SOL    HW138772   4.964   7.911   2.795 -1.0884 -0.0713  0.7494
12078SOL    HW238773   4.932   7.913   2.943  2.9620 -0.7075  1.6956
12079SOL     OW38774   8.342   5.796   9.067  0.1280 -0.2426 -0.3089
12079SOL    HW138775   8.249   5.777   9.071 -0.0930  0.6018 -1.3358
12079SOL    HW238776   8.351   5.884   9.104  0.3134  0.2961 -1.6009
12080SOL     OW38777   0.515   1.403   8.511  0.1425 -0.0037  0.2584
12080SOL    HW138778   0.423   1.413   8.487  0.6614  1.7902 -1.1264
12080SOL    HW238779   0.538   1.486   8.552  1.7220  0.4460 -1.4580
12081SOL     OW38780   2.403   5.685   4.359 -0.0787 -0.6896  0.1186
12081SOL    HW138781   2.366   5.769   4.334  1.0248 -0.4923 -0.8761
12081SOL    HW238782   2.375   5.673   4.450 -1.2296  0.1875 -0.1021
12082SOL     OW38783   7.249   5.127   4.603 -0.5495 -0.2534 -0.2212
12082SOL    HW138784   7.335   5.086   4.592 -0.3125  0.3121 -0.5187
12082SOL    HW238785   7.244   5.190   4.531 -0.7008  0.5778  0.5086
12083SOL     OW38786   6.409   8.014   5.659  0.2295  0.3803 -0.3995
12083SOL    HW138787   6.501   8.010   5.634  0.8407  1.3508  1.5756
12083SOL    HW238788   6.401   7.955   5.734 -0.2696  1.8790  0.7626
12084SOL     OW38789   9.581   9.626   3.795 -0.5040  0.6124  0.2088
12084SOL    HW138790   9.515   9.694   3.784 -1.5676 -0.5628 -0.9278
12084SOL    HW238791   9.622   9.617   3.709  0.5196  0.7140  0.6809
12085SOL     OW38792   8.098   8.287   1.163 -0.6553 -0.7310 -0.3796
12085SOL    HW138793   8.193   8.285   1.172 -0.8447  0.1020  2.0823
12085SOL    HW238794   8.080   8.370   1.120 -0.2223 -1.4523 -2.0178
12086SOL     OW38795   9.887   1.402  10.184 -0.0768  0.5675 -0.1210
12086SOL    HW138796   9.815   1.445  10.229 -1.0463 -0.6881 -0.4468
12086SOL    HW238797   9.951   1.384  10.254 -0.0748  1.6710  0.1653
12087SOL     OW38798   2.490   8.450   3.482  0.2116 -0.4939 -0.0313
12087SOL    HW138799   2.479   8.465   3.576 -1.5379 -1.2330 -0.0914
12087SOL    HW238800   2.407   8.478   3.444 -0.4319 -3.4825 -0.9343
12088SOL     OW38801   5.163   4.160   5.818 -0.6412 -0.0486  0.4694
12088SOL    HW138802   5.081   4.123   5.784  0.2842 -1.5291 -0.2360
12088SOL    HW238803   5.202   4.089   5.870  0.7722  0.1966 -0.2229
12089SOL     OW38804   6.872   4.220   8.791  0.0416 -0.3606  0.0777
12089SOL    HW138805   6.871   4.239   8.885  0.2167 -1.8544  0.4002
12089SOL    HW238806   6.883   4.125   8.786 -1.2418 -0.4554 -1.4389
12090SOL     OW38807   2.344   2.363   6.804 -0.0929 -0.1834 -0.9899
12090SOL    HW138808   2.266   2.316   6.776 -0.4419 -0.7319  0.8027
12090SOL    HW238809   2.325   2.388   6.895  0.9544  1.5588 -1.2357
12091SOL     OW38810   7.576   2.413   0.940 -0.0056  0.3166  0.2476
12091SOL    HW138811   7.599   2.495   0.896  1.0313 -1.1705 -2.1082
12091SOL    HW238812   7.655   2.387   0.987  0.0579  0.0690  0.0068
12092SOL     OW38813   0.989   6.747   0.227 -0.4608  0.0722 -0.8221
12092SOL    HW138814   1.061   6.688   0.205 -0.5160  0.4125 -1.9412
12092SOL    HW238815   0.947   6.706   0.303  2.4693  1.1936  1.4752
12093SOL     OW38816   8.468   5.418   5.584 -0.0023 -0.7364 -0.0515
12093SOL    HW138817   8.407   5.383   5.519  0.2509  0.4139 -0.9419
12093SOL    HW238818   8.472   5.512   5.563  0.8276 -0.5335  1.0223
12094SOL     OW38819   5.975   5.488   0.238  0.2797 -0.4027  0.2031
12094SOL    HW138820   6.037   5.442   0.295  1.7573  1.0011 -0.2121
12094SOL    HW238821   6.012   5.576   0.229 -1.8491  0.4914  0.0105
12095SOL     OW38822   7.469   2.887   2.791  0.1080  0.1239 -0.2620
12095SOL    HW138823   7.553   2.854   2.821  0.0885  0.6967  0.4351
12095SOL    HW238824   7.420   2.808   2.765 -0.0170 -0.4253  1.5711
12096SOL     OW38825   2.738   4.735   3.479 -0.0043 -0.0188  0.2523
12096SOL    HW138826   2.702   4.739   3.390  0.3789  0.0689  0.0985
12096SOL    HW238827   2.791   4.655   3.481  3.8566  2.3311 -1.1148
12097SOL     OW38828   5.238   5.056   2.516  0.5050 -0.3985 -0.4121
12097SOL    HW138829   5.208   5.111   2.588  1.6209 -1.4443  0.8887
12097SOL    HW238830   5.158   5.015   2.483 -0.1373  0.8057 -0.3818
12098SOL     OW38831   1.551   6.972   0.158 -0.7433 -0.3454  0.4061
12098SOL    HW138832   1.543   6.880   0.134  0.7092 -0.4799  0.4394
12098SOL    HW238833   1.560   6.971   0.254  2.6070 -0.4159  0.1492
12099SOL     OW38834   4.577   1.965   2.136 -0.4082 -0.2712  0.0260
12099SOL    HW138835   4.542   2.022   2.067  0.4601 -0.7483 -0.8238
12099SOL    HW238836   4.520   1.981   2.212 -0.1406  1.7859 -0.1689
12100SOL     OW38837   2.114   0.920   1.006  0.0490 -0.0537 -0.3372
12100SOL    HW138838   2.152   1.006   0.988  2.5222 -0.3650  2.8911
12100SOL    HW238839   2.056   0.935   1.081 -1.8550 -0.7069 -1.6204
12101SOL     OW38840   6.050   6.849  10.050 -0.3697 -0.4303 -0.2184
12101SOL    HW138841   6.076   6.775   9.995 -2.2222 -2.0899  1.1045
12101SOL    HW238842   5.981   6.892  10.000  2.2583  1.8499 -2.0581
12102SOL     OW38843   8.768   0.887   1.902  0.1017  0.0754 -0.0546
12102SOL    HW138844   8.699   0.839   1.947 -0.0207  1.0162  0.7889
12102SOL    HW238845   8.831   0.820   1.876 -0.9260 -0.7461 -0.4722
12103SOL     OW38846   6.917   1.474   3.283  0.4903  0.6956  0.3391
12103SOL    HW138847   6.900   1.567   3.272 -0.3126  0.6932  1.4927
12103SOL    HW238848   6.855   1.431   3.224 -0.9401  0.8094  1.7421
12104SOL     OW38849   7.500   2.897   5.244 -0.0492 -0.2258  0.1548
12104SOL    HW138850   7.519   2.956   5.316  0.9983 -0.7921  0.3520
12104SOL    HW238851   7.585   2.864   5.216 -0.5199 -0.7280 -0.7277
12105SOL     OW38852   7.769   7.938   0.091  0.4206 -0.0928 -0.0043
12105SOL    HW138853   7.819   8.003   0.042  1.8196  0.4281  2.0383
12105SOL    HW238854   7.825   7.860   0.089  0.2373 -0.2294  0.3120
12106SOL     OW38855   5.385   0.993   0.441  0.2733 -0.4472  0.0498
12106SOL    HW138856   5.353   0.915   0.396 -1.5352 -1.2934  2.6288
12106SOL    HW238857   5.374   1.064   0.378 -0.7642 -1.8075 -1.3357
12107SOL     OW38858   4.809   3.018   8.307  0.7026  0.8131 -0.2463
12107SOL    HW138859   4.835   2.967   8.231 -1.5139  0.0998 -0.5728
12107SOL    HW238860   4.854   3.102   8.297  2.2600 -0.1072 -1.1038
12108SOL     OW38861   0.048   6.753   2.387 -0.1651  0.1780  0.2714
12108SOL    HW138862   0.030   6.663   2.363 -0.3834 -0.0428  1.2613
12108SOL    HW238863   0.133   6.772   2.346  0.7969 -1.0898  1.6695
12109SOL     OW38864   1.499   0.921   3.528 -0.4269  0.8621 -0.0835
12109SOL    HW138865   1.483   0.915   3.434 -0.3144 -2.2111  0.0603
12109SOL    HW238866   1.412   0.921   3.567 -0.4149 -0.8755 -0.0455
12110SOL     OW38867   3.189   0.606   7.984 -0.3075  0.4082  0.5359
12110SOL    HW138868   3.269   0.560   7.959  0.3365  1.4597  0.5823
12110SOL    HW238869   3.120   0.541   7.978  0.2476 -0.0319 -1.4254
12111SOL     OW38870   3.022   7.022   0.399 -0.2385  0.4595 -0.2976
12111SOL    HW138871   2.950   6.990   0.453  1.7233  1.4620  3.0625
12111SOL    HW238872   3.101   6.988   0.441  1.4684  3.0973 -1.2214
12112SOL     OW38873   6.431   2.269   6.741 -0.4940  0.0762  0.7157
12112SOL    HW138874   6.522   2.296   6.730 -1.2012  2.3207  0.1213
12112SOL    HW238875   6.391   2.282   6.655 -1.5199 -0.3162  1.1241
12113SOL     OW38876   2.192   6.667   1.607 -0.1539  0.1044 -0.1878
12113SOL    HW138877   2.170   6.743   1.553 -0.3278  0.2496  0.0831
12113SOL    HW238878   2.108   6.624   1.622  0.0042 -0.3852 -0.7018
12114SOL     OW38879   0.800   3.907   7.461 -0.0931 -0.1337  0.4688
12114SOL    HW138880   0.826   3.910   7.553  1.0921  5.2861  0.1765
12114SOL    HW238881   0.705   3.908   7.462 -0.0938 -0.9498  1.6212
12115SOL     OW38882   6.882   1.152   7.509  0.1070 -0.1401  0.3628
12115SOL    HW138883   6.940   1.077   7.522  1.8335  0.7953 -1.6548
12115SOL    HW238884   6.827   1.127   7.434  0.4784  0.4557 -0.1164
12116SOL     OW38885   0.744   4.481   0.744  0.1704  0.2521  0.1321
12116SOL    HW138886   0.835   4.511   0.749  0.4700 -0.5825 -0.1309
12116SOL    HW238887   0.728   4.468   0.651  0.0202 -0.3000  0.2329
12117SOL     OW38888   2.120   0.170  10.120  0.0265 -0.3503  0.4838
12117SOL    HW138889   2.075   0.248  10.152 -0.2912 -0.4164  0.2027
12117SOL    HW238890   2.175   0.202  10.048 -2.9853 -0.9686 -2.1936
12118SOL     OW38891   0.260   9.110   2.334 -0.2288  0.0092 -0.2597
12118SOL    HW138892   0.351   9.086   2.348 -0.1447 -0.2235 -1.1951
12118SOL    HW238893   0.264   9.186   2.275 -0.6641 -0.5420 -1.0132
12119SOL     OW38894   5.769   5.567   6.257  0.1506  0.0430 -0.2467
12119SOL    HW138895   5.770   5.628   6.183  1.9246 -2.2049 -2.0998
12119SOL    HW238896   5.781   5.623   6.334 -0.1767  2.2338 -1.7480
12120SOL     OW38897   0.055   4.600   1.477  0.0337  0.0814  0.7114
12120SOL    HW138898   0.145   4.632   1.484  0.2153 -0.6518  1.7843
12120SOL    HW238899   0.027   4.627   1.389  1.5503 -0.3477  0.0829
12121SOL     OW38900   4.134   4.801   0.657 -0.8404  0.8130  0.1050
12121SOL    HW138901   4.178   4.776   0.576 -1.8283  1.7266 -0.7286
12121SOL    HW238902   4.204   4.807   0.722 -0.0523 -0.0093 -0.6538
12122SOL     OW38903   0.218   8.437   7.942 -0.2899  0.0197  0.2439
12122SOL    HW138904   0.174   8.515   7.977 -1.6525 -0.2955 -0.7343
12122SOL    HW238905   0.254   8.394   8.019 -2.0345  0.0961  1.1236
12123SOL     OW38906   0.423   3.876   4.597 -0.1297 -0.0100 -0.0832
12123SOL    HW138907   0.485   3.807   4.621  0.1911  0.7399  1.3018
12123SOL    HW238908   0.472   3.935   4.540  0.2994  0.3056  0.6010
12124SOL     OW38909   3.522   8.654   2.178  0.2828 -0.2920 -0.8696
12124SOL    HW138910   3.552   8.715   2.245  0.0733 -0.2801 -0.7854
12124SOL    HW238911   3.601   8.630   2.130  0.1413  1.1981 -1.8645
12125SOL     OW38912   7.138   1.441   5.552 -0.0906  0.2782  0.2805
12125SOL    HW138913   7.189   1.366   5.583 -1.6145 -0.7921  0.2531
12125SOL    HW238914   7.102   1.412   5.468 -1.2241  0.7994  0.5773
12126SOL     OW38915   6.210   3.741   6.339  0.1046 -0.2786 -0.4152
12126SOL    HW138916   6.254   3.809   6.289 -0.3999  1.1632  1.0495
12126SOL    HW238917   6.276   3.709   6.400  0.1370 -0.5817 -0.6117
12127SOL     OW38918   1.272   2.098   6.528  0.0979  0.6553  0.2526
12127SOL    HW138919   1.288   2.047   6.607 -1.2087 -0.1919 -0.0171
12127SOL    HW238920   1.355   2.094   6.480 -0.2794 -2.1214 -0.2708
12128SOL     OW38921   2.587   5.013   3.430 -0.1900  0.0701  0.1366
12128SOL    HW138922   2.630   5.086   3.385 -1.3678  0.4631 -0.3548
12128SOL    HW238923   2.582   4.944   3.364 -1.7692  0.5899 -0.3155
12129SOL     OW38924   5.384   1.196   7.244  0.1420 -0.4436 -0.2068
12129SOL    HW138925   5.469   1.231   7.219 -0.8827  0.9159 -1.8443
12129SOL    HW238926   5.400   1.153   7.328  2.1519  0.9361  0.1495
12130SOL     OW38927   4.362   4.810   4.222  0.7013  0.0951 -0.1491
12130SOL    HW138928   4.422   4.798   4.148 -0.1572  0.5657 -0.9281
12130SOL    HW238929   4.280   4.840   4.182  0.0971 -0.0653  0.9559
12131SOL     OW38930   1.752   9.378   7.353  0.3633 -0.2869 -0.1259
12131SOL    HW138931   1.780   9.446   7.414 -0.5535 -0.2825  0.3108
12131SOL    HW238932   1.815   9.307   7.366 -0.6709 -0.8776  1.9300
12132SOL     OW38933   9.675   2.674   8.240 -0.4204 -0.3431  0.1687
12132SOL    HW138934   9.729   2.605   8.203 -0.5410 -0.9485  1.0942
12132SOL    HW238935   9.660   2.735   8.168 -0.9096 -1.6406 -0.8391
12133SOL     OW38936   9.234   0.953   2.173 -0.2345 -0.2814  0.5328
12133SOL    HW138937   9.242   1.030   2.117  1.8473 -0.8100  0.0719
12133SOL    HW238938   9.148   0.962   2.215 -1.4955  0.4870 -2.1550
12134SOL     OW38939   8.834   5.301   9.302  0.5005  0.3020  0.6516
12134SOL    HW138940   8.861   5.236   9.368 -0.1065  1.1968  1.8048
12134SOL    HW238941   8.917   5.331   9.264  0.9081  0.1766  1.4096
12135SOL     OW38942   8.829   7.675   2.590 -0.2627 -0.0484 -0.8971
12135SOL    HW138943   8.917   7.689   2.555  0.1407 -2.8973 -1.1156
12135SOL    HW238944   8.842   7.664   2.684 -0.2798 -1.2295 -1.0274
12136SOL     OW38945   3.223   6.812   5.109  0.0272 -0.4233 -0.2703
12136SOL    HW138946   3.199   6.891   5.061  0.4763 -0.4401 -0.5249
12136SOL    HW238947   3.318   6.810   5.106  0.1451  0.3250  1.8534
12137SOL     OW38948   5.902   4.364   2.419 -0.0347  0.3627  0.5487
12137SOL    HW138949   5.901   4.292   2.482 -1.1298  0.5787  0.7789
12137SOL    HW238950   5.995   4.389   2.413  0.0565  0.4421  2.1670
12138SOL     OW38951   1.420   6.692   6.804 -0.5546  0.1450 -0.3532
12138SOL    HW138952   1.456   6.686   6.715 -0.7210  2.1990 -0.5892
12138SOL    HW238953   1.483   6.644   6.858  1.4595  1.8652 -1.0822
12139SOL     OW38954   7.637   4.630   0.074 -0.3186 -0.0936 -0.0268
12139SOL    HW138955   7.596   4.648   0.159 -1.3811 -0.8127 -0.3688
12139SOL    HW238956   7.614   4.705   0.020  1.4571  0.9960  0.6819
12140SOL     OW38957   0.817   3.672   2.623  0.4133 -0.1681  0.1686
12140SOL    HW138958   0.819   3.761   2.588  0.1194 -0.6404 -1.0797
12140SOL    HW238959   0.814   3.616   2.546 -1.1384 -1.2165  0.9542
12141SOL     OW38960   6.557   9.857   4.960  0.2200  0.2118  0.4085
12141SOL    HW138961   6.517   9.802   4.893 -0.2996  1.1237 -0.0298
12141SOL    HW238962   6.638   9.810   4.984  0.1460 -0.3801 -0.4666
12142SOL     OW38963   6.185   9.079   8.318 -0.4699 -0.6254  0.7265
12142SOL    HW138964   6.207   9.140   8.389 -0.8460 -0.9946  1.1703
12142SOL    HW238965   6.236   9.000   8.338  0.4004 -0.2887 -0.1235
12143SOL     OW38966   5.315   8.406   9.961  0.1928 -0.0620  0.2503
12143SOL    HW138967   5.235   8.442   9.999 -2.0981 -2.8238 -1.7672
12143SOL    HW238968   5.317   8.442   9.872  0.1909 -1.4451 -0.3202
12144SOL     OW38969   6.956   5.695   0.279 -0.4025  0.0421 -0.3508
12144SOL    HW138970   6.893   5.715   0.349  0.5356  2.7990 -0.2499
12144SOL    HW238971   6.986   5.606   0.299 -1.2243  0.2386  1.9213
12145SOL     OW38972   7.660   9.197   0.242 -0.3149 -0.0870 -0.2297
12145SOL    HW138973   7.607   9.119   0.258 -0.1460 -0.1878 -0.1565
12145SOL    HW238974   7.705   9.214   0.325 -0.4698  0.1781 -0.1994
12146SOL     OW38975   3.521   5.330   6.160  0.4897  0.1531  0.0431
12146SOL    HW138976   3.596   5.377   6.124  1.7370 -1.2182  0.8160
12146SOL    HW238977   3.543   5.317   6.253 -0.9901  0.3052  0.4322
12147SOL     OW38978   7.217   7.996   4.586 -0.0265  0.9088  0.0251
12147SOL    HW138979   7.215   7.936   4.511  0.9218 -1.1216  1.5470
12147SOL    HW238980   7.285   8.059   4.564 -0.3270  0.8263 -1.1860
12148SOL     OW38981   0.050   5.522   5.612 -0.3986  0.1083  0.6776
12148SOL    HW138982   0.144   5.522   5.597 -0.2710  1.4911  1.4553
12148SOL    HW238983   0.040   5.505   5.706 -0.9913 -1.9215  0.2688
12149SOL     OW38984   0.423   2.688   2.093 -0.2070 -0.5942 -0.5594
12149SOL    HW138985   0.390   2.684   2.182  1.1653 -2.0146 -0.0835
12149SOL    HW238986   0.349   2.719   2.041 -1.3931 -0.9380  0.8875
12150SOL     OW38987   2.774   4.474   1.453 -0.0783 -0.5236 -0.2220
12150SOL    HW138988   2.856   4.452   1.409  0.1235 -0.3651  0.0708
12150SOL    HW238989   2.801   4.521   1.532 -0.4958  0.6908 -0.7872
12151SOL     OW38990   8.088   7.816   1.806 -0.0013 -0.1795 -0.3263
12151SOL    HW138991   8.086   7.817   1.902 -0.1006  1.8065 -0.3151
12151SOL    HW238992   8.169   7.769   1.784  1.4558  1.6686  0.8110
12152SOL     OW38993   1.239   2.400   4.423 -0.3042 -0.5299 -0.0876
12152SOL    HW138994   1.253   2.309   4.448  1.3214 -1.0240 -2.5611
12152SOL    HW238995   1.145   2.414   4.433 -0.1970 -1.6417  2.9044
12153SOL     OW38996   7.229   8.023   9.371 -0.5191  0.4624 -0.5688
12153SOL    HW138997   7.192   7.992   9.454 -1.1757  0.2100 -0.9504
12153SOL    HW238998   7.324   8.009   9.381 -0.6947 -0.5784 -0.2806
12154SOL     OW38999   3.387   3.188   1.733  0.1680 -1.1364  0.2306
12154SOL    HW139000   3.437   3.133   1.672  2.4829  1.6665 -0.5093
12154SOL    HW239001   3.453   3.229   1.789 -1.3340  1.7588  0.0078
12155SOL     OW39002   2.604   5.361   6.068 -0.5594  0.0330  0.3486
12155SOL    HW139003   2.645   5.282   6.103  1.6930  0.9581 -0.0615
12155SOL    HW239004   2.605   5.424   6.140 -1.8566 -0.1440  0.5209
12156SOL     OW39005   0.101   2.111   1.237 -0.0119 -0.4646 -0.6559
12156SOL    HW139006   0.184   2.149   1.264 -0.6215  0.0046  0.5862
12156SOL    HW239007   0.124   2.053   1.165  1.2087  0.6679 -1.2057
12157SOL     OW39008   3.438   6.929   3.314  0.2757  0.5805  0.4690
12157SOL    HW139009   3.346   6.958   3.316 -0.3406 -1.1962 -0.4856
12157SOL    HW239010   3.488   7.009   3.298 -1.1225  1.5596  0.8839
12158SOL     OW39011   8.549   8.459   4.571  0.3923 -0.0323 -0.1144
12158SOL    HW139012   8.469   8.493   4.611  0.0738 -1.2708  0.3131
12158SOL    HW239013   8.530   8.458   4.477  0.6352  1.5509 -0.1988
12159SOL     OW39014   8.281   0.958   3.798 -0.4872 -0.5250  0.1707
12159SOL    HW139015   8.257   1.010   3.721 -0.1802 -1.6433 -0.7031
12159SOL    HW239016   8.275   1.019   3.871 -0.0497  0.7490 -0.8369
12160SOL     OW39017   5.008   7.844   0.686 -0.5034 -0.1774 -0.2448
12160SOL    HW139018   4.946   7.915   0.703 -0.3186 -0.5064  1.8983
12160SOL    HW239019   5.058   7.836   0.767  0.6677 -1.5737 -1.0957
12161SOL     OW39020   8.527   4.306   7.629  0.4807 -0.3140 -0.1236
12161SOL    HW139021   8.442   4.306   7.586  0.2744 -1.2720  0.2587
12161SOL    HW239022   8.573   4.232   7.589  1.4180  0.6561 -0.8643
12162SOL     OW39023   9.422   3.764   6.873 -0.2462 -0.3725 -0.9880
12162SOL    HW139024   9.454   3.852   6.854  0.4826 -0.9817 -2.6407
12162SOL    HW239025   9.495   3.706   6.853 -0.4441 -1.3009  0.8910
12163SOL     OW39026   7.094   4.360   0.984  0.5370  0.4475  0.6662
12163SOL    HW139027   7.071   4.452   0.998  1.9344  0.8391  0.4514
12163SOL    HW239028   7.019   4.323   0.938  0.6600  1.8984 -0.7464
12164SOL     OW39029   0.061   2.675   2.165 -0.5398 -0.3328  0.1772
12164SOL    HW139030   0.083   2.764   2.140  0.8311 -0.6115  0.3566
12164SOL    HW239031  -0.003   2.685   2.235 -0.5920  0.5050  0.0096
12165SOL     OW39032   9.674   2.032   4.144 -0.4856 -0.2728  0.0263
12165SOL    HW139033   9.709   1.943   4.148 -1.4073 -0.6898 -0.9274
12165SOL    HW239034   9.735   2.080   4.089 -0.5752 -0.5880 -0.3430
12166SOL     OW39035   2.215   3.224   1.234  0.5493 -0.3264 -0.0003
12166SOL    HW139036   2.240   3.249   1.323  0.1080  0.9986 -0.2456
12166SOL    HW239037   2.290   3.175   1.201  1.9013  1.6482  0.0832
12167SOL     OW39038   4.750   2.644   6.528  0.2565  0.2904 -0.5749
12167SOL    HW139039   4.820   2.604   6.579 -0.1426  0.5832  0.2105
12167SOL    HW239040   4.686   2.574   6.515 -0.5764  0.7116  1.0429
12168SOL     OW39041   4.840   7.656   7.599  0.2111  0.2093 -0.4382
12168SOL    HW139042   4.798   7.612   7.526  2.7999 -2.2848 -0.5097
12168SOL    HW239043   4.892   7.588   7.643  2.1694  2.5629  1.1044
12169SOL     OW39044   9.477   3.370   6.557  0.2309 -0.1311  0.3746
12169SOL    HW139045   9.468   3.377   6.652  0.7513  0.1382  0.4092
12169SOL    HW239046   9.388   3.356   6.525 -0.1314  1.1245  0.7891
12170SOL     OW39047   7.483   4.442   8.333  0.3929 -0.0227  0.7151
12170SOL    HW139048   7.520   4.499   8.400 -1.2864 -0.5665  2.1293
12170SOL    HW239049   7.406   4.490   8.301 -0.3742 -0.9799  1.1103
12171SOL     OW39050   2.520   2.899   2.935  0.0852 -0.5976  0.3385
12171SOL    HW139051   2.594   2.953   2.906  0.4770 -0.7502  1.0483
12171SOL    HW239052   2.528   2.896   3.030 -0.8319 -0.6230  0.4205
12172SOL     OW39053   3.481   3.903   2.241 -0.3809 -0.5779  0.1427
12172SOL    HW139054   3.405   3.878   2.292  1.4842 -1.5321  2.5439
12172SOL    HW239055   3.555   3.860   2.284  1.3820 -0.6960 -2.8515
12173SOL     OW39056   6.479   1.670  10.115  0.1415 -0.1067 -0.4926
12173SOL    HW139057   6.445   1.699  10.200 -1.0612 -1.3376 -0.5465
12173SOL    HW239058   6.545   1.736  10.092 -0.6280  1.0877  0.6650
12174SOL     OW39059   3.333   2.527   2.436  0.4564  0.4077  0.1904
12174SOL    HW139060   3.422   2.539   2.404 -0.3140  1.6184 -1.6430
12174SOL    HW239061   3.330   2.575   2.518  1.3821  0.7269  0.0446
12175SOL     OW39062   7.589   7.745   0.464 -0.0682  0.0672 -0.2674
12175SOL    HW139063   7.669   7.713   0.422 -0.4179 -0.8906 -0.2167
12175SOL    HW239064   7.611   7.750   0.557 -0.5303 -1.7160 -0.0331
12176SOL     OW39065   0.578   6.373   8.774  0.5749 -0.2850  0.3831
12176SOL    HW139066   0.584   6.305   8.707  0.9895  0.9443 -0.8559
12176SOL    HW239067   0.591   6.327   8.857 -0.9869 -1.9929 -0.2895
12177SOL     OW39068   6.545   5.091   0.135 -0.3239  0.0205 -0.2699
12177SOL    HW139069   6.602   5.102   0.211 -0.2251 -1.4392 -0.1124
12177SOL    HW239070   6.460   5.126   0.164 -0.0370  0.3471  0.1788
12178SOL     OW39071   7.181   6.352   2.762  0.6427 -0.1411  0.1269
12178SOL    HW139072   7.129   6.431   2.776  1.6804  0.2323  2.0570
12178SOL    HW239073   7.265   6.384   2.729  0.4414 -0.5868 -0.8410
12179SOL     OW39074   0.795   7.239   2.183  0.3925 -0.7433 -0.5798
12179SOL    HW139075   0.823   7.160   2.137  0.4178 -0.1606 -1.5821
12179SOL    HW239076   0.719   7.212   2.233  1.3594 -1.7882  0.3566
12180SOL     OW39077   2.685   6.254   8.952 -0.4415  0.3609 -0.0968
12180SOL    HW139078   2.669   6.160   8.945  0.6973  0.2687 -1.5680
12180SOL    HW239079   2.601   6.290   8.982 -1.2658 -0.9678 -0.7543
12181SOL     OW39080   5.470   0.179   8.473 -0.3191 -0.1498  0.3745
12181SOL    HW139081   5.407   0.246   8.449 -0.8547 -0.9277 -0.4479
12181SOL    HW239082   5.554   0.212   8.440 -0.7452 -0.3472 -0.9738
12182SOL     OW39083   5.735   0.832   9.342 -0.1411 -0.1701 -0.5433
12182SOL    HW139084   5.659   0.846   9.398 -0.6581 -1.0253 -1.0261
12182SOL    HW239085   5.706   0.857   9.254  0.3291  0.1050 -0.6252
12183SOL     OW39086   1.823   2.460   8.074 -0.5822  0.1876  0.3579
12183SOL    HW139087   1.805   2.532   8.014 -0.7511  0.5747  0.8606
12183SOL    HW239088   1.918   2.456   8.079 -0.5235 -1.3803 -1.7407
12184SOL     OW39089   9.143   9.934   7.750 -0.0157  0.5867  0.5427
12184SOL    HW139090   9.170   9.879   7.677  0.7400  1.3318  0.2521
12184SOL    HW239091   9.099   9.874   7.810 -1.3388  0.0993 -0.8721
12185SOL     OW39092   8.291   7.902   1.588 -0.0744 -0.0965 -0.5465
12185SOL    HW139093   8.357   7.955   1.543  0.9280 -2.0529 -1.4415
12185SOL    HW239094   8.339   7.826   1.621 -1.5519 -0.6589  0.3861
12186SOL     OW39095   7.415   9.315   1.205 -0.0653 -0.1268  0.3352
12186SOL    HW139096   7.486   9.330   1.267  0.7062 -0.6504 -0.4031
12186SOL    HW239097   7.412   9.219   1.195  0.3679 -0.0060 -1.0495
12187SOL     OW39098   5.543   2.428   4.062  0.1608  0.4319 -0.3551
12187SOL    HW139099   5.502   2.514   4.056 -0.3856  0.0939 -1.6629
12187SOL    HW239100   5.490   2.381   4.127 -0.0327  0.8035 -0.2405
12188SOL     OW39101   0.888   5.314   2.660 -0.2120 -1.2807 -0.6081
12188SOL    HW139102   0.948   5.298   2.733 -0.8910 -0.7003  0.0827
12188SOL    HW239103   0.849   5.228   2.641 -0.7931 -1.2406  0.3831
12189SOL     OW39104   9.348   5.580   7.622  0.4751 -0.3171 -0.1549
12189SOL    HW139105   9.287   5.553   7.690 -0.1110 -0.3080 -0.6739
12189SOL    HW239106   9.415   5.512   7.621  0.0687 -0.7183 -0.1063
12190SOL     OW39107   9.401   6.337   0.458  0.3236 -0.0732 -0.3432
12190SOL    HW139108   9.367   6.349   0.369  0.8260 -0.5265 -0.6007
12190SOL    HW239109   9.496   6.346   0.449  0.2895  1.0646  0.3493
12191SOL     OW39110   7.719   2.646   1.096 -0.0915 -0.3933 -0.2013
12191SOL    HW139111   7.814   2.647   1.093 -0.0541  1.5793  1.0652
12191SOL    HW239112   7.692   2.670   1.007  0.5970  0.0377 -0.2952
12192SOL     OW39113   8.754   8.799   5.285  0.1164  0.0209  0.1913
12192SOL    HW139114   8.777   8.707   5.272 -2.2359 -0.5108 -0.3935
12192SOL    HW239115   8.817   8.848   5.232  0.8830 -1.2924 -0.1193
12193SOL     OW39116   4.766   6.931   0.466 -0.1210  0.2902  0.8468
12193SOL    HW139117   4.753   6.907   0.558 -0.7678  1.0586  0.9531
12193SOL    HW239118   4.783   7.025   0.468  1.5919  0.0046  0.3406
12194SOL     OW39119   7.941   4.445   1.161  0.3559 -0.1799 -0.2804
12194SOL    HW139120   7.992   4.526   1.149 -0.2304  0.5219  1.6715
12194SOL    HW239121   7.983   4.402   1.235 -1.3497 -0.0069  0.8092
12195SOL     OW39122   6.487   0.995   2.266 -0.5341 -0.5477 -1.0009
12195SOL    HW139123   6.439   1.077   2.283 -0.0803 -0.1435 -1.6538
12195SOL    HW239124   6.468   0.941   2.342  2.1147  1.5517  1.2527
12196SOL     OW39125   9.875   1.352   6.298  0.4867 -0.1997  0.1360
12196SOL    HW139126   9.913   1.290   6.236 -1.1946  1.1151 -2.2430
12196SOL    HW239127   9.945   1.367   6.362  2.2528 -1.5585 -1.4262
12197SOL     OW39128   8.119   0.978   0.408  0.8354 -0.6085 -0.0811
12197SOL    HW139129   8.059   0.904   0.415  0.5253 -0.4558 -1.1255
12197SOL    HW239130   8.158   0.985   0.496 -3.5156  1.7310  1.7912
12198SOL     OW39131   6.784   5.631   4.309  0.7046  0.3853 -0.4230
12198SOL    HW139132   6.698   5.673   4.305  2.2023  3.9934  2.4183
12198SOL    HW239133   6.767   5.539   4.288 -3.5315  1.3593 -1.6798
12199SOL     OW39134   5.439   8.101   3.853 -0.6967  0.3185 -0.2771
12199SOL    HW139135   5.500   8.047   3.803  1.3234  2.1326  0.1230
12199SOL    HW239136   5.393   8.153   3.786  0.3600  1.0861 -0.4276
12200SOL     OW39137   5.399   5.951   5.791  0.1557 -0.0167 -0.9163
12200SOL    HW139138   5.316   5.908   5.811  0.0872  0.0405 -1.0767
12200SOL    HW239139   5.383   5.995   5.707  0.4194 -0.2108 -1.0719
12201SOL     OW39140   1.825   5.630   9.186  0.4309 -0.0657 -0.5551
12201SOL    HW139141   1.775   5.707   9.212 -0.3421 -0.5729 -0.5177
12201SOL    HW239142   1.761   5.574   9.141  0.5470 -1.4689  0.9754
12202SOL     OW39143   7.090   2.762   6.878 -0.2669 -0.1434 -0.4931
12202SOL    HW139144   7.087   2.747   6.783  0.5535 -0.3960 -0.4839
12202SOL    HW239145   7.127   2.681   6.913 -2.8045 -1.0088  0.2840
12203SOL     OW39146   1.727   3.889   3.687 -0.6354  0.0784  0.0664
12203SOL    HW139147   1.710   3.969   3.737 -1.6882 -0.5930  0.8043
12203SOL    HW239148   1.807   3.853   3.727 -1.3396 -0.3314  1.1591
12204SOL     OW39149   9.263   0.700   6.144  0.0020 -0.4625  0.0345
12204SOL    HW139150   9.350   0.736   6.127 -0.1473 -0.1723 -0.1192
12204SOL    HW239151   9.262   0.615   6.099 -0.3744  0.2723 -1.3990
12205SOL     OW39152   6.216   8.449   2.342  0.3700  0.1568  0.5713
12205SOL    HW139153   6.246   8.426   2.254  1.6161  1.2898  0.6762
12205SOL    HW239154   6.204   8.365   2.386  2.7259 -0.3742  0.2841
12206SOL     OW39155   6.980   2.645   1.621 -0.7001  0.2745 -0.3462
12206SOL    HW139156   6.982   2.553   1.647 -0.6810 -0.2431 -2.0608
12206SOL    HW239157   6.965   2.642   1.526 -1.2207  2.0556 -0.3331
12207SOL     OW39158   7.684   3.569   2.796 -0.3157 -0.3129 -0.0779
12207SOL    HW139159   7.625   3.538   2.727 -0.1756 -2.2084  0.6061
12207SOL    HW239160   7.655   3.522   2.875  0.9176  0.1505  0.6639
12208SOL     OW39161   7.564   6.305   1.771  0.3583  0.2307 -0.4544
12208SOL    HW139162   7.649   6.324   1.730  1.5140 -0.2958  1.5760
12208SOL    HW239163   7.517   6.388   1.768  1.2920  0.7566 -0.8595
12209SOL     OW39164  10.081   7.559   6.490 -0.1457 -0.0259 -0.2973
12209SOL    HW139165  10.012   7.576   6.426  1.6579 -0.4081 -2.3888
12209SOL    HW239166  10.160   7.597   6.452  1.2250 -1.3556  1.1100
12210SOL     OW39167   5.451   8.556   9.112  0.1428 -0.0735  0.5717
12210SOL    HW139168   5.446   8.475   9.164  0.7134 -0.0876  0.6131
12210SOL    HW239169   5.540   8.588   9.128  0.0216  0.3936  0.3021
12211SOL     OW39170   0.826   9.530   2.669 -0.8363  0.4809  0.6107
12211SOL    HW139171   0.878   9.605   2.640  1.6030 -1.3389  0.1137
12211SOL    HW239172   0.755   9.524   2.606  0.1492  1.1535 -0.5866
12212SOL     OW39173   6.969   6.530   2.678  0.3574 -0.0527 -0.2017
12212SOL    HW139174   7.007   6.596   2.736 -1.2061  1.1265 -0.4894
12212SOL    HW239175   6.875   6.538   2.692 -0.0547  0.2731 -2.9018
12213SOL     OW39176   5.910   1.827   5.390 -0.1824 -0.1628  0.0715
12213SOL    HW139177   5.994   1.853   5.353 -0.2918 -2.1708 -1.6593
12213SOL    HW239178   5.932   1.792   5.476  0.2327  3.2253  1.4374
12214SOL     OW39179  10.044   3.682   5.169 -0.0967  0.0094  0.3405
12214SOL    HW139180   9.996   3.754   5.210  0.9231  0.6665  0.4043
12214SOL    HW239181   9.982   3.642   5.108 -0.5024  1.2726 -0.0776
12215SOL     OW39182   7.680   3.478   1.362 -0.1525 -0.2030 -0.1911
12215SOL    HW139183   7.676   3.384   1.342 -0.3694 -0.1297 -0.4960
12215SOL    HW239184   7.749   3.486   1.427  0.0350 -0.5450 -0.3503
12216SOL     OW39185   2.352   8.039   2.547  0.0063 -0.3303  0.3945
12216SOL    HW139186   2.426   7.998   2.501 -0.7495 -0.5148 -0.6838
12216SOL    HW239187   2.277   7.985   2.523 -0.9150  1.3827 -0.6159
12217SOL     OW39188   6.780   1.922   7.973  0.3630 -0.0563 -0.0545
12217SOL    HW139189   6.755   2.002   7.927 -0.3060 -0.5088 -0.4892
12217SOL    HW239190   6.783   1.855   7.904  0.1832 -0.5648  0.4294
12218SOL     OW39191   2.184   3.152   3.054  0.0111  0.2512  0.5032
12218SOL    HW139192   2.163   3.100   2.976  0.9375 -0.4808  0.7195
12218SOL    HW239193   2.218   3.087   3.116  0.1485  0.9698  1.1783
12219SOL     OW39194   8.122   2.279   2.463 -0.1446  0.2599  0.1313
12219SOL    HW139195   8.096   2.209   2.403  1.1295 -0.5926  0.5632
12219SOL    HW239196   8.109   2.360   2.413  3.0936 -0.5473 -2.1027
12220SOL     OW39197   3.748   2.590   5.036  0.3814 -0.0364 -0.3858
12220SOL    HW139198   3.772   2.554   4.951  1.7190  0.3402 -0.1689
12220SOL    HW239199   3.656   2.615   5.026  0.6491  0.3933 -1.8534
12221SOL     OW39200   5.633   8.975   8.141 -0.2910  0.2555  0.3362
12221SOL    HW139201   5.583   9.056   8.129 -0.7459  0.0092  0.5788
12221SOL    HW239202   5.632   8.960   8.235  0.6560  0.5073  0.3962
12222SOL     OW39203   6.592   5.229   1.079 -0.4598 -0.2440 -0.2134
12222SOL    HW139204   6.663   5.276   1.035  0.5383 -0.9875  0.5484
12222SOL    HW239205   6.588   5.268   1.167  1.2533 -2.3630  0.8768
12223SOL     OW39206   7.473   1.068   9.977  0.6756 -0.2088  0.1947
12223SOL    HW139207   7.508   0.998  10.033  2.1555 -0.3254 -0.8509
12223SOL    HW239208   7.519   1.057   9.894 -1.1082  0.3067 -0.8731
12224SOL     OW39209   9.140   6.563   0.577  0.3892  0.3877 -0.3510
12224SOL    HW139210   9.117   6.604   0.661  0.4045  0.9557 -0.6198
12224SOL    HW239211   9.079   6.602   0.514 -1.4216 -2.0081 -0.1557
12225SOL     OW39212   0.984   1.314   8.151  0.0390  0.5490 -0.0615
12225SOL    HW139213   0.889   1.314   8.166 -0.2118  1.1751 -1.5043
12225SOL    HW239214   1.007   1.222   8.140  0.0924  0.1512  3.1040
12226SOL     OW39215   0.983   2.740   7.905  0.1637 -0.0388 -0.0536
12226SOL    HW139216   1.016   2.684   7.975  0.8753 -0.9776 -1.1048
12226SOL    HW239217   0.888   2.737   7.914  0.2828  1.5467  2.1429
12227SOL     OW39218   1.893   5.003   7.884  0.1245 -0.4608  0.3529
12227SOL    HW139219   1.871   4.910   7.889 -1.8713 -0.0373  0.0662
12227SOL    HW239220   1.988   5.005   7.887  0.3327 -2.6986 -2.1991
12228SOL     OW39221   6.524   3.298   6.964  0.3895 -0.3088  0.3608
12228SOL    HW139222   6.576   3.307   7.044  0.4440  2.2937  0.0621
12228SOL    HW239223   6.560   3.363   6.904 -0.7763 -1.0532 -1.1729
12229SOL     OW39224   0.239   5.201   4.693 -0.1419 -0.3139 -0.1496
12229SOL    HW139225   0.241   5.120   4.743 -1.0689 -1.2334 -1.5499
12229SOL    HW239226   0.315   5.196   4.636  0.0086 -0.0249  0.0262
12230SOL     OW39227   3.359   6.212   6.148 -0.0890  0.1514 -0.4781
12230SOL    HW139228   3.382   6.302   6.174 -0.2576 -0.1601  0.8027
12230SOL    HW239229   3.278   6.194   6.197 -0.8794 -0.1701 -1.8897
12231SOL     OW39230   0.122   4.232   0.581  0.2872 -0.5245 -0.1973
12231SOL    HW139231   0.119   4.328   0.587  0.9353 -0.4681 -0.6626
12231SOL    HW239232   0.180   4.205   0.652  0.7567 -0.5056 -0.5664
12232SOL     OW39233   8.712   1.355   1.285  0.0439 -0.3421  0.2546
12232SOL    HW139234   8.725   1.423   1.351  1.4786  0.4939 -0.8718
12232SOL    HW239235   8.666   1.400   1.213 -0.4606 -0.9624  0.1809
12233SOL     OW39236   0.719   5.753   4.629 -0.5463 -0.0094  0.0227
12233SOL    HW139237   0.786   5.697   4.669 -0.1001  0.0170 -0.6722
12233SOL    HW239238   0.731   5.740   4.535 -1.2114  0.3629 -0.1119
12234SOL     OW39239   3.260   6.200   4.525 -0.2240 -0.2950  0.4049
12234SOL    HW139240   3.320   6.131   4.498 -0.7305 -0.6810  0.2659
12234SOL    HW239241   3.178   6.155   4.544 -0.7308  0.3288 -0.2483
12235SOL     OW39242   8.168   5.623   1.417 -0.8525 -0.2670 -0.2725
12235SOL    HW139243   8.217   5.584   1.490 -0.3918 -1.0421 -0.9865
12235SOL    HW239244   8.182   5.717   1.427  1.6707 -0.5190 -1.0555
12236SOL     OW39245   0.683   9.042   2.790  0.2332 -0.0388  0.3271
12236SOL    HW139246   0.669   8.970   2.850 -1.1749 -0.7140 -0.7723
12236SOL    HW239247   0.596   9.062   2.755  1.2031 -0.6568 -2.5943
12237SOL     OW39248   2.614   6.076   1.870  0.3057 -0.3875  0.0746
12237SOL    HW139249   2.666   6.103   1.795 -1.5576  1.7128 -0.5169
12237SOL    HW239250   2.527   6.112   1.853 -0.8138 -2.0771  2.0036
12238SOL     OW39251   6.722   1.257   1.930  0.5895 -0.4101  0.3178
12238SOL    HW139252   6.706   1.275   2.022 -1.6732  1.1493 -0.3443
12238SOL    HW239253   6.666   1.182   1.910  1.1004 -0.7664  0.2170
12239SOL     OW39254   4.484   5.825   2.689  0.1357  0.2816  0.0895
12239SOL    HW139255   4.435   5.821   2.771  0.8482  1.1050  0.5744
12239SOL    HW239256   4.427   5.784   2.624 -0.6492  0.0805  0.8971
12240SOL     OW39257   2.825   5.532   8.688  0.1520  0.6666  0.1663
12240SOL    HW139258   2.894   5.500   8.747  1.0089  1.0354 -0.6191
12240SOL    HW239259   2.796   5.455   8.640 -0.2594  0.4412  0.7661
12241SOL     OW39260   9.094   4.134   0.158  0.1602 -0.1856 -0.1260
12241SOL    HW139261   9.037   4.205   0.187 -1.2360 -0.5397 -1.9466
12241SOL    HW239262   9.170   4.178   0.121 -0.8829  0.3869 -1.6291
12242SOL     OW39263   5.432   0.209   2.072  0.4355 -0.4073 -0.3449
12242SOL    HW139264   5.524   0.184   2.063  0.3754 -0.4863 -0.7850
12242SOL    HW239265   5.398   0.205   1.982 -0.5839 -2.5977  0.1038
12243SOL     OW39266   9.864   3.686   4.445 -0.0010  0.0650 -0.3980
12243SOL    HW139267   9.830   3.775   4.444 -1.0973 -0.2301  2.9237
12243SOL    HW239268   9.915   3.682   4.526  1.9387 -1.6663 -1.6675
12244SOL     OW39269   2.769   7.577   3.427  0.3188 -0.0546 -0.1442
12244SOL    HW139270   2.805   7.549   3.511 -3.9349 -2.3402  1.0481
12244SOL    HW239271   2.713   7.651   3.448  0.1198  0.0818 -1.1337
12245SOL     OW39272   1.001   8.095   1.602  0.5874 -0.9027 -0.2345
12245SOL    HW139273   0.979   8.189   1.608 -0.4582 -1.2569  2.5030
12245SOL    HW239274   0.917   8.051   1.614  1.4749 -2.2070  1.3832
12246SOL     OW39275   2.828   9.894   5.377 -0.2174  0.5740  0.0259
12246SOL    HW139276   2.739   9.919   5.402 -0.1986 -0.9382  1.7346
12246SOL    HW239277   2.815   9.823   5.313 -0.2712 -0.7511  1.4702
12247SOL     OW39278   2.921   4.065   7.863  0.1968 -0.0660  0.1962
12247SOL    HW139279   2.999   4.053   7.918  0.4042  1.4629  0.2801
12247SOL    HW239280   2.865   3.991   7.883  0.4621  0.2431  2.1629
12248SOL     OW39281   5.495   6.943   2.710  0.4327 -0.6336 -0.7403
12248SOL    HW139282   5.526   6.881   2.777 -1.2696 -1.3733 -0.6011
12248SOL    HW239283   5.421   6.987   2.751 -0.6492 -1.1184 -2.1264
12249SOL     OW39284   3.391   5.082   4.081 -0.3313 -0.1960  0.5057
12249SOL    HW139285   3.321   5.119   4.028  1.3074  2.2651 -0.0450
12249SOL    HW239286   3.386   5.130   4.164 -0.4818 -1.3242  1.1491
12250SOL     OW39287   6.200   1.610   1.869  0.2294 -0.2722  0.1480
12250SOL    HW139288   6.235   1.687   1.825 -1.3321 -1.0045 -2.5651
12250SOL    HW239289   6.268   1.583   1.930  2.5063  0.8597 -1.8125
12251SOL     OW39290   5.265   8.689   9.307 -0.1242 -0.7369 -0.0857
12251SOL    HW139291   5.305   8.773   9.283  0.3998 -1.1472 -0.6409
12251SOL    HW239292   5.336   8.640   9.348 -0.6260 -0.6225  0.9486
12252SOL     OW39293   4.463   6.695   1.973 -0.4997 -0.7763  0.0452
12252SOL    HW139294   4.433   6.645   1.898 -1.1944 -0.9648  0.4368
12252SOL    HW239295   4.474   6.784   1.940 -0.5601 -0.9096 -0.3353
12253SOL     OW39296   7.249  10.027   6.419  0.3623  0.5076 -0.2729
12253SOL    HW139297   7.262   9.956   6.483  0.5250  0.1990 -0.6456
12253SOL    HW239298   7.156  10.047   6.425 -0.0169 -0.8664 -1.3310
12254SOL     OW39299   7.449   4.622   4.706  0.9558 -0.2319 -0.7318
12254SOL    HW139300   7.525   4.646   4.653 -0.3258 -2.5359 -3.7635
12254SOL    HW239301   7.380   4.682   4.677  0.9778  0.3457  0.3798
12255SOL     OW39302   9.927   7.729   3.221 -0.4351  0.1123  0.1329
12255SOL    HW139303   9.840   7.728   3.182 -0.4201  1.2821  0.0577
12255SOL    HW239304   9.987   7.720   3.147 -0.4970 -1.5233  0.2587
12256SOL     OW39305   7.163   4.428   8.546 -0.4110 -0.4696  0.4386
12256SOL    HW139306   7.081   4.446   8.591 -1.2490  0.1871 -1.3365
12256SOL    HW239307   7.209   4.512   8.545  0.2257 -0.7952  1.2668
12257SOL     OW39308   6.859   3.042   0.541  0.1024  0.4771  0.0352
12257SOL    HW139309   6.921   2.985   0.496 -2.4883 -1.9565 -0.5881
12257SOL    HW239310   6.841   3.113   0.478  1.3285  0.5712 -0.2212
12258SOL     OW39311   0.203   9.037   2.584  0.4927 -0.4824  0.1090
12258SOL    HW139312   0.130   8.979   2.563 -0.1610  0.3257  0.1092
12258SOL    HW239313   0.231   9.072   2.499  0.9566 -0.8800  0.0974
12259SOL     OW39314   9.580   4.902   9.337  0.2043 -0.2138 -0.2639
12259SOL    HW139315   9.577   4.966   9.408 -0.4242  1.9286 -2.1411
12259SOL    HW239316   9.635   4.831   9.369  0.2409  0.8985  2.1831
12260SOL     OW39317   4.567   2.557   2.066  0.6421 -0.4935  0.0249
12260SOL    HW139318   4.592   2.622   2.132  1.3213 -1.5362  0.7997
12260SOL    HW239319   4.506   2.604   2.009  1.1537  0.8380  0.5527
12261SOL     OW39320   5.864   0.521   1.076  0.0240 -0.6029 -0.1406
12261SOL    HW139321   5.910   0.469   1.009  1.0621 -0.3577  0.3717
12261SOL    HW239322   5.868   0.610   1.042  1.8750 -0.2462  0.9466
12262SOL     OW39323   8.663   9.001   6.079 -0.0170  0.0499 -0.2804
12262SOL    HW139324   8.668   8.956   6.163 -1.3307 -1.4877 -0.9900
12262SOL    HW239325   8.719   8.949   6.021 -0.8861 -0.2180 -0.8962
12263SOL     OW39326   4.433   7.540   6.222  0.2268  0.1628  0.3673
12263SOL    HW139327   4.440   7.635   6.220  1.0371  0.1635  1.9499
12263SOL    HW239328   4.361   7.523   6.283 -0.6912 -0.2228 -0.8148
12264SOL     OW39329   8.237   8.885   7.745  0.0783  0.4451  0.3877
12264SOL    HW139330   8.289   8.933   7.680 -1.5759 -1.1371 -2.2184
12264SOL    HW239331   8.284   8.803   7.757  0.2679  0.6493  1.0084
12265SOL     OW39332   1.278   1.293   1.577 -0.2127 -0.1149 -0.4800
12265SOL    HW139333   1.201   1.340   1.606 -0.7234 -2.5783  2.4684
12265SOL    HW239334   1.352   1.338   1.618 -0.2314  0.9406 -1.5682
12266SOL     OW39335   6.456   5.989   6.489  0.1269 -0.3798 -0.0927
12266SOL    HW139336   6.365   5.958   6.483  1.0594 -2.7208 -2.8776
12266SOL    HW239337   6.447   6.082   6.510 -2.8485 -1.0441  2.1169
12267SOL     OW39338   6.426   3.214   8.292  0.5949  0.2027  0.3037
12267SOL    HW139339   6.361   3.261   8.241  0.1726 -0.5112  0.1933
12267SOL    HW239340   6.479   3.283   8.332 -0.6294  0.7914  0.9224
12268SOL     OW39341   3.942   4.234   6.629  0.0603  0.0450  0.2275
12268SOL    HW139342   3.932   4.232   6.534 -0.5532 -1.0895  0.3071
12268SOL    HW239343   4.022   4.183   6.646 -0.0071 -0.0233  0.3421
12269SOL     OW39344   8.131   2.354   7.673  0.1263  0.3416  0.1746
12269SOL    HW139345   8.185   2.386   7.746  2.0643 -0.8009 -0.7026
12269SOL    HW239346   8.084   2.432   7.642  0.0847  1.0540  1.9416
12270SOL     OW39347   0.430   1.980   7.635 -0.2609 -0.6754  0.2602
12270SOL    HW139348   0.501   2.035   7.603 -1.9419  1.4035 -0.0155
12270SOL    HW239349   0.469   1.929   7.706  1.6608 -0.1145 -0.3638
12271SOL     OW39350   2.869   2.188   2.539 -0.5184 -0.2103 -0.0207
12271SOL    HW139351   2.842   2.274   2.509  1.4583  0.5698  0.3651
12271SOL    HW239352   2.793   2.132   2.524 -1.3252  1.2796 -1.5987
12272SOL     OW39353   3.050   9.293   2.849 -0.1544 -0.1755  0.2253
12272SOL    HW139354   3.129   9.244   2.871 -0.4072 -0.3153  0.8302
12272SOL    HW239355   2.993   9.230   2.805  0.4551  0.1686 -1.1063
12273SOL     OW39356   3.892   9.638   1.067 -0.2952  0.1853 -0.8505
12273SOL    HW139357   3.884   9.662   0.975 -0.7008 -0.2721 -0.9373
12273SOL    HW239358   3.918   9.719   1.111 -0.3449  0.4611 -1.3331
12274SOL     OW39359   3.871   2.143   7.189  0.4326 -0.1387  0.4358
12274SOL    HW139360   3.945   2.088   7.162 -0.3480 -0.3117 -1.4573
12274SOL    HW239361   3.881   2.223   7.138 -1.7171 -0.9282 -1.2864
12275SOL     OW39362   0.417   0.294   8.575  0.4221  0.3919 -0.2462
12275SOL    HW139363   0.462   0.351   8.638  0.5993 -0.7939  0.7394
12275SOL    HW239364   0.333   0.276   8.616  0.4130 -0.1339 -0.4989
12276SOL     OW39365   0.409   9.963   9.660  0.0089  0.1572 -0.2532
12276SOL    HW139366   0.476  10.032   9.663  0.8810 -0.6815 -0.0653
12276SOL    HW239367   0.439   9.898   9.723 -2.3686  0.9721  1.7908
12277SOL     OW39368   2.123   1.384   0.513 -0.4388  0.2704 -0.1060
12277SOL    HW139369   2.074   1.435   0.448  2.3555  2.6171 -0.4938
12277SOL    HW239370   2.196   1.347   0.464 -0.5723 -1.3466  0.8903
12278SOL     OW39371   9.493   9.254   5.198  0.0893  0.1498  0.6841
12278SOL    HW139372   9.450   9.255   5.113  0.3979  1.3961  0.5264
12278SOL    HW239373   9.438   9.199   5.253  0.3542 -1.3767 -0.5582
12279SOL     OW39374   0.758   3.507   2.395 -0.1670 -0.1877  0.6520
12279SOL    HW139375   0.744   3.426   2.346  0.1243 -0.0625  0.3637
12279SOL    HW239376   0.672   3.549   2.396  0.2392  0.7741 -1.4692
12280SOL     OW39377   7.908   0.803   0.425  0.4182 -0.1203 -1.1546
12280SOL    HW139378   7.914   0.766   0.337 -0.6677 -0.2421 -1.1825
12280SOL    HW239379   7.942   0.734   0.483 -1.7374 -1.2789 -1.1884
12281SOL     OW39380   5.840   9.671   6.227 -0.1217 -0.4888 -0.1042
12281SOL    HW139381   5.836   9.753   6.277  0.0320 -1.1801  1.0521
12281SOL    HW239382   5.912   9.685   6.165  1.7661 -0.7583  1.9617
12282SOL     OW39383   1.463   7.612   7.265 -0.0934  0.1073  0.1515
12282SOL    HW139384   1.427   7.643   7.348 -0.7362 -0.8415  0.2265
12282SOL    HW239385   1.555   7.639   7.267  0.0164 -0.3454  1.3795
12283SOL     OW39386   1.635   9.147   3.971  0.2966 -0.1333 -0.0598
12283SOL    HW139387   1.676   9.105   3.896  0.8359  0.2920 -0.0037
12283SOL    HW239388   1.571   9.207   3.933 -0.6636 -1.1727 -0.1368
12284SOL     OW39389   7.132   3.758   9.602  0.2180 -0.0175 -0.1413
12284SOL    HW139390   7.048   3.784   9.641  0.0054 -1.9592  0.7723
12284SOL    HW239391   7.176   3.840   9.583 -1.4894  1.0253  0.2627
12285SOL     OW39392   1.087   0.729   0.176  0.3355 -0.0887 -0.2179
12285SOL    HW139393   1.127   0.644   0.157  0.3362 -0.0505 -0.3953
12285SOL    HW239394   1.008   0.731   0.121  0.0321 -0.2083  0.2134
12286SOL     OW39395   3.542   5.179   2.363  0.7056 -0.2508  0.0972
12286SOL    HW139396   3.453   5.214   2.372  0.2795 -0.8254 -1.5996
12286SOL    HW239397   3.553   5.121   2.438 -0.0100  0.5299  0.8196
12287SOL     OW39398   6.650   2.405   3.787 -0.2789 -0.1535 -0.3545
12287SOL    HW139399   6.602   2.326   3.811 -0.7959  0.0106 -0.8363
12287SOL    HW239400   6.599   2.444   3.716 -1.5721  2.0884  1.7269
12288SOL     OW39401   3.328   1.554   7.368  0.0231  0.2660  0.0088
12288SOL    HW139402   3.419   1.539   7.393 -0.0659  0.3288  0.3818
12288SOL    HW239403   3.328   1.550   7.273  0.3698 -0.0099  0.0166
12289SOL     OW39404   1.913   9.018   0.319  0.0664  0.3037  0.4082
12289SOL    HW139405   2.006   9.025   0.340  0.2010  0.3352 -0.1908
12289SOL    HW239406   1.887   9.107   0.294 -0.3098  0.4538  1.3269
12290SOL     OW39407  10.153   9.494   0.095  0.0093 -0.0360  0.0311
12290SOL    HW139408  10.110   9.564   0.144 -0.9447  0.5277 -1.5741
12290SOL    HW239409  10.243   9.524   0.084 -0.1540  0.4999  0.1512
12291SOL     OW39410   3.256   1.156   8.523  0.5608  0.2860  0.2561
12291SOL    HW139411   3.182   1.217   8.523  0.1338 -0.2023 -1.3009
12291SOL    HW239412   3.333   1.212   8.532  0.1876  1.1046 -1.4191
12292SOL     OW39413   1.404   1.345   3.374 -0.1277 -0.0900  0.3508
12292SOL    HW139414   1.377   1.328   3.283 -0.3285  1.0563  0.1859
12292SOL    HW239415   1.412   1.258   3.413  1.1098 -0.6466 -1.0964
12293SOL     OW39416   9.227   4.871   7.018 -0.2979 -0.0332 -0.0001
12293SOL    HW139417   9.218   4.936   7.088  1.5446  0.7329 -0.4568
12293SOL    HW239418   9.204   4.788   7.060  0.1393  0.5160  1.3517
12294SOL     OW39419   1.974   3.507   5.051 -0.1003  0.1010 -0.0552
12294SOL    HW139420   1.996   3.439   5.115  0.2484 -0.8604 -1.1743
12294SOL    HW239421   2.010   3.474   4.968 -1.9047  0.5945 -1.0545
12295SOL     OW39422   4.738   0.725   8.717  0.3323  0.0591  0.0027
12295SOL    HW139423   4.814   0.741   8.772  1.2243 -0.7866 -0.9556
12295SOL    HW239424   4.733   0.802   8.660  0.7274 -0.0710 -0.2120
12296SOL     OW39425   0.189   2.209  10.121 -0.4471 -0.3877 -0.6702
12296SOL    HW139426   0.156   2.143  10.059 -0.2631  0.0916 -1.2838
12296SOL    HW239427   0.227   2.158  10.193 -2.7130 -0.9771  0.1735
12297SOL     OW39428   4.884   0.581  10.136 -0.0268  0.0330 -0.2428
12297SOL    HW139429   4.951   0.596  10.069 -0.1787  1.8264 -0.0330
12297SOL    HW239430   4.923   0.615  10.217 -0.3071 -1.0306  0.3480
12298SOL     OW39431   5.811   2.193   4.500  0.1086 -0.7067 -0.1918
12298SOL    HW139432   5.851   2.248   4.567 -0.7099  0.1749 -0.4097
12298SOL    HW239433   5.866   2.207   4.422 -0.9501  0.9888 -0.6652
12299SOL     OW39434   1.206   9.247   2.230  0.0713 -0.0724  0.6246
12299SOL    HW139435   1.185   9.266   2.139 -0.1831 -0.0293  0.6930
12299SOL    HW239436   1.145   9.300   2.281 -1.2619 -1.7642  0.8185
12300SOL     OW39437   5.866   8.647   8.859  0.0190 -0.0018  1.4360
12300SOL    HW139438   5.957   8.622   8.842 -0.1207  0.0000  0.6824
12300SOL    HW239439   5.830   8.574   8.910  0.0168 -0.6860  0.4548
12301SOL     OW39440   1.664   4.208   5.256 -0.2673 -0.1372  0.4229
12301SOL    HW139441   1.718   4.286   5.267 -0.0448 -0.1175 -0.8197
12301SOL    HW239442   1.653   4.198   5.162 -0.3977 -1.5458  0.5706
12302SOL     OW39443   6.367   3.912  10.142  0.2417 -0.1601  0.0753
12302SOL    HW139444   6.400   3.823  10.129 -0.0138 -0.2160 -0.2163
12302SOL    HW239445   6.427   3.967  10.091 -0.4831 -0.3307 -0.9900
12303SOL     OW39446   3.410   0.087  10.127  0.5787  0.1012  0.0313
12303SOL    HW139447   3.329   0.116  10.086  0.8868  0.8833 -0.0409
12303SOL    HW239448   3.468   0.067  10.053  0.3337 -0.7777  0.0821
12304SOL     OW39449   2.513   0.018   3.518 -1.0021  0.5085 -0.2843
12304SOL    HW139450   2.550   0.094   3.473  1.4596 -2.1607 -2.9803
12304SOL    HW239451   2.454  -0.021   3.454 -0.2687 -1.2788  0.0980
12305SOL     OW39452   2.171   3.763   1.402 -0.0434 -0.4483  0.5186
12305SOL    HW139453   2.109   3.836   1.405 -0.2896 -0.7095  2.8349
12305SOL    HW239454   2.134   3.703   1.338 -0.2320  1.1040 -0.8594
12306SOL     OW39455   6.555   5.537   2.328  0.1039 -0.4143 -0.6789
12306SOL    HW139456   6.509   5.542   2.411 -0.5403 -0.4211 -1.0269
12306SOL    HW239457   6.644   5.512   2.350  0.2147  0.6452  0.0933
12307SOL     OW39458   2.370   4.353   3.502  0.7553  0.1075 -0.2578
12307SOL    HW139459   2.393   4.404   3.580 -0.0054 -0.1750  0.1566
12307SOL    HW239460   2.317   4.413   3.449  1.6158  0.4386 -0.7649
12308SOL     OW39461   9.900   8.470   2.570  0.1540  0.1026  0.0468
12308SOL    HW139462   9.823   8.413   2.567  0.8770 -0.9115  0.3158
12308SOL    HW239463   9.949   8.439   2.646  1.6190 -0.3297 -1.0489
12309SOL     OW39464   9.050   1.029   1.542  0.1550  0.5161 -0.0320
12309SOL    HW139465   9.113   1.064   1.606 -0.1097  0.9349  0.0025
12309SOL    HW239466   8.975   1.089   1.547  0.7801  1.4814 -1.8937
12310SOL     OW39467   8.590   8.905   7.842 -0.2679  1.0262 -0.1615
12310SOL    HW139468   8.549   8.986   7.812 -3.2970  0.3910  2.0816
12310SOL    HW239469   8.638   8.931   7.920 -0.5150  0.8112  0.0606
12311SOL     OW39470   3.199   5.028   7.055  0.2665  0.3811 -0.4253
12311SOL    HW139471   3.232   5.116   7.039 -0.0812  0.2490 -2.0043
12311SOL    HW239472   3.234   4.976   6.983  0.9985 -0.9144  0.8497
12312SOL     OW39473   2.951   7.765   7.807  0.0335 -0.0211 -0.1642
12312SOL    HW139474   2.886   7.766   7.877  0.9877  1.5710  0.7255
12312SOL    HW239475   2.969   7.672   7.793 -1.2216 -0.4083  0.7051
12313SOL     OW39476   1.707   1.051   2.020  0.1162 -0.0129  0.2437
12313SOL    HW139477   1.693   0.973   2.073 -0.6400  0.5499  0.8961
12313SOL    HW239478   1.801   1.053   2.004  0.1684 -0.9342  0.4092
12314SOL     OW39479  10.025   7.867   5.781 -0.2004 -1.4567 -0.1197
12314SOL    HW139480  10.029   7.790   5.724 -0.3384  0.7572 -3.2694
12314SOL    HW239481  10.088   7.928   5.742 -2.1920  1.1197  0.5695
12315SOL     OW39482   6.623   3.374   1.574 -0.1891  0.1556 -0.6475
12315SOL    HW139483   6.716   3.394   1.574 -0.1692  0.0642 -0.6976
12315SOL    HW239484   6.592   3.405   1.659 -0.1885  0.5398 -0.7864
12316SOL     OW39485   2.583   2.202   6.034 -0.1068  0.0959 -0.2366
12316SOL    HW139486   2.631   2.215   5.952  0.1596  0.3062 -0.0465
12316SOL    HW239487   2.639   2.242   6.101 -0.7410  0.7198 -0.0709
12317SOL     OW39488   8.973   1.589   0.212  0.3470 -0.0830  0.2814
12317SOL    HW139489   9.029   1.659   0.178 -1.1468 -0.1984 -2.5640
12317SOL    HW239490   8.987   1.516   0.152 -0.7924 -1.0330  1.1535
12318SOL     OW39491   8.675   1.870   2.028  0.3242  0.0735 -0.2460
12318SOL    HW139492   8.639   1.815   1.959  0.6197 -1.8730  1.0945
12318SOL    HW239493   8.602   1.883   2.089  0.0755  1.7446 -0.8609
12319SOL     OW39494   0.423   9.085   5.003  0.1165 -0.0635 -0.2108
12319SOL    HW139495   0.475   9.105   4.925  0.5145 -1.3359 -0.2744
12319SOL    HW239496   0.372   9.165   5.019 -0.9593 -0.2332 -2.5562
12320SOL     OW39497   6.159   7.440   2.465 -0.2856  0.0581 -0.4427
12320SOL    HW139498   6.191   7.367   2.413 -1.0929  0.9251 -2.1840
12320SOL    HW239499   6.237   7.489   2.490  0.6074 -3.0208  3.3691
12321SOL     OW39500   5.695   8.022   0.626 -0.1263  0.0685  0.1218
12321SOL    HW139501   5.740   7.984   0.550  0.7039 -0.1587  0.7229
12321SOL    HW239502   5.760   8.021   0.695 -0.8534  0.3783  0.8138
12322SOL     OW39503   1.037   6.037   0.416 -0.2323 -0.1023 -0.1084
12322SOL    HW139504   0.964   6.097   0.432 -3.0678 -3.1685 -1.0204
12322SOL    HW239505   1.038   6.024   0.321  2.8243  1.3718 -0.3657
12323SOL     OW39506   6.635   8.770   3.025  0.4854 -0.0125 -0.2174
12323SOL    HW139507   6.685   8.807   3.098  0.1655  0.3652 -0.1875
12323SOL    HW239508   6.543   8.785   3.048  0.4156  1.5229 -1.4268
12324SOL     OW39509   0.779   4.397   1.520 -0.5253  0.4183 -0.3151
12324SOL    HW139510   0.716   4.447   1.467 -0.1816 -0.3805 -1.4888
12324SOL    HW239511   0.858   4.393   1.466  0.2610  0.7013  0.8071
12325SOL     OW39512   9.384   3.862   2.911  0.2361 -0.1188 -0.7616
12325SOL    HW139513   9.326   3.936   2.897  0.2513 -0.1176 -0.8171
12325SOL    HW239514   9.472   3.899   2.912  0.2653 -0.1814 -1.1249
12326SOL     OW39515   4.959   7.631   8.063 -0.2547 -0.3473  0.0505
12326SOL    HW139516   5.007   7.680   8.130 -2.1064  0.0797  1.1144
12326SOL    HW239517   4.987   7.669   7.980  0.9406  0.1406  0.6665
12327SOL     OW39518   1.224   3.097   8.865 -0.4081  0.2291 -0.7666
12327SOL    HW139519   1.263   3.088   8.952 -0.1184 -2.6456 -1.1627
12327SOL    HW239520   1.142   3.048   8.871 -1.0212  1.1144 -1.7505
12328SOL     OW39521   6.980   6.856   4.060  0.0466  0.2976 -0.2120
12328SOL    HW139522   6.987   6.774   4.109  1.8200  0.3393 -0.3624
12328SOL    HW239523   6.910   6.839   3.996  0.2519 -1.0368 -0.1047
12329SOL     OW39524   1.611   1.080   3.726  0.0620  0.1362  0.0012
12329SOL    HW139525   1.669   1.060   3.800  0.5307  1.4476  0.0038
12329SOL    HW239526   1.613   1.001   3.672  1.6255  0.0407  0.1674
12330SOL     OW39527   8.863   8.398   0.221  0.5722  0.1385 -0.4674
12330SOL    HW139528   8.782   8.447   0.239 -0.2180 -0.6487 -1.8075
12330SOL    HW239529   8.918   8.460   0.174 -0.6099 -0.3700 -2.5671
12331SOL     OW39530   5.493   1.844   6.446  0.3434 -0.1321 -0.0805
12331SOL    HW139531   5.584   1.850   6.472 -0.2149  2.8739  1.4063
12331SOL    HW239532   5.491   1.879   6.357  0.4005  1.6366  0.5864
12332SOL     OW39533   6.128   1.185   8.990 -0.6343 -0.5065  0.0871
12332SOL    HW139534   6.156   1.099   8.960  1.1485  0.0135  0.2349
12332SOL    HW239535   6.034   1.187   8.970 -0.6754 -2.4149 -0.0481
12333SOL     OW39536   9.382   7.977   5.804  0.2265 -0.3838  0.2304
12333SOL    HW139537   9.398   8.066   5.774 -0.4467 -0.2291  0.3127
12333SOL    HW239538   9.291   7.959   5.778  0.6671 -1.3846 -0.6228
12334SOL     OW39539   0.666   0.993   8.263 -0.7256  0.4472 -0.3032
12334SOL    HW139540   0.744   0.950   8.298 -1.6655 -0.3349  0.8937
12334SOL    HW239541   0.597   0.927   8.272 -1.6672  1.3694 -0.7018
12335SOL     OW39542   6.586   1.317   2.815 -0.5200  0.2915  0.1991
12335SOL    HW139543   6.601   1.379   2.887  2.1068 -0.3241  0.2521
12335SOL    HW239544   6.543   1.242   2.857 -0.7903  0.7577  0.7577
12336SOL     OW39545   6.389   6.773   2.093  0.1203 -0.4748  0.1425
12336SOL    HW139546   6.408   6.830   2.019 -0.6678 -0.9847 -0.4471
12336SOL    HW239547   6.305   6.731   2.072  0.1365 -1.0041  1.0803
12337SOL     OW39548   4.272   0.406   9.595  0.1146 -1.0679  0.1893
12337SOL    HW139549   4.201   0.361   9.642  0.4648 -0.5053  1.2864
12337SOL    HW239550   4.241   0.412   9.505 -1.1943 -0.9315  0.6306
12338SOL     OW39551   9.778   9.342   9.285  0.1005 -0.7846 -0.1646
12338SOL    HW139552   9.715   9.388   9.341  0.7014  0.3908 -0.4421
12338SOL    HW239553   9.756   9.370   9.197  1.1626 -0.1696 -0.2463
12339SOL     OW39554   6.506   1.877   4.671 -0.2284 -0.1950 -0.1536
12339SOL    HW139555   6.466   1.897   4.755  0.9178 -0.9195  0.5872
12339SOL    HW239556   6.439   1.899   4.606 -1.2940 -0.0703  0.9688
12340SOL     OW39557   0.101   7.307   0.844  0.2076  0.8441  0.5853
12340SOL    HW139558   0.178   7.301   0.901  0.1157 -0.7559  0.5603
12340SOL    HW239559   0.083   7.401   0.838  1.6451  1.1740  1.2751
12341SOL     OW39560   4.829   5.572   7.553 -0.4072 -0.5774 -0.4234
12341SOL    HW139561   4.827   5.532   7.466 -0.1462  1.7817 -1.5703
12341SOL    HW239562   4.922   5.585   7.571 -0.5092  0.1383 -0.3902
12342SOL     OW39563   4.955   0.986   4.542  0.3088  0.3553 -0.2679
12342SOL    HW139564   4.941   0.969   4.449 -0.9998 -0.3551  0.0418
12342SOL    HW239565   5.028   0.928   4.566  1.3780  1.3537 -1.0869
12343SOL     OW39566   9.324   4.209   0.612 -0.5373  0.1906  0.7808
12343SOL    HW139567   9.329   4.138   0.548  0.0584 -0.3175  1.3829
12343SOL    HW239568   9.411   4.213   0.651 -0.5140  1.3633  0.6394
12344SOL     OW39569   4.794   0.423   9.124  0.0437  0.6760 -0.4969
12344SOL    HW139570   4.741   0.354   9.086  0.0455 -0.2867  1.2271
12344SOL    HW239571   4.844   0.459   9.049 -0.3889 -0.7676 -1.4935
12345SOL     OW39572   7.671   5.990   7.107  0.3040  0.0694  0.1564
12345SOL    HW139573   7.690   6.014   7.016 -0.1618 -1.2765 -0.3153
12345SOL    HW239574   7.584   6.025   7.124 -0.6844 -1.8335 -0.7671
12346SOL     OW39575   5.744   1.451   8.800 -0.1585  0.1240 -0.2378
12346SOL    HW139576   5.813   1.482   8.741  1.7047 -0.9206  1.3158
12346SOL    HW239577   5.764   1.492   8.884 -0.5492 -1.3272  0.5967
12347SOL     OW39578   0.740   4.277   3.067  0.5860 -0.2442  0.0072
12347SOL    HW139579   0.747   4.195   3.018 -0.2640  0.3744 -1.1781
12347SOL    HW239580   0.816   4.277   3.125  0.8082 -1.6823 -0.2746
12348SOL     OW39581   8.065   5.871   4.901 -0.3667  0.7537  0.4137
12348SOL    HW139582   8.083   5.847   4.810  0.3378  1.3799  0.3825
12348SOL    HW239583   8.038   5.789   4.942 -3.5132  0.9736 -1.0325
12349SOL     OW39584   7.255   2.296   2.497 -0.0147 -0.3581 -0.0282
12349SOL    HW139585   7.170   2.339   2.485 -0.4368 -1.9615 -3.2834
12349SOL    HW239586   7.319   2.364   2.477 -0.5954 -0.0734 -0.9269
12350SOL     OW39587   9.781   2.861   9.200  0.3996 -0.2634 -0.0927
12350SOL    HW139588   9.821   2.780   9.231 -0.7750 -0.8574 -0.1312
12350SOL    HW239589   9.759   2.844   9.108  0.7072  0.3132 -0.2798
12351SOL     OW39590   9.524   3.152   7.409  0.0269  0.6874  0.0725
12351SOL    HW139591   9.447   3.122   7.457 -0.5606 -2.2191 -2.5443
12351SOL    HW239592   9.597   3.103   7.447 -0.5124 -2.0171 -2.2164
12352SOL     OW39593   9.243   4.229   7.551  0.3129  0.5390 -0.5949
12352SOL    HW139594   9.327   4.210   7.510 -0.0059  0.1872 -1.0957
12352SOL    HW239595   9.230   4.323   7.537  0.9761  0.7459  0.1563
12353SOL     OW39596   3.450   7.182   4.719  0.0973 -0.1572 -0.4137
12353SOL    HW139597   3.429   7.233   4.641  1.6361  0.0317 -0.7289
12353SOL    HW239598   3.522   7.125   4.691 -0.5026 -1.3244  0.3927
12354SOL     OW39599   3.431   7.045   5.251 -0.1637  0.2910 -0.0346
12354SOL    HW139600   3.442   6.950   5.250 -2.1528 -0.0227  2.2283
12354SOL    HW239601   3.476   7.074   5.331 -1.4021  0.9550  0.4431
12355SOL     OW39602   4.713   0.221   9.396 -0.2871 -0.3813 -0.2348
12355SOL    HW139603   4.661   0.163   9.452 -0.9932 -0.0994 -0.5922
12355SOL    HW239604   4.682   0.309   9.417 -1.4327 -0.3639 -1.9621
12356SOL     OW39605   6.945   0.586   0.389  0.1747  0.2591 -0.0540
12356SOL    HW139606   6.886   0.654   0.356 -1.3070 -0.9179  0.1514
12356SOL    HW239607   6.893   0.538   0.453  1.5589 -0.3991  0.5869
12357SOL     OW39608   2.026   7.818   2.321 -0.6199  0.2190 -0.2232
12357SOL    HW139609   2.083   7.826   2.245  0.0683 -0.3668  0.2288
12357SOL    HW239610   2.017   7.907   2.354  0.0036  0.3154 -0.3123
12358SOL     OW39611   9.434   3.354   3.401  0.1172 -0.3611 -0.1187
12358SOL    HW139612   9.501   3.401   3.450  0.2476 -1.2633  0.5927
12358SOL    HW239613   9.361   3.417   3.394  0.4983  0.1367  0.3261
12359SOL     OW39614   6.784   7.914   9.222  0.1018 -0.0664 -0.4274
12359SOL    HW139615   6.849   7.877   9.163  2.9139 -0.7555  2.9708
12359SOL    HW239616   6.720   7.844   9.234  0.1515 -0.3392 -1.6527
12360SOL     OW39617   5.681   5.802   5.328  0.2377 -0.1006 -0.1267
12360SOL    HW139618   5.770   5.823   5.302  0.3436  1.3723  1.3213
12360SOL    HW239619   5.626   5.862   5.277  0.1939  0.1029  0.1559
12361SOL     OW39620   0.792   7.466  10.180  0.1873 -0.4569  0.9070
12361SOL    HW139621   0.720   7.515  10.219  0.8421 -0.6396  2.3752
12361SOL    HW239622   0.867   7.483  10.237  1.1392 -0.8559 -0.1865
12362SOL     OW39623   6.900   2.412   7.803  0.3826 -0.2558  0.2178
12362SOL    HW139624   6.860   2.448   7.882 -1.7048 -1.4035 -0.2678
12362SOL    HW239625   6.951   2.337   7.834 -0.3999 -0.6782  0.5050
12363SOL     OW39626   5.471   9.853   5.681  0.0389  0.8125 -0.2575
12363SOL    HW139627   5.559   9.825   5.705 -1.2745 -2.1451  1.4624
12363SOL    HW239628   5.460   9.826   5.590  0.8304  1.0805 -0.4349
12364SOL     OW39629   3.064   0.922   3.445  0.1945 -0.0295  0.0607
12364SOL    HW139630   3.013   0.995   3.410 -0.8307 -1.0019 -0.5081
12364SOL    HW239631   3.149   0.929   3.402 -0.0404  0.5843 -0.3100
12365SOL     OW39632   9.201   8.430   0.096 -0.1971  0.1436  0.1066
12365SOL    HW139633   9.163   8.343   0.098 -0.1573  0.0932 -1.1651
12365SOL    HW239634   9.128   8.489   0.112 -0.2907 -0.1076  0.5802
12366SOL     OW39635   2.137   6.803   4.850 -0.1963 -0.1038 -0.3437
12366SOL    HW139636   2.161   6.841   4.765  0.2700  0.1422 -0.1064
12366SOL    HW239637   2.218   6.763   4.882 -0.5615 -0.8488 -0.3577
12367SOL     OW39638   8.484   2.028   6.970 -0.2453  0.0416  0.5098
12367SOL    HW139639   8.481   2.090   7.043  2.1579  1.4657 -0.5275
12367SOL    HW239640   8.533   2.074   6.902 -3.0981 -0.9731 -2.3098
12368SOL     OW39641   0.217   9.490   7.060 -0.4527 -0.4610 -0.0749
12368SOL    HW139642   0.130   9.498   7.021  0.3288 -0.6632 -1.9205
12368SOL    HW239643   0.206   9.427   7.131 -1.4799 -1.7826 -1.3705
12369SOL     OW39644   4.562   4.337   5.763  0.4811 -0.1176 -0.2165
12369SOL    HW139645   4.547   4.364   5.673 -4.3328 -2.2800 -0.2269
12369SOL    HW239646   4.605   4.252   5.756 -2.1967 -1.4900 -0.6169
12370SOL     OW39647   0.343   4.059   6.206 -0.1075  0.8624  0.1870
12370SOL    HW139648   0.342   4.149   6.172 -0.3683  1.2829  1.2950
12370SOL    HW239649   0.423   4.054   6.259 -0.6953  0.7815  1.0559
12371SOL     OW39650   5.258   1.868   4.263 -0.7463  0.1696  0.4363
12371SOL    HW139651   5.337   1.831   4.224 -1.1932 -0.1313 -0.1976
12371SOL    HW239652   5.252   1.956   4.224 -1.7012 -0.4728 -0.9199
12372SOL     OW39653   3.240   7.646   2.718 -0.3049  0.1324  0.6015
12372SOL    HW139654   3.169   7.706   2.692  0.8950  1.6082  0.6632
12372SOL    HW239655   3.259   7.596   2.639 -0.9732  0.1905  0.4002
12373SOL     OW39656   3.828   6.063   1.358  0.7378  0.4130  0.1887
12373SOL    HW139657   3.790   5.985   1.398  1.9261  0.5653  1.6406
12373SOL    HW239658   3.900   6.029   1.305 -0.7492  0.2238 -1.8088
12374SOL     OW39659   3.966   7.794   7.094  0.0328 -0.6449 -0.3593
12374SOL    HW139660   3.923   7.711   7.114 -0.0783 -0.4871  0.0764
12374SOL    HW239661   3.900   7.844   7.046  0.1907 -0.9087 -0.8459
12375SOL     OW39662   7.296   6.847   0.111 -0.2379 -0.2114 -0.4505
12375SOL    HW139663   7.209   6.824   0.079 -0.1742 -0.5594 -0.3754
12375SOL    HW239664   7.353   6.838   0.034  0.2170 -2.7472  0.1313
12376SOL     OW39665   8.674   5.867   0.500  0.3128 -0.0221  0.0894
12376SOL    HW139666   8.582   5.888   0.483  0.0062 -0.0086  1.7258
12376SOL    HW239667   8.680   5.773   0.487  0.4299  0.1855 -1.5484
12377SOL     OW39668   0.974   2.974   0.282  0.4580 -0.0231 -0.0639
12377SOL    HW139669   0.901   2.989   0.342 -0.4473 -2.1370 -0.6153
12377SOL    HW239670   1.052   2.975   0.339  0.0219  2.0768  0.5409
12378SOL     OW39671   2.145   8.501   6.948 -0.3576 -0.3452 -0.3800
12378SOL    HW139672   2.133   8.520   6.855 -0.7470 -3.8252 -1.0929
12378SOL    HW239673   2.063   8.530   6.988 -1.0273 -0.7319 -1.4452
12379SOL     OW39674   3.448   5.061   1.038 -0.1649 -0.0877 -0.1907
12379SOL    HW139675   3.522   5.029   1.089 -0.2778 -0.5357 -0.2996
12379SOL    HW239676   3.458   5.020   0.953  1.0948  2.1887 -1.1774
12380SOL     OW39677   0.425   5.725   0.391  0.0602 -0.0538 -0.5360
12380SOL    HW139678   0.459   5.766   0.311  0.1488  0.3297 -0.3047
12380SOL    HW239679   0.489   5.749   0.458  0.3529 -0.9528 -0.4870
12381SOL     OW39680   1.267   4.071   4.822  0.1741 -0.0408 -0.1045
12381SOL    HW139681   1.328   4.024   4.879 -1.3569 -1.7760  0.1601
12381SOL    HW239682   1.259   4.158   4.861 -0.1791 -0.9270  1.8522
12382SOL     OW39683   4.407   7.916   4.179  0.5034 -0.7183 -0.0445
12382SOL    HW139684   4.347   7.895   4.251  0.0222 -3.0635 -1.0942
12382SOL    HW239685   4.369   7.993   4.138  0.6491  0.5159  2.0498
12383SOL     OW39686   0.160   6.028   0.833 -0.0324  0.3108  0.0745
12383SOL    HW139687   0.252   6.016   0.855 -0.2195  0.7380  1.1079
12383SOL    HW239688   0.133   5.944   0.796  0.8444  0.2850 -0.5150
12384SOL     OW39689   2.033   0.019   8.048  0.4239  0.3043 -0.2665
12384SOL    HW139690   1.966   0.081   8.019 -1.6216 -1.5067  0.4636
12384SOL    HW239691   2.071  -0.014   7.967  0.5110  1.4280 -0.6878
12385SOL     OW39692   9.936   2.946   3.208 -0.1388 -0.0248 -0.1359
12385SOL    HW139693   9.973   2.882   3.269 -0.3513  0.5283  0.5775
12385SOL    HW239694  10.012   2.986   3.166 -0.0286 -1.6211 -1.5039
12386SOL     OW39695   2.506   7.026   5.966  0.1624  0.5822 -0.5962
12386SOL    HW139696   2.527   7.029   6.059  3.7044  0.7966 -1.3101
12386SOL    HW239697   2.497   7.118   5.941  0.9921  0.6119 -0.8030
12387SOL     OW39698   1.399   2.797   2.206  0.3438  0.3379 -0.0009
12387SOL    HW139699   1.405   2.891   2.187 -0.1698  0.5150  0.6961
12387SOL    HW239700   1.367   2.793   2.296  2.3028 -0.4945  0.6858
12388SOL     OW39701   8.869   7.325   0.395 -0.2770 -0.2595  0.2411
12388SOL    HW139702   8.842   7.397   0.337 -1.8279 -1.0764 -0.0923
12388SOL    HW239703   8.892   7.367   0.477  3.4759  1.1185 -1.3645
12389SOL     OW39704   5.539   1.109   1.027 -0.2711  0.3502  0.2136
12389SOL    HW139705   5.559   1.035   0.969 -0.4876  0.4867 -0.0386
12389SOL    HW239706   5.446   1.100   1.045 -0.2999  0.5692  0.1716
12390SOL     OW39707   7.449   0.959   4.324  0.2057  0.5906 -0.0491
12390SOL    HW139708   7.454   0.864   4.337  0.0780  0.5513 -0.2904
12390SOL    HW239709   7.486   0.996   4.404  1.4410  0.3255 -0.4921
12391SOL     OW39710   3.598   1.582   2.550  0.8679  0.1181  0.3908
12391SOL    HW139711   3.607   1.673   2.577 -1.0225  0.8093 -1.2045
12391SOL    HW239712   3.674   1.565   2.495  1.6446  0.4775  1.3466
12392SOL     OW39713   2.577   8.795   1.650  0.5778  0.2814 -0.5392
12392SOL    HW139714   2.605   8.731   1.584  0.5716 -0.1847 -0.0971
12392SOL    HW239715   2.658   8.834   1.682  0.5545  0.8607 -1.1615
12393SOL     OW39716   9.441   6.834   8.816  0.0875  0.1903 -0.4223
12393SOL    HW139717   9.442   6.797   8.904 -1.2015  1.7071  0.2613
12393SOL    HW239718   9.493   6.914   8.823 -0.0240  0.3227 -1.0358
12394SOL     OW39719  10.182   4.381   8.366 -0.1167  0.2237  0.3130
12394SOL    HW139720  10.178   4.473   8.393  0.6118  0.4735 -0.4115
12394SOL    HW239721  10.122   4.376   8.292 -0.0327  0.1471  0.2510
12395SOL     OW39722   4.519   7.878   8.510  0.1792 -0.5238 -0.3562
12395SOL    HW139723   4.591   7.933   8.477 -0.0017  0.4492  0.8050
12395SOL    HW239724   4.561   7.796   8.535  0.6870 -0.4063 -0.8211
12396SOL     OW39725   2.947   9.980   9.113 -0.4893  0.6478  0.1306
12396SOL    HW139726   2.959  10.073   9.133 -1.2703  0.4423  1.5670
12396SOL    HW239727   3.010   9.935   9.169 -0.5695  0.2650 -0.0840
12397SOL     OW39728   7.204   6.973   3.990 -0.0088 -0.1675  0.3702
12397SOL    HW139729   7.162   7.022   3.920 -0.6900 -2.0010 -0.5337
12397SOL    HW239730   7.133   6.922   4.030  0.6298 -0.1903  1.5124
12398SOL     OW39731   8.929   8.714   4.682 -0.0516 -0.7187  0.6954
12398SOL    HW139732   8.923   8.745   4.772  0.5315 -0.2874  0.5924
12398SOL    HW239733   8.845   8.739   4.642  0.9055  1.9778  0.2479
12399SOL     OW39734   9.212   7.243   7.802 -0.1862  0.4790  0.0931
12399SOL    HW139735   9.169   7.297   7.734  1.7418  2.1945  0.1924
12399SOL    HW239736   9.171   7.271   7.884  1.3280  2.3859  0.2310
12400SOL     OW39737   4.637   1.017   8.957 -0.0732  0.2977  0.1185
12400SOL    HW139738   4.574   1.078   8.919  0.1930  0.0646 -0.7088
12400SOL    HW239739   4.670   1.062   9.035 -0.6003  0.7946  0.0559
12401SOL     OW39740   1.679   3.466   4.989  0.3593  0.1165  0.3527
12401SOL    HW139741   1.714   3.443   4.903 -0.6490 -2.4115  0.5875
12401SOL    HW239742   1.754   3.460   5.048  0.6822  0.1246 -0.0525
12402SOL     OW39743   5.337   5.812   3.949 -0.2082  0.4804 -0.1296
12402SOL    HW139744   5.277   5.853   3.887 -1.9271  1.6194  2.1884
12402SOL    HW239745   5.406   5.877   3.963  0.0954  0.2862 -0.7215
12403SOL     OW39746   5.541  10.071   6.036 -0.1627 -0.1549  0.6418
12403SOL    HW139747   5.502  10.138   6.091  0.3757 -0.0937  0.9556
12403SOL    HW239748   5.532   9.990   6.087 -0.1096 -0.1831  0.6060
12404SOL     OW39749   0.899   4.919   2.690 -0.0649  0.0567  0.3203
12404SOL    HW139750   0.819   4.963   2.660 -0.1598 -0.5957 -0.4090
12404SOL    HW239751   0.892   4.831   2.654  0.6289 -0.2315  0.8897
12405SOL     OW39752   3.175   4.919   5.935 -0.1769 -0.3725  0.5169
12405SOL    HW139753   3.192   4.985   6.002 -0.1086  0.6811 -0.4960
12405SOL    HW239754   3.222   4.951   5.858  0.7869 -2.2169  0.3200
12406SOL     OW39755   3.315   7.738   7.110  0.4916  0.2685  0.3965
12406SOL    HW139756   3.365   7.658   7.099  1.5730  1.2122 -1.7676
12406SOL    HW239757   3.329   7.762   7.202  0.7714 -1.5860  0.8589
12407SOL     OW39758   1.267   5.635   9.448 -0.5749  0.4939  0.1421
12407SOL    HW139759   1.208   5.580   9.398  0.4534 -0.9098  0.4414
12407SOL    HW239760   1.306   5.576   9.513  1.0668  1.3937  0.0105
12408SOL     OW39761   4.607   3.474   2.681 -0.1215 -0.3802 -0.1153
12408SOL    HW139762   4.685   3.433   2.719 -0.8140 -1.0739  0.5622
12408SOL    HW239763   4.612   3.565   2.711  0.1313 -0.5582  0.3941
12409SOL     OW39764   7.196   4.187   0.684  0.4314  0.1021 -0.3066
12409SOL    HW139765   7.160   4.242   0.754  0.4156 -1.1854  0.7267
12409SOL    HW239766   7.290   4.203   0.688  0.3312  0.7666 -0.6309
12410SOL     OW39767   8.568   8.101   4.227  0.4146  0.0065  0.3445
12410SOL    HW139768   8.581   8.143   4.142 -0.7612 -1.4407 -0.5652
12410SOL    HW239769   8.517   8.165   4.277  0.8590  0.7406 -0.1228
12411SOL     OW39770   6.921   1.120   0.775  0.3083  0.0090 -0.7609
12411SOL    HW139771   6.983   1.155   0.711 -0.8960 -0.2956 -2.1244
12411SOL    HW239772   6.836   1.155   0.747 -0.3126 -0.5583  0.3760
12412SOL     OW39773   4.918   2.631   3.499 -0.1280 -0.2699 -0.3122
12412SOL    HW139774   4.876   2.565   3.554  0.6361 -0.4195  0.1036
12412SOL    HW239775   4.858   2.705   3.500  0.0509 -0.1307  1.0238
12413SOL     OW39776   1.009   0.297   2.665  0.6300  0.2750 -0.1612
12413SOL    HW139777   1.090   0.348   2.672  0.4046  0.4869  0.9575
12413SOL    HW239778   1.036   0.214   2.627  1.0908  1.0162 -1.4827
12414SOL     OW39779   3.372   7.856   5.238 -0.1915  0.2904 -0.5949
12414SOL    HW139780   3.382   7.768   5.202 -0.1121 -0.2406  0.6776
12414SOL    HW239781   3.461   7.880   5.265 -0.0159  1.2297 -1.9722
12415SOL     OW39782   5.317   5.941   0.823  0.1416 -0.5348 -0.6590
12415SOL    HW139783   5.223   5.921   0.817 -0.2412  1.4903 -1.9803
12415SOL    HW239784   5.340   5.918   0.913 -1.4219 -1.8748 -0.5735
12416SOL     OW39785   2.107   5.969   9.919  0.4530 -0.2860 -0.3146
12416SOL    HW139786   2.041   6.027   9.957  1.4722  1.2181 -0.8267
12416SOL    HW239787   2.069   5.943   9.835 -0.3212 -0.9634  0.2292
12417SOL     OW39788   4.494   9.763   6.329 -0.1615 -0.8600  0.6110
12417SOL    HW139789   4.458   9.697   6.271 -0.0501  0.8695 -1.4866
12417SOL    HW239790   4.576   9.789   6.288  0.4837 -0.4023  2.1430
12418SOL     OW39791   1.051   2.528   4.712 -0.4144 -0.0986  0.0770
12418SOL    HW139792   1.031   2.483   4.630 -1.0621 -1.0299  0.7248
12418SOL    HW239793   0.975   2.584   4.728 -0.5259 -0.3071  0.2910
12419SOL     OW39794   1.918   8.926   5.151  0.4908  0.6588  0.1530
12419SOL    HW139795   1.824   8.945   5.154  0.8255  2.6551 -1.4406
12419SOL    HW239796   1.926   8.856   5.086  0.0883  0.2405  0.5455
12420SOL     OW39797   0.453   9.094   1.510 -0.6050  0.1254  0.1888
12420SOL    HW139798   0.445   9.132   1.598 -1.4156  0.7464 -0.1519
12420SOL    HW239799   0.503   9.014   1.524 -1.7384 -0.3984  1.3898
12421SOL     OW39800   2.367   6.696   3.561 -0.0467 -0.5105  0.5852
12421SOL    HW139801   2.379   6.654   3.646 -0.3459 -0.3475  0.7082
12421SOL    HW239802   2.421   6.775   3.565 -3.3533  1.7583  2.2160
12422SOL     OW39803   3.132   7.225   8.742  0.6305 -0.1941  0.3121
12422SOL    HW139804   3.178   7.143   8.721  0.4518 -0.7774  2.1506
12422SOL    HW239805   3.193   7.274   8.797  0.2030  0.3291  0.3216
12423SOL     OW39806   9.930   1.991   3.195  0.0250 -0.2890  0.2379
12423SOL    HW139807   9.965   2.069   3.153  1.7161 -2.6431 -3.0029
12423SOL    HW239808  10.007   1.934   3.207 -1.4405 -2.2087  0.7502
12424SOL     OW39809   2.914   5.330   3.735 -0.4043 -0.3511  0.1291
12424SOL    HW139810   2.987   5.388   3.758 -3.0129  2.8903  0.6128
12424SOL    HW239811   2.912   5.265   3.806 -0.4847  2.0037  2.3542
12425SOL     OW39812   7.752   2.748   5.653  0.4863  0.3001 -0.2929
12425SOL    HW139813   7.684   2.814   5.636  0.2577 -0.4644 -2.4346
12425SOL    HW239814   7.708   2.664   5.638  0.6526 -0.4370  2.8200
12426SOL     OW39815   4.949   5.633   2.731 -0.3632 -0.3275 -0.0235
12426SOL    HW139816   4.887   5.701   2.705 -0.3399  0.1281  1.0786
12426SOL    HW239817   4.968   5.652   2.823  0.7974 -0.9347 -0.1279
12427SOL     OW39818   8.841   7.032   7.843  1.1018 -0.1552  0.1133
12427SOL    HW139819   8.768   6.973   7.822  0.0694  1.3676 -0.6830
12427SOL    HW239820   8.867   7.007   7.932 -0.5053 -0.6063  0.4767
12428SOL     OW39821   9.390   4.312   9.207 -0.1441 -0.0159  0.1431
12428SOL    HW139822   9.381   4.268   9.123 -0.0613 -2.3463  1.2927
12428SOL    HW239823   9.483   4.332   9.214  0.0417 -0.8580  0.1632
12429SOL     OW39824   8.973   0.855   2.778  0.6121  0.4497  0.2628
12429SOL    HW139825   8.941   0.837   2.690  0.3821  0.1177  0.4165
12429SOL    HW239826   8.981   0.951   2.781 -0.9031  0.5757  0.4153
12430SOL     OW39827   7.283   6.027   9.074  0.0476 -0.1036  0.0709
12430SOL    HW139828   7.354   6.089   9.090 -0.7250  0.1546  2.7915
12430SOL    HW239829   7.207   6.082   9.056 -0.2209 -0.2750  0.6539
12431SOL     OW39830   3.814   2.436   4.797 -0.1845  0.6211 -0.0225
12431SOL    HW139831   3.748   2.454   4.730  0.9490 -1.1032 -1.6643
12431SOL    HW239832   3.771   2.376   4.858 -0.7541  1.0288 -0.0211
12432SOL     OW39833   4.427   8.349   7.510  0.4183 -0.3785 -0.0674
12432SOL    HW139834   4.506   8.398   7.487  0.8216 -0.1821  1.6834
12432SOL    HW239835   4.382   8.405   7.573 -0.5350 -1.0065 -0.1873
12433SOL     OW39836   5.702   0.606   5.213 -0.1154  0.2611 -0.1545
12433SOL    HW139837   5.682   0.582   5.122  0.2634  1.4155 -0.5567
12433SOL    HW239838   5.796   0.592   5.222 -0.3852 -1.2133  0.4980
12434SOL     OW39839   3.911   0.319   1.546 -0.3246  0.8486 -0.0247
12434SOL    HW139840   3.951   0.354   1.467 -0.0537  2.2133  0.7108
12434SOL    HW239841   3.850   0.252   1.514 -0.6153  1.7625 -1.4130
12435SOL     OW39842   3.565   6.590   8.636 -0.9594 -0.4315 -0.4755
12435SOL    HW139843   3.630   6.549   8.579 -1.1817 -0.7176 -0.5283
12435SOL    HW239844   3.544   6.523   8.701  1.2412  0.8139  1.5622
12436SOL     OW39845   6.297   5.277   1.019  0.3271  0.0874 -0.2589
12436SOL    HW139846   6.256   5.202   0.974  0.1779  0.1938 -0.3021
12436SOL    HW239847   6.380   5.243   1.051  0.3047 -0.0700 -0.3656
12437SOL     OW39848   0.557   0.280   5.505  0.6470  0.7733 -0.1227
12437SOL    HW139849   0.633   0.287   5.562 -0.5327 -0.5068  1.6468
12437SOL    HW239850   0.541   0.186   5.498 -0.1862  0.9850 -1.2844
12438SOL     OW39851   3.485   6.544   9.555 -0.4611  0.2826 -0.1719
12438SOL    HW139852   3.438   6.600   9.493 -2.9325 -0.1546  1.2409
12438SOL    HW239853   3.465   6.454   9.527  1.1777  0.0750 -0.7389
12439SOL     OW39854   0.866   2.423   5.544 -0.3998  0.3027 -0.0207
12439SOL    HW139855   0.872   2.341   5.496 -1.1586 -1.0080  2.0126
12439SOL    HW239856   0.779   2.457   5.521 -0.6000 -0.1186  0.0904
12440SOL     OW39857   9.645   7.866   1.270  0.0511 -0.1735 -0.0979
12440SOL    HW139858   9.621   7.937   1.211 -2.4425 -0.5010  0.4756
12440SOL    HW239859   9.714   7.904   1.325 -1.5438  1.9702  0.4974
12441SOL     OW39860   2.381   1.800   1.504 -0.6108 -0.2854 -0.5330
12441SOL    HW139861   2.401   1.752   1.584  0.1952 -0.2833 -0.7343
12441SOL    HW239862   2.427   1.753   1.435 -0.9627 -0.0402 -0.9337
12442SOL     OW39863   4.760   7.066   0.734 -0.4242 -0.7523 -0.2769
12442SOL    HW139864   4.722   6.981   0.754  2.0224 -1.7445  0.4155
12442SOL    HW239865   4.816   7.086   0.809  2.5271 -0.6978 -2.3693
12443SOL     OW39866   3.009   8.856   9.189 -0.1464  0.5916  0.0242
12443SOL    HW139867   2.945   8.872   9.259  0.6686  0.5859  0.7788
12443SOL    HW239868   3.025   8.762   9.193  0.4571  0.7059  0.3203
12444SOL     OW39869  10.149   1.981   1.506  0.2764 -0.0946  0.0260
12444SOL    HW139870  10.229   2.033   1.510 -0.1654  0.9370 -3.2599
12444SOL    HW239871  10.078   2.043   1.520 -0.1180 -0.2519 -1.1816
12445SOL     OW39872   9.244   6.768   2.446 -0.8196  0.1745 -0.4615
12445SOL    HW139873   9.224   6.810   2.362 -1.0337  0.9049 -0.0445
12445SOL    HW239874   9.245   6.675   2.426  0.0238  0.3911 -1.4739
12446SOL     OW39875   5.280   8.072   9.275  0.4592  0.5663  0.2201
12446SOL    HW139876   5.241   8.027   9.200  1.2749 -0.1187  0.1924
12446SOL    HW239877   5.211   8.074   9.341  0.6115 -1.3422  0.4720
12447SOL     OW39878   3.174   1.581   5.511 -0.0174  0.1528 -0.6460
12447SOL    HW139879   3.217   1.514   5.458 -0.6487 -1.1291  0.4377
12447SOL    HW239880   3.084   1.584   5.477 -0.1796 -0.0273 -0.2219
12448SOL     OW39881   7.180   3.299   2.563 -0.2356 -0.0379 -0.3230
12448SOL    HW139882   7.267   3.304   2.602  0.4528 -2.1197 -1.5007
12448SOL    HW239883   7.192   3.247   2.484 -2.0515  1.9581 -1.9945
12449SOL     OW39884   6.928   8.212   5.583  0.0119  0.5724 -0.4429
12449SOL    HW139885   6.875   8.203   5.662  1.1838  0.9122  0.4091
12449SOL    HW239886   6.870   8.185   5.512 -0.0304 -3.1027  0.8484
12450SOL     OW39887  10.021   6.507   4.079  0.2764  0.3813  0.0301
12450SOL    HW139888  10.106   6.472   4.105  0.6537  1.2853  0.0027
12450SOL    HW239889  10.040   6.583   4.025 -0.5463  0.6315  0.0711
12451SOL     OW39890   1.334   3.421   4.037  0.2411  0.8268  0.2547
12451SOL    HW139891   1.247   3.438   4.073 -0.2001  0.9546 -0.8749
12451SOL    HW239892   1.333   3.461   3.950  1.9173  2.1326  0.8100
12452SOL     OW39893   0.346   7.019   1.463 -0.2459 -0.2533 -0.3050
12452SOL    HW139894   0.266   7.070   1.448 -0.0184 -0.0486 -0.8516
12452SOL    HW239895   0.315   6.935   1.495 -0.5520  0.8064  2.2611
12453SOL     OW39896   1.255   0.146   9.588 -0.1353 -0.1652 -0.5802
12453SOL    HW139897   1.256   0.212   9.658  0.9122 -1.6825  0.8920
12453SOL    HW239898   1.203   0.186   9.518  0.7503  2.3389  0.1269
12454SOL     OW39899   8.610   5.765   1.601 -0.1373 -0.6291  0.2448
12454SOL    HW139900   8.617   5.673   1.625  0.0159 -0.7766 -0.3541
12454SOL    HW239901   8.580   5.809   1.680  2.1429 -0.8298  1.2667
12455SOL     OW39902   5.187   2.011   2.021  0.4869  0.2513  0.0450
12455SOL    HW139903   5.278   1.989   2.004  0.8765  1.5803  0.3603
12455SOL    HW239904   5.144   2.007   1.935  1.0346  0.4782 -0.2413
12456SOL     OW39905   6.484   4.271   3.060 -0.3277 -0.0954 -0.9171
12456SOL    HW139906   6.511   4.257   3.151  0.0971 -1.9028 -1.3099
12456SOL    HW239907   6.483   4.366   3.050  2.6616  0.0780  0.0664
12457SOL     OW39908   6.965   6.757   7.087 -0.0029  0.7214 -0.1115
12457SOL    HW139909   6.871   6.757   7.072 -0.2750  2.7801  1.4302
12457SOL    HW239910   6.995   6.843   7.058  1.7338 -0.5753 -2.3562
12458SOL     OW39911  10.099   7.911   6.926  0.4240  0.5001  0.3519
12458SOL    HW139912  10.167   7.913   6.859  0.0611 -1.4833 -0.1350
12458SOL    HW239913  10.119   7.984   6.984  2.6806  0.2419 -0.0611
12459SOL     OW39914   6.427  10.148   3.227  0.1689 -0.1319  0.2983
12459SOL    HW139915   6.428  10.213   3.157  0.3370 -1.1682 -0.6614
12459SOL    HW239916   6.419  10.200   3.307 -1.2434  1.0044 -0.5497
12460SOL     OW39917   3.848   9.204   0.071 -0.1938  0.3768 -0.2698
12460SOL    HW139918   3.924   9.188   0.014  0.6993 -2.1636  1.5985
12460SOL    HW239919   3.836   9.299   0.067  3.1756  0.8538 -0.4920
12461SOL     OW39920   3.860   9.223   2.241 -0.8086  0.1066 -0.3389
12461SOL    HW139921   3.915   9.300   2.231 -0.0672 -0.3349  0.3083
12461SOL    HW239922   3.771   9.254   2.223 -0.4056  0.9121 -0.9343
12462SOL     OW39923   3.747  10.035   8.544 -0.0623 -0.5142  0.1468
12462SOL    HW139924   3.829  10.070   8.580  1.5193 -2.8582 -1.0728
12462SOL    HW239925   3.734   9.952   8.590 -1.3050 -0.5844 -0.3035
12463SOL     OW39926   9.047   5.492   0.663  0.2846 -0.4125  0.0021
12463SOL    HW139927   9.028   5.483   0.757  1.1338  1.8539  0.4250
12463SOL    HW239928   8.999   5.420   0.622 -3.0337  0.6453  1.8091
12464SOL     OW39929   8.090   8.042   4.502 -0.2278  0.2654  0.5289
12464SOL    HW139930   8.085   8.039   4.407 -1.7498 -2.2462  0.6323
12464SOL    HW239931   8.165   7.986   4.524 -1.0462 -0.7204  0.8580
12465SOL     OW39932   8.419   9.888   9.951 -0.1488 -0.2206  0.6335
12465SOL    HW139933   8.421   9.941   9.871  0.1053 -2.1672 -0.6882
12465SOL    HW239934   8.507   9.850   9.956 -0.5958 -1.1973  1.1048
12466SOL     OW39935   1.406   6.158   3.385  0.2000 -0.2226  0.2073
12466SOL    HW139936   1.331   6.108   3.351 -0.1514 -0.2331  0.9774
12466SOL    HW239937   1.367   6.237   3.422  0.6126 -0.0438  0.2606
12467SOL     OW39938   3.824   8.886   1.205  0.0516 -0.0826  0.3193
12467SOL    HW139939   3.736   8.887   1.168 -0.1343  0.1332  0.7694
12467SOL    HW239940   3.877   8.937   1.143 -0.1916  0.0095  0.1871
12468SOL     OW39941   6.404   6.068   2.071 -0.4953 -0.0965 -0.5388
12468SOL    HW139942   6.383   6.014   2.147 -2.0472 -1.1061 -1.6330
12468SOL    HW239943   6.406   6.157   2.104 -3.2612 -0.3149  0.3280
12469SOL     OW39944   4.703   2.321   7.847 -0.5656 -0.2270 -0.1000
12469SOL    HW139945   4.755   2.373   7.785 -1.0499  0.3942  0.0139
12469SOL    HW239946   4.637   2.381   7.880  1.1746  0.1629  2.8682
12470SOL     OW39947   6.737   7.546   9.880 -0.0232  0.4469  0.1719
12470SOL    HW139948   6.729   7.504   9.794 -0.1653  1.7643 -0.4727
12470SOL    HW239949   6.787   7.484   9.932  0.8349  0.0168 -1.1295
12471SOL     OW39950   8.240   8.846   0.356 -0.1766 -0.0058 -1.1058
12471SOL    HW139951   8.245   8.849   0.260  1.6140  2.7125 -0.9919
12471SOL    HW239952   8.305   8.781   0.381 -0.2014 -0.2711 -1.7160
12472SOL     OW39953   4.918   0.153   9.204  0.3378 -0.2705  0.0334
12472SOL    HW139954   4.839   0.171   9.255 -0.4935  0.5639 -1.5107
12472SOL    HW239955   4.985   0.207   9.244 -0.3723  0.5758  0.1028
12473SOL     OW39956   6.416   9.364   6.962  0.2492 -0.0994 -0.0109
12473SOL    HW139957   6.503   9.391   6.992  0.0118  2.5240 -1.5816
12473SOL    HW239958   6.416   9.383   6.869 -1.6039 -1.2981 -0.2723
12474SOL     OW39959   7.740   7.176   2.333  0.2616 -0.3613  0.5634
12474SOL    HW139960   7.700   7.090   2.341 -0.1108 -0.2115  0.3177
12474SOL    HW239961   7.716   7.222   2.413  1.5691 -0.9383  1.3023
12475SOL     OW39962   4.012  10.054   4.915  0.2849  0.0227  0.3940
12475SOL    HW139963   4.086  10.043   4.976  0.8685  1.4834 -0.0237
12475SOL    HW239964   3.983  10.144   4.928 -0.6291 -0.1485 -0.3481
12476SOL     OW39965   2.906   3.868   5.459 -0.1277  0.3763 -0.6088
12476SOL    HW139966   2.956   3.789   5.440  1.0372  0.9823 -0.1503
12476SOL    HW239967   2.905   3.917   5.376 -1.9894 -0.7078 -1.2594
12477SOL     OW39968   8.879   2.849   7.421  0.2321 -0.0400 -0.3417
12477SOL    HW139969   8.962   2.857   7.375  0.9957 -0.1292  0.9765
12477SOL    HW239970   8.812   2.854   7.353  1.3572 -1.2159 -1.5512
12478SOL     OW39971   7.218   1.152  10.062  0.3230 -0.6437  0.2051
12478SOL    HW139972   7.215   1.119  10.151  0.6134 -0.4699  0.2802
12478SOL    HW239973   7.285   1.099  10.019  0.9500 -0.0127  0.3873
12479SOL     OW39974   9.989   8.298   3.879 -0.4536 -0.0968  0.3404
12479SOL    HW139975  10.055   8.284   3.947 -0.4169 -2.1005 -0.0957
12479SOL    HW239976  10.026   8.259   3.800 -0.8437  1.5083 -0.6692
12480SOL     OW39977   1.870   6.265   6.511  0.1350 -0.7683  0.4055
12480SOL    HW139978   1.781   6.293   6.490  0.1940 -0.0022  1.1864
12480SOL    HW239979   1.865   6.169   6.512 -0.9690 -0.7151  1.6862
12481SOL     OW39980   0.098   9.731   5.267  0.1156  0.1253  0.0652
12481SOL    HW139981   0.075   9.643   5.294 -2.0094  0.3629 -0.9178
12481SOL    HW239982   0.069   9.787   5.339  0.0678  0.1743  0.0073
12482SOL     OW39983   0.750   5.799   9.309  0.1205  0.1417  0.2206
12482SOL    HW139984   0.700   5.780   9.229 -1.4463 -0.0174  1.2317
12482SOL    HW239985   0.841   5.804   9.279 -0.4512  0.0964 -1.5816
12483SOL     OW39986   1.434   7.204   7.392  0.1177  0.0147 -0.1210
12483SOL    HW139987   1.475   7.118   7.382  0.0939  0.0071 -0.1580
12483SOL    HW239988   1.374   7.194   7.466 -0.5812 -0.2702 -0.7190
12484SOL     OW39989   7.421   0.652   5.806  0.4639 -0.1295 -0.3027
12484SOL    HW139990   7.418   0.723   5.871  2.8512 -0.7345  0.5232
12484SOL    HW239991   7.503   0.606   5.825 -0.2974 -2.1707 -1.8309
12485SOL     OW39992   9.496   2.465   0.251  0.2636 -0.2254 -0.2304
12485SOL    HW139993   9.581   2.504   0.271  0.2413  0.0131 -0.6052
12485SOL    HW239994   9.512   2.371   0.250  0.6641 -0.1500 -0.9862
12486SOL     OW39995   2.563   3.845   3.201 -0.1197  0.0662  0.1753
12486SOL    HW139996   2.634   3.909   3.207 -0.1403  0.1022  0.0502
12486SOL    HW239997   2.604   3.762   3.222  0.0211  0.0478 -0.1561
12487SOL     OW39998   1.008   2.673   3.789  0.4154  0.1272  0.0204
12487SOL    HW139999   1.039   2.745   3.844 -0.8164 -0.9129  2.1879
12487SOL    HW240000   0.939   2.712   3.735 -0.8371  0.4360  1.7784
12488SOL     OW40001   9.200   1.517   4.376  0.5644 -0.1739  0.6079
12488SOL    HW140002   9.163   1.503   4.463  0.8895 -0.1695  0.7495
12488SOL    HW240003   9.282   1.468   4.377  1.0227  0.5902  0.6157
12489SOL     OW40004   9.360   7.565   1.862 -0.2063  0.0740  0.1748
12489SOL    HW140005   9.426   7.524   1.806  0.6770  1.2397  0.3554
12489SOL    HW240006   9.289   7.501   1.864  0.2621 -0.5364 -1.2654
12490SOL     OW40007   7.492   9.980   9.628  0.1702  0.0559  0.5260
12490SOL    HW140008   7.420  10.044   9.620  1.1090  0.9884 -0.6370
12490SOL    HW240009   7.449   9.895   9.620 -0.9222  0.5822  0.6760
12491SOL     OW40010  10.101   2.200   7.731  0.1414 -0.3517 -0.4492
12491SOL    HW140011  10.032   2.185   7.666  1.5764 -0.2765 -2.0443
12491SOL    HW240012  10.151   2.119   7.730 -0.3729 -0.7045  1.2839
12492SOL     OW40013   7.675   7.173   9.924 -0.1814  0.6087 -0.3827
12492SOL    HW140014   7.650   7.085   9.952 -1.1748  1.2491  0.8044
12492SOL    HW240015   7.596   7.226   9.937  0.7051  1.8957 -0.0871
12493SOL     OW40016   3.527   5.201   5.530 -0.2723  0.5432  0.8118
12493SOL    HW140017   3.482   5.191   5.614 -0.8030 -1.4043  0.3093
12493SOL    HW240018   3.620   5.203   5.553 -0.4137 -0.0522  1.4419
12494SOL     OW40019   3.285   0.140   2.676  0.2960  0.2821  0.4436
12494SOL    HW140020   3.339   0.213   2.646  2.6277 -2.6813 -3.1583
12494SOL    HW240021   3.343   0.064   2.671 -3.0352 -2.4018  0.4223
12495SOL     OW40022   3.834   7.988   0.567 -0.0778 -0.3447 -0.1385
12495SOL    HW140023   3.753   7.975   0.617  0.3156 -1.3735  0.2356
12495SOL    HW240024   3.810   7.966   0.477 -0.7698  1.4448 -0.4244
12496SOL     OW40025   0.780   0.871   4.934 -0.0050  0.7507 -0.0435
12496SOL    HW140026   0.839   0.839   4.866  0.2360  0.6450  0.2153
12496SOL    HW240027   0.708   0.808   4.935 -0.7252  1.5313 -1.1841
12497SOL     OW40028   0.559   2.624   4.618 -0.4322  0.2166 -0.1866
12497SOL    HW140029   0.575   2.535   4.650  0.8107  0.4949 -0.0155
12497SOL    HW240030   0.466   2.639   4.636 -1.0383 -1.5764 -1.5503
12498SOL     OW40031   4.474   0.336   4.791  0.1213 -0.3541  0.1931
12498SOL    HW140032   4.448   0.322   4.700  0.6588  1.2957 -0.2273
12498SOL    HW240033   4.445   0.257   4.836  0.7984 -1.6781 -1.5986
12499SOL     OW40034   7.889   0.429   4.160 -0.0133  0.1004  0.6377
12499SOL    HW140035   7.947   0.423   4.236  0.1480  1.3354  0.6169
12499SOL    HW240036   7.816   0.371   4.181  0.3874 -0.1311  1.4067
12500SOL     OW40037   5.116   7.439   2.586 -0.2127 -0.1139 -0.1988
12500SOL    HW140038   5.115   7.503   2.657 -2.4277 -1.8243  1.3754
12500SOL    HW240039   5.208   7.414   2.577  0.5359  2.4576 -0.1276
12501SOL     OW40040   6.086  10.123   1.818 -0.0025 -0.2031 -0.1697
12501SOL    HW140041   6.086  10.043   1.871  0.0864 -0.8477 -1.1186
12501SOL    HW240042   6.029  10.101   1.744 -0.5661  0.8703 -0.0570
12502SOL     OW40043   5.697   9.720   0.173  0.0641 -0.6970 -0.0330
12502SOL    HW140044   5.737   9.795   0.128 -2.7128  0.6524 -0.3133
12502SOL    HW240045   5.754   9.705   0.249  0.4752  1.9085  0.2182
12503SOL     OW40046   5.558   8.260   9.634  0.0269  0.1271 -0.7066
12503SOL    HW140047   5.645   8.298   9.625  0.0776  0.8049  2.0107
12503SOL    HW240048   5.503   8.312   9.576  1.1346  0.7911 -1.1713
12504SOL     OW40049   9.956   9.332   5.564 -0.2354 -0.2843  0.1216
12504SOL    HW140050   9.984   9.251   5.606 -0.5014 -0.8594 -0.8174
12504SOL    HW240051   9.876   9.310   5.518 -1.4705  1.0117  1.5673
12505SOL     OW40052   8.225  10.018   8.231  0.0715 -0.0896 -0.4874
12505SOL    HW140053   8.258  10.050   8.147  0.0244  1.0652 -0.0738
12505SOL    HW240054   8.173  10.091   8.266 -0.8825 -0.9855  0.0076
12506SOL     OW40055   2.122   0.249   6.849 -0.0571 -0.4305 -0.4804
12506SOL    HW140056   2.104   0.343   6.850 -0.0458 -0.4389  0.3695
12506SOL    HW240057   2.080   0.215   6.928 -0.3250 -1.1923 -0.9384
12507SOL     OW40058   1.684   6.253   7.748  0.8474 -0.1709 -0.1178
12507SOL    HW140059   1.641   6.279   7.667  1.2630 -0.8565 -0.5600
12507SOL    HW240060   1.612   6.222   7.804  0.5469  0.4186 -0.1686
12508SOL     OW40061   3.015   1.829   1.643  0.3582 -0.0189 -0.1356
12508SOL    HW140062   3.028   1.803   1.734  2.4029  0.7466 -0.1797
12508SOL    HW240063   3.082   1.781   1.594 -1.4428 -1.2827 -1.4084
12509SOL     OW40064   4.643   4.838   5.130  0.0665  0.8455  0.2271
12509SOL    HW140065   4.555   4.806   5.115  0.2418 -1.1520  2.9788
12509SOL    HW240066   4.634   4.933   5.133 -1.9571  0.6701  0.3007
12510SOL     OW40067   9.333   1.745   0.960 -0.0817  0.1585 -0.4370
12510SOL    HW140068   9.363   1.759   1.049 -0.7244 -0.6310 -0.0945
12510SOL    HW240069   9.254   1.799   0.953 -2.3075 -2.8282  0.7424
12511SOL     OW40070   4.243   6.145   0.017  0.5107  0.3906 -0.0386
12511SOL    HW140071   4.259   6.147  -0.077  0.7104 -0.0307 -0.0125
12511SOL    HW240072   4.330   6.142   0.056  0.4210  0.3398  0.1560
12512SOL     OW40073   2.760   9.869   2.765  0.1578 -0.0282  0.6493
12512SOL    HW140074   2.844   9.824   2.777 -0.4887 -1.3830  0.2343
12512SOL    HW240075   2.774   9.956   2.803  1.5261 -0.4794  1.2341
12513SOL     OW40076   0.354   1.403   2.693 -0.3241  0.1892 -0.2781
12513SOL    HW140077   0.297   1.467   2.737  1.2411  1.7007 -0.4326
12513SOL    HW240078   0.442   1.439   2.701  0.4984 -1.6045 -0.9984
12514SOL     OW40079   8.360   0.661   9.513  0.2481 -0.5063 -0.0495
12514SOL    HW140080   8.413   0.677   9.591 -1.1809  0.6021  0.7191
12514SOL    HW240081   8.398   0.718   9.446  2.0856 -2.1703 -0.4716
12515SOL     OW40082   7.824   6.693   6.706 -0.6414  0.1368  0.2745
12515SOL    HW140083   7.776   6.730   6.631 -0.6645 -0.4207  0.0146
12515SOL    HW240084   7.852   6.770   6.756  0.9367  0.5937 -1.2637
12516SOL     OW40085   8.683   6.662   2.097  0.2081 -0.1988 -0.7100
12516SOL    HW140086   8.764   6.624   2.063 -0.1957 -0.7719 -1.0443
12516SOL    HW240087   8.615   6.629   2.038 -0.5524 -1.4465  0.8336
12517SOL     OW40088   0.586   3.886   4.969  0.6989  0.1267  0.6769
12517SOL    HW140089   0.669   3.840   4.958  0.0650 -1.0156  0.6284
12517SOL    HW240090   0.600   3.941   5.046  2.0294  1.1670 -0.2687
12518SOL     OW40091   2.000   0.936   9.268  0.3050  0.0339 -0.3826
12518SOL    HW140092   1.974   0.901   9.182 -4.1265  2.9492 -0.3598
12518SOL    HW240093   2.025   1.026   9.250  0.9555  0.1664  1.1554
12519SOL     OW40094   6.816   2.860   2.337  0.3778  0.0487  0.0638
12519SOL    HW140095   6.821   2.949   2.301 -1.2059  0.5433  1.0316
12519SOL    HW240096   6.821   2.872   2.431 -2.9529 -0.5818  0.3955
12520SOL     OW40097   6.132   6.632   9.913 -0.4049  0.2241  0.1144
12520SOL    HW140098   6.198   6.674   9.858 -0.4245  2.3588  1.6450
12520SOL    HW240099   6.182   6.593   9.985 -0.5515 -0.7306 -0.3038
12521SOL     OW40100   4.721   1.310  10.088  0.4899 -0.3034  0.8761
12521SOL    HW140101   4.812   1.281  10.084  0.8720  0.9889 -1.0050
12521SOL    HW240102   4.676   1.255  10.024  0.3270  0.2605  0.5016
12522SOL     OW40103   6.353   3.626   4.149  0.1574 -0.2152  0.8356
12522SOL    HW140104   6.362   3.719   4.130  0.6371 -0.2382  0.9520
12522SOL    HW240105   6.441   3.590   4.138 -0.0259 -0.6580  0.7773
12523SOL     OW40106   9.727   3.763   0.517 -0.3836 -0.1864 -0.0820
12523SOL    HW140107   9.648   3.720   0.485  1.3152 -2.3672 -1.6068
12523SOL    HW240108   9.725   3.850   0.478 -1.8946 -0.3235 -0.3263
12524SOL     OW40109   8.455   7.790   0.882  0.0760 -0.9345  0.0875
12524SOL    HW140110   8.470   7.869   0.831 -0.1175 -1.5831 -0.9868
12524SOL    HW240111   8.492   7.810   0.968  2.6893 -0.7586 -1.0530
12525SOL     OW40112   7.248   3.393   8.647  0.0552 -0.3266  0.0201
12525SOL    HW140113   7.255   3.432   8.561 -1.6022  1.5656  0.6980
12525SOL    HW240114   7.338   3.383   8.677  0.5730  0.9766 -1.0733
12526SOL     OW40115   7.750   3.808   0.635  0.2498 -0.4408  0.4755
12526SOL    HW140116   7.765   3.718   0.606 -0.8694  0.0339 -1.7274
12526SOL    HW240117   7.809   3.861   0.581 -0.3194  0.2893  0.5585
12527SOL     OW40118   5.466   1.473   8.742 -0.2438  0.0483 -0.1490
12527SOL    HW140119   5.447   1.565   8.726 -0.8223 -0.1057 -0.3588
12527SOL    HW240120   5.549   1.473   8.790  0.1875  0.6373 -0.8906
12528SOL     OW40121   6.548   2.877   9.700 -1.2103 -0.7064  0.3965
12528SOL    HW140122   6.596   2.869   9.783 -0.8229 -0.4234  0.2034
12528SOL    HW240123   6.482   2.944   9.717  0.4757  1.1633 -0.2470
12529SOL     OW40124   9.783   1.189   3.563 -0.6375 -0.1669  0.2507
12529SOL    HW140125   9.754   1.137   3.488 -0.1131  1.3662 -1.0399
12529SOL    HW240126   9.713   1.179   3.628 -0.4519 -2.5959  0.0995
12530SOL     OW40127   7.818   1.053   8.933 -0.0852 -0.1400  0.1690
12530SOL    HW140128   7.731   1.066   8.896 -0.7068 -0.6080  1.4378
12530SOL    HW240129   7.804   1.053   9.028  1.5515  1.5997  0.4319
12531SOL     OW40130   2.785   6.453   5.557 -0.4747 -0.6823  0.3675
12531SOL    HW140131   2.727   6.393   5.604 -0.7592 -0.6525  0.0557
12531SOL    HW240132   2.861   6.464   5.615 -0.7956 -0.6943  0.7918
12532SOL     OW40133   3.344   7.006  10.129 -0.0917 -0.4636 -0.6861
12532SOL    HW140134   3.386   6.920  10.124 -1.0803 -0.9087 -1.2789
12532SOL    HW240135   3.291   7.002  10.209  0.2985 -0.2063 -0.4118
12533SOL     OW40136   3.868   4.237   0.254  0.1778 -0.3083  0.3180
12533SOL    HW140137   3.853   4.147   0.283 -0.4413 -0.2890  0.0630
12533SOL    HW240138   3.913   4.278   0.328 -2.2502  0.0018  1.6879
12534SOL     OW40139   2.173   0.590   3.901 -0.9582 -0.3196 -0.4436
12534SOL    HW140140   2.260   0.586   3.940 -0.3148 -0.3971 -1.8534
12534SOL    HW240141   2.169   0.514   3.843 -1.6881  0.0968 -0.9515
12535SOL     OW40142   9.938   8.989   0.488  0.6679  0.2473 -0.1302
12535SOL    HW140143   9.983   8.946   0.416  1.8170  1.6561 -0.2854
12535SOL    HW240144   9.986   9.071   0.501  0.0027  0.3828  1.7135
12536SOL     OW40145   4.473   1.285   0.974  0.3225 -0.1930 -0.5824
12536SOL    HW140146   4.462   1.336   0.893 -0.9645 -1.3667 -1.1572
12536SOL    HW240147   4.564   1.302   1.000 -0.3833  3.3789 -0.0808
12537SOL     OW40148   3.220   7.490   4.498 -0.0091 -0.1453  0.6385
12537SOL    HW140149   3.288   7.483   4.430  0.0310  1.5245  0.4946
12537SOL    HW240150   3.206   7.400   4.527 -0.9566 -1.0625 -2.4825
12538SOL     OW40151   8.355   5.435   0.795  0.0734  0.3547  0.2182
12538SOL    HW140152   8.328   5.393   0.713  2.4248 -0.6436 -0.0708
12538SOL    HW240153   8.334   5.528   0.782 -2.9672 -0.3300 -0.0521
12539SOL     OW40154   1.385   7.277   6.564  0.2122 -0.2853 -0.2346
12539SOL    HW140155   1.401   7.326   6.484 -0.1100 -1.6187 -1.1371
12539SOL    HW240156   1.466   7.229   6.580  0.6287  0.7333  0.8045
12540SOL     OW40157   3.436   0.304   3.717 -0.3521 -0.0364  0.0157
12540SOL    HW140158   3.492   0.227   3.708  0.3739  0.6031 -1.1788
12540SOL    HW240159   3.448   0.333   3.807  0.4659 -0.5052  0.0595
12541SOL     OW40160   6.231   8.988   3.317  0.0445  0.2006 -0.4899
12541SOL    HW140161   6.143   9.014   3.291 -0.3427 -2.0296 -1.4786
12541SOL    HW240162   6.222   8.962   3.409  0.0829  1.7978 -0.0186
12542SOL     OW40163   1.425   4.366   8.831 -0.1382 -0.2231  0.2473
12542SOL    HW140164   1.518   4.386   8.833  0.0088 -0.3126 -2.6988
12542SOL    HW240165   1.382   4.452   8.824 -0.1222 -0.2733 -0.6215
12543SOL     OW40166   0.704   0.512   7.676  0.1490 -0.0528 -0.2809
12543SOL    HW140167   0.728   0.557   7.757 -0.2042  1.7259 -1.1629
12543SOL    HW240168   0.641   0.446   7.704 -1.6857  2.0239  0.6205
12544SOL     OW40169   7.519   9.430   7.092  0.1639 -0.2623 -0.5792
12544SOL    HW140170   7.478   9.456   7.175  1.5221 -1.2658  0.4425
12544SOL    HW240171   7.518   9.509   7.039  0.5534  0.8038  0.9528
12545SOL     OW40172   9.753   8.616   9.248  0.2752  1.0180  0.3913
12545SOL    HW140173   9.781   8.551   9.183 -0.5207  0.6679  0.3868
12545SOL    HW240174   9.828   8.627   9.306 -0.1729 -1.2307  1.4535
12546SOL     OW40175   5.907   9.493   2.721 -1.0130  0.0532  0.2375
12546SOL    HW140176   5.857   9.440   2.659 -0.5229  1.7903 -1.6846
12546SOL    HW240177   5.842   9.552   2.758 -0.8480  0.6802 -0.4654
12547SOL     OW40178   4.110  10.196   9.650 -0.2237 -0.4051  0.4397
12547SOL    HW140179   4.198  10.159   9.657 -0.1908 -0.3069  0.5446
12547SOL    HW240180   4.065  10.167   9.729 -0.2273 -0.3007  0.4766
12548SOL     OW40181   3.481   6.312   9.357  0.1778 -0.1552 -0.3086
12548SOL    HW140182   3.389   6.298   9.334  0.3039  1.8407 -2.2030
12548SOL    HW240183   3.530   6.264   9.291  0.4956  1.4713 -1.2879
12549SOL     OW40184   0.540   0.724   9.136 -0.1248 -0.3992 -0.0295
12549SOL    HW140185   0.445   0.724   9.148 -0.3625  0.0705 -1.8321
12549SOL    HW240186   0.568   0.638   9.165 -0.9669 -0.1760  1.5093
12550SOL     OW40187   5.160   2.545   0.088  0.3820  0.1494  0.1438
12550SOL    HW140188   5.182   2.636   0.069  0.1694  0.7234  2.5197
12550SOL    HW240189   5.192   2.531   0.177  1.4195 -2.4410 -0.5818
12551SOL     OW40190   5.580   0.456   9.805 -0.2789 -0.3736  0.2864
12551SOL    HW140191   5.495   0.464   9.848 -0.8652  0.2902 -0.9732
12551SOL    HW240192   5.564   0.397   9.732  0.5101 -0.8050  0.4574
12552SOL     OW40193   7.993   2.811   0.108  0.6629 -0.1484  0.4210
12552SOL    HW140194   7.921   2.773   0.057  1.3644  0.5354 -1.1286
12552SOL    HW240195   7.959   2.816   0.197 -0.3600 -2.0313  0.1804
12553SOL     OW40196   0.287   6.170   2.625 -0.0641 -0.5225 -0.2491
12553SOL    HW140197   0.362   6.220   2.594 -0.1312 -0.7881 -0.8572
12553SOL    HW240198   0.324   6.091   2.664 -0.0253 -0.6934 -0.6252
12554SOL     OW40199   2.191   6.875   7.236 -1.1325 -0.0843  0.3418
12554SOL    HW140200   2.233   6.960   7.221  1.3183 -1.4368 -0.5725
12554SOL    HW240201   2.117   6.875   7.175  0.2847  0.4226 -1.4517
12555SOL     OW40202   6.405   9.325   2.702  0.1186  0.2492  0.0553
12555SOL    HW140203   6.378   9.403   2.653 -1.3980 -0.3276 -0.0531
12555SOL    HW240204   6.359   9.331   2.785 -1.0523 -1.1795 -0.4622
12556SOL     OW40205   1.672   0.155   4.079 -0.4831 -0.1948  0.2816
12556SOL    HW140206   1.682   0.248   4.103  0.2754 -0.1923 -0.0436
12556SOL    HW240207   1.742   0.111   4.126  0.0328 -0.4097 -0.6864
12557SOL     OW40208   8.381   2.007   1.942  0.1521  0.1276 -0.4867
12557SOL    HW140209   8.393   1.952   2.020 -1.3547  0.0479 -0.2908
12557SOL    HW240210   8.388   2.097   1.976  2.2991  0.0995 -0.7553
12558SOL     OW40211  10.083   3.684   6.393 -0.5636 -0.2673 -0.8322
12558SOL    HW140212  10.078   3.683   6.297 -0.6224 -2.9806 -0.8282
12558SOL    HW240213  10.031   3.609   6.421 -0.6711  0.5923  1.3406
12559SOL     OW40214   2.810   8.733   8.325  0.3903  0.0225 -0.3818
12559SOL    HW140215   2.838   8.805   8.382 -0.6248 -0.0885  0.2773
12559SOL    HW240216   2.888   8.679   8.316  1.2704  1.3785 -1.1709
12560SOL     OW40217   4.081   2.753   9.721 -0.0783 -0.2786 -0.4748
12560SOL    HW140218   4.008   2.790   9.770 -0.8408 -0.9062 -1.1231
12560SOL    HW240219   4.095   2.813   9.648 -0.7863 -0.8247 -1.0690
12561SOL     OW40220   6.174   6.817   6.546  0.3896 -0.7488  0.1979
12561SOL    HW140221   6.173   6.906   6.580  1.1100 -0.3482 -0.8153
12561SOL    HW240222   6.165   6.827   6.452 -3.1576 -1.9130  0.3322
12562SOL     OW40223   4.031   0.509   6.606  0.2322 -0.3673  0.1613
12562SOL    HW140224   4.092   0.582   6.595 -0.1760 -0.0407  0.0682
12562SOL    HW240225   3.984   0.504   6.522  0.2978 -0.7734  0.1459
12563SOL     OW40226   3.543   7.146   5.489 -0.0925 -0.5913 -0.0560
12563SOL    HW140227   3.503   7.226   5.523 -0.9342 -0.5880 -1.0361
12563SOL    HW240228   3.621   7.177   5.443 -0.2867 -0.3456 -0.2271
12564SOL     OW40229   4.685   1.924   5.810 -0.3127  0.0621 -0.0709
12564SOL    HW140230   4.725   2.007   5.784  1.9006 -0.9968 -0.1308
12564SOL    HW240231   4.632   1.945   5.886  1.9498  1.1505  1.2412
12565SOL     OW40232   8.471   7.485   6.962 -0.1092  0.3657 -0.0427
12565SOL    HW140233   8.450   7.569   7.002 -1.4175 -0.4432  1.0541
12565SOL    HW240234   8.417   7.481   6.883 -1.8284 -0.3860  1.1251
12566SOL     OW40235   8.549   6.391   9.222 -0.3208  0.0614 -0.1439
12566SOL    HW140236   8.546   6.347   9.307  0.7360 -0.1049 -0.1881
12566SOL    HW240237   8.528   6.322   9.159  0.6516 -0.2345 -0.1560
12567SOL     OW40238   4.457   2.474   3.827  0.0437  0.1745 -0.2057
12567SOL    HW140239   4.456   2.550   3.767  1.2150  0.3559 -0.0010
12567SOL    HW240240   4.443   2.512   3.913 -2.4020 -0.1636 -0.4164
12568SOL     OW40241   0.617   7.836   8.212 -0.2398  0.3382 -0.7686
12568SOL    HW140242   0.563   7.879   8.147  0.0998 -0.7009 -1.7420
12568SOL    HW240243   0.576   7.858   8.296  0.4632  3.3422 -1.1343
12569SOL     OW40244   7.739   3.753   1.292 -0.2626 -0.2834 -0.0288
12569SOL    HW140245   7.658   3.762   1.242  0.1176  0.8823 -0.4678
12569SOL    HW240246   7.732   3.669   1.336  0.0049 -2.0978 -3.2529
12570SOL     OW40247   2.001   6.255   9.962 -0.4305  0.0177  0.1265
12570SOL    HW140248   1.946   6.225   9.889 -1.2520  2.0721 -0.1231
12570SOL    HW240249   2.054   6.325   9.925  0.3189 -0.0354  1.0955
12571SOL     OW40250   0.994   9.327   6.058 -0.1468 -0.4779 -0.2900
12571SOL    HW140251   0.927   9.259   6.058 -0.5283 -0.1235  1.1836
12571SOL    HW240252   0.973   9.381   6.134  0.8792  0.5678 -0.7300
12572SOL     OW40253   5.750   1.062   4.501  0.1269 -0.8254  0.2939
12572SOL    HW140254   5.683   1.105   4.553 -0.1289 -0.4622 -0.3261
12572SOL    HW240255   5.771   0.982   4.549  1.3811  0.5092  2.0256
12573SOL     OW40256   3.488   7.978   9.902 -0.1689  0.2027  0.0121
12573SOL    HW140257   3.501   7.924   9.980 -0.2517 -0.1611 -0.2256
12573SOL    HW240258   3.442   7.920   9.840 -0.8938  0.7610  0.0183
12574SOL     OW40259   8.699   0.699   0.522 -0.1749 -0.1841  0.1405
12574SOL    HW140260   8.762   0.695   0.450 -0.4585 -0.9244 -0.0691
12574SOL    HW240261   8.703   0.790   0.553  1.1437 -0.2702  0.2594
12575SOL     OW40262   0.452   9.977   5.282 -0.2205  0.0923 -0.1010
12575SOL    HW140263   0.379   9.972   5.220 -0.8334  1.4793  0.4852
12575SOL    HW240264   0.500   9.895   5.269 -1.1566 -0.2753 -1.3866
12576SOL     OW40265   3.297   1.838   5.903  0.1497 -0.5789  0.2802
12576SOL    HW140266   3.326   1.915   5.951  0.5609 -0.0823 -0.7537
12576SOL    HW240267   3.211   1.862   5.868  1.3615  0.3797 -2.1815
12577SOL     OW40268   8.429   3.414   5.096  0.5338 -0.5453 -0.6025
12577SOL    HW140269   8.446   3.364   5.176  0.1630  0.4858  0.1464
12577SOL    HW240270   8.350   3.465   5.116  0.5131 -0.1750 -1.5761
12578SOL     OW40271   6.826   1.520   7.935 -0.4417  0.0919  0.3790
12578SOL    HW140272   6.917   1.545   7.915 -0.7175  0.8702  0.0924
12578SOL    HW240273   6.773   1.585   7.890 -1.1694 -0.8388 -0.1023
12579SOL     OW40274   3.264   9.429   8.594  0.2503  0.5900  0.4330
12579SOL    HW140275   3.186   9.433   8.649 -0.3019  1.6814 -0.4163
12579SOL    HW240276   3.303   9.516   8.602  2.4730 -0.5179  2.3876
12580SOL     OW40277   4.056   3.190   5.581  0.1689 -0.0229 -0.3034
12580SOL    HW140278   4.023   3.237   5.657 -0.7443  0.0182 -0.7271
12580SOL    HW240279   4.038   3.248   5.507 -1.9249 -1.4818 -0.9699
12581SOL     OW40280   5.651   1.770   5.321 -0.0040  0.1483  0.2320
12581SOL    HW140281   5.744   1.781   5.338  0.5564 -1.7068 -1.4784
12581SOL    HW240282   5.642   1.680   5.291 -2.5770 -0.1374  1.6925
12582SOL     OW40283   5.862   4.089  10.101  0.0150 -0.6583 -0.3635
12582SOL    HW140284   5.915   4.102  10.022  1.7134  2.7388  1.2297
12582SOL    HW240285   5.793   4.154  10.094  0.7876  0.3739  1.4277
12583SOL     OW40286   7.687   6.376   3.922  0.6554 -0.5243  0.3261
12583SOL    HW140287   7.594   6.383   3.946  0.4023 -0.0985 -0.7626
12583SOL    HW240288   7.728   6.452   3.963  0.3265 -0.1015 -0.1291
12584SOL     OW40289   2.962   8.986   8.435  0.6201 -0.1019 -0.1253
12584SOL    HW140290   3.022   9.058   8.414  1.0005 -0.7076 -1.1406
12584SOL    HW240291   2.875   9.025   8.431  0.6980 -0.1330 -2.6172
12585SOL     OW40292   7.417   3.037   1.008 -0.7520 -0.2970  0.1128
12585SOL    HW140293   7.468   3.113   0.980 -0.1017 -1.4959 -2.0449
12585SOL    HW240294   7.380   3.063   1.092 -0.2579  2.2784 -0.4312
12586SOL     OW40295   6.424   6.075   9.216  0.3227  0.0161  0.2160
12586SOL    HW140296   6.403   6.090   9.124 -0.0024 -3.5592 -0.3596
12586SOL    HW240297   6.519   6.061   9.217  0.2002 -0.8127  0.2961
12587SOL     OW40298   9.264   5.280   8.930  0.1832  0.0319 -0.0329
12587SOL    HW140299   9.238   5.289   8.838 -0.7332 -1.1751  0.0841
12587SOL    HW240300   9.343   5.333   8.939 -0.1596  0.7798 -1.3304
12588SOL     OW40301   9.274   6.479   3.394  0.1406 -0.0980  0.9145
12588SOL    HW140302   9.353   6.493   3.446  1.0712 -0.8669 -0.2652
12588SOL    HW240303   9.221   6.419   3.448  0.6494 -0.1044  1.4162
12589SOL     OW40304   6.021   2.074   9.153 -0.0959 -0.0838  0.2795
12589SOL    HW140305   6.064   2.011   9.211  2.5223  2.4965  1.2742
12589SOL    HW240306   6.088   2.139   9.135 -2.3684  1.7862 -1.7046
12590SOL     OW40307   9.431   1.994   9.417  0.0416 -0.3650 -0.4227
12590SOL    HW140308   9.430   2.000   9.512 -0.6513 -0.1714 -0.4369
12590SOL    HW240309   9.380   2.070   9.388 -0.4867 -0.9019 -0.9154
12591SOL     OW40310   1.352   3.775   3.226  0.1957 -0.1616 -0.6470
12591SOL    HW140311   1.361   3.699   3.169 -2.0557  0.3070 -1.6810
12591SOL    HW240312   1.280   3.754   3.284  0.1052  0.8413 -0.3821
12592SOL     OW40313   2.146   6.112   1.751 -0.3289 -0.2595 -0.3893
12592SOL    HW140314   2.099   6.163   1.686 -1.5956 -0.5540  0.2768
12592SOL    HW240315   2.111   6.142   1.835 -1.6116 -2.6999 -0.0118
12593SOL     OW40316   4.007   5.410   2.161 -0.1347  0.0501 -0.4020
12593SOL    HW140317   4.078   5.473   2.149  1.8382 -2.3857 -1.9777
12593SOL    HW240318   3.963   5.408   2.076  0.1141 -1.0520 -0.5075
12594SOL     OW40319   5.138   0.254   4.851 -0.7574 -0.1172 -0.1038
12594SOL    HW140320   5.052   0.294   4.839 -1.1834 -1.1777 -0.8035
12594SOL    HW240321   5.126   0.164   4.818  0.0523 -0.9314  1.7435
12595SOL     OW40322   4.868   6.524   2.821  0.0128  0.1555  0.6754
12595SOL    HW140323   4.873   6.494   2.730  0.6318 -0.0852  0.7870
12595SOL    HW240324   4.815   6.457   2.865 -0.2802  0.2673  0.4950
12596SOL     OW40325   9.508   7.738   5.827 -0.0711  0.1599  0.2506
12596SOL    HW140326   9.462   7.815   5.795 -0.1021 -0.0011 -0.1018
12596SOL    HW240327   9.591   7.737   5.778 -0.2819 -0.2974 -0.1099
12597SOL     OW40328   0.500   4.576   0.296  0.0388 -0.1462 -0.2024
12597SOL    HW140329   0.479   4.524   0.219  1.5172 -1.6324  0.3604
12597SOL    HW240330   0.508   4.665   0.264  2.1497 -0.9577 -2.0920
12598SOL     OW40331   3.906   2.021  10.120  0.3195 -0.1366  0.0125
12598SOL    HW140332   3.844   1.979  10.179  1.0724  0.3014  1.1354
12598SOL    HW240333   3.940   2.096  10.170  2.0467 -0.6031 -0.4104
12599SOL     OW40334   0.464   9.732   2.335  0.5461  0.3355 -0.5565
12599SOL    HW140335   0.477   9.703   2.245 -0.3156  1.8551 -1.1767
12599SOL    HW240336   0.532   9.798   2.349  2.4002 -1.7880  0.8024
12600SOL     OW40337   6.365   7.730   9.407  0.3028 -0.4870  0.2220
12600SOL    HW140338   6.381   7.780   9.487  2.5707 -0.2367 -0.3539
12600SOL    HW240339   6.291   7.773   9.366 -0.8480 -0.5780  2.1578
12601SOL     OW40340   4.772   7.961   0.433 -0.1580 -0.1509 -0.2769
12601SOL    HW140341   4.839   8.009   0.385 -1.1920  1.3091 -0.3208
12601SOL    HW240342   4.736   8.026   0.494  0.3113 -1.6457  1.6311
12602SOL     OW40343   0.202   0.680   4.140 -0.1297 -0.1791  0.1421
12602SOL    HW140344   0.191   0.624   4.216  1.2041 -1.9760 -0.9562
12602SOL    HW240345   0.287   0.722   4.154 -1.4031  2.1957  1.2925
12603SOL     OW40346   4.027   5.093   6.619  0.2803  0.4790  0.0641
12603SOL    HW140347   3.970   5.067   6.691  2.5565  1.5049  2.3699
12603SOL    HW240348   4.073   5.013   6.594 -0.9758 -0.0124 -0.7174
12604SOL     OW40349   8.153   4.573   5.514 -0.3416 -0.0867  0.7690
12604SOL    HW140350   8.086   4.592   5.580 -0.1432 -0.8191  1.1771
12604SOL    HW240351   8.185   4.486   5.536  0.4130  0.0663  0.2857
12605SOL     OW40352   8.710   7.777   6.406 -0.8523  0.5259  0.0578
12605SOL    HW140353   8.629   7.800   6.361 -0.7257  0.3584 -0.2586
12605SOL    HW240354   8.772   7.759   6.335 -0.5829  0.5043  0.2981
12606SOL     OW40355   4.587   1.401   4.241  0.1007 -0.0371  0.8614
12606SOL    HW140356   4.651   1.447   4.296 -0.9001  1.9846  0.3682
12606SOL    HW240357   4.534   1.351   4.303  0.2594  0.6405  1.5548
12607SOL     OW40358   4.106   0.854   5.450  0.3530  0.3937  0.2882
12607SOL    HW140359   4.167   0.785   5.423 -0.7441 -0.5227  0.1356
12607SOL    HW240360   4.163   0.925   5.481  1.6344  0.8565 -2.8955
12608SOL     OW40361   8.590   3.419   9.330  0.0447 -0.5795  0.6487
12608SOL    HW140362   8.554   3.496   9.374 -0.9634 -1.1593  0.8571
12608SOL    HW240363   8.684   3.424   9.346 -0.1537 -0.0322  1.6683
12609SOL     OW40364   2.849   9.786   0.157 -0.5143 -0.1862 -0.1612
12609SOL    HW140365   2.843   9.865   0.103 -0.2269  0.8624  1.3049
12609SOL    HW240366   2.943   9.770   0.166 -0.5728 -0.9008 -0.7186
12610SOL     OW40367   1.053   4.698   4.403 -0.5124 -0.5091  0.1118
12610SOL    HW140368   1.072   4.791   4.417  0.0455 -0.7476  0.9367
12610SOL    HW240369   1.135   4.661   4.371 -1.0556 -0.4932 -1.3411
12611SOL     OW40370   1.448   2.068   7.019  0.2031 -0.0963 -0.2479
12611SOL    HW140371   1.502   2.120   6.959 -0.9786 -0.7516 -1.9084
12611SOL    HW240372   1.459   2.111   7.104  1.3656  1.2625 -1.0572
12612SOL     OW40373   9.511   0.597   8.814 -0.5010  0.0962 -0.2233
12612SOL    HW140374   9.606   0.596   8.828 -0.6516 -0.6522  0.8968
12612SOL    HW240375   9.481   0.512   8.849 -1.3503 -0.4796 -2.3024
12613SOL     OW40376   5.708   7.795   8.483 -0.0162  0.1673  0.3512
12613SOL    HW140377   5.689   7.784   8.390 -1.7447  1.4128  0.5495
12613SOL    HW240378   5.632   7.840   8.519 -0.3389 -2.2043  2.8025
12614SOL     OW40379   5.234   2.092   2.389  0.4233 -0.2334 -0.5205
12614SOL    HW140380   5.195   2.140   2.316  1.0124  0.4575 -0.3857
12614SOL    HW240381   5.301   2.151   2.424 -1.7333  0.6365  2.3717
12615SOL     OW40382   9.584   0.324   4.932  0.3845 -0.0809 -0.5560
12615SOL    HW140383   9.568   0.229   4.936 -1.7516  0.3337  1.9017
12615SOL    HW240384   9.547   0.358   5.013  2.0029  2.7686 -0.9508
12616SOL     OW40385   3.172   0.901   2.251 -0.6636 -0.8802 -0.2803
12616SOL    HW140386   3.098   0.945   2.208 -0.7519 -0.7414  0.0151
12616SOL    HW240387   3.248   0.955   2.230 -0.5061 -1.4706 -1.2861
12617SOL     OW40388   6.959   3.910   3.290  0.2891  0.1805  0.0139
12617SOL    HW140389   6.928   3.864   3.368 -0.3224  1.2268  0.4017
12617SOL    HW240390   6.879   3.938   3.245  0.6076 -1.9645 -1.9425
12618SOL     OW40391   4.457   6.598   1.721 -0.8987  0.0598  0.5701
12618SOL    HW140392   4.523   6.540   1.682 -0.3817  0.4826  0.8016
12618SOL    HW240393   4.402   6.624   1.647 -1.3594 -1.0143  0.5285
12619SOL     OW40394   9.768   6.206   3.852 -0.0780 -0.9076 -0.0276
12619SOL    HW140395   9.673   6.205   3.840 -0.1720  2.1969  0.0678
12619SOL    HW240396   9.783   6.148   3.927 -2.3682  1.9553  2.7722
12620SOL     OW40397   2.526   1.376   9.501  0.2321  0.7214 -0.2667
12620SOL    HW140398   2.471   1.454   9.497 -2.1557 -0.9099 -0.4267
12620SOL    HW240399   2.473   1.311   9.547  1.0950 -1.6350 -2.4739
12621SOL     OW40400   2.928   4.607   5.447 -0.0099  0.4725  0.3685
12621SOL    HW140401   2.952   4.522   5.483  0.1872  0.7825  0.9854
12621SOL    HW240402   2.836   4.599   5.423  0.5506 -0.5647 -1.5136
12622SOL     OW40403   1.616   4.523   9.018  0.4903  0.6542 -0.1229
12622SOL    HW140404   1.585   4.520   9.109 -1.0877 -2.3674 -0.6877
12622SOL    HW240405   1.554   4.582   8.975 -0.9031 -0.6743  0.0307
12623SOL     OW40406   6.849   5.490   5.124  0.2585  0.3256  0.3674
12623SOL    HW140407   6.807   5.555   5.181 -1.2907  0.8826 -1.3664
12623SOL    HW240408   6.783   5.422   5.112  0.8168 -0.1106 -0.2552
12624SOL     OW40409   1.870   5.832   3.998  0.0942  0.4033 -0.0427
12624SOL    HW140410   1.835   5.805   4.082  2.2380  1.8441  1.3661
12624SOL    HW240411   1.839   5.766   3.936  0.5737 -2.0679  2.2986
12625SOL     OW40412   4.281   8.334   1.131  0.1465 -0.0388 -0.7365
12625SOL    HW140413   4.338   8.303   1.201 -1.6000 -1.1145  0.2274
12625SOL    HW240414   4.262   8.425   1.153 -1.7523 -0.8485  1.1265
12626SOL     OW40415   5.404   4.140   3.849  0.1203  0.3264  0.2913
12626SOL    HW140416   5.404   4.102   3.761 -3.0881  0.0529  0.3816
12626SOL    HW240417   5.485   4.107   3.889 -0.5934 -3.2380 -1.0092
12627SOL     OW40418   0.017   2.069   0.328  0.0760 -1.0538  0.1132
12627SOL    HW140419  -0.077   2.083   0.333  0.2129  0.3831 -1.0947
12627SOL    HW240420   0.032   2.032   0.240  0.5152 -2.4431  0.7447
12628SOL     OW40421   3.489   7.504   1.845  0.4836  0.3271  0.0929
12628SOL    HW140422   3.497   7.449   1.923  0.2585 -1.9547 -1.4277
12628SOL    HW240423   3.418   7.565   1.865  2.4364  1.7923  2.7890
12629SOL     OW40424   7.047   2.456   3.111 -0.0879 -0.3491 -0.0394
12629SOL    HW140425   7.113   2.465   3.043 -0.3708 -0.1769 -0.2940
12629SOL    HW240426   7.090   2.406   3.180  0.1804 -0.5831 -0.3725
12630SOL     OW40427   3.412   0.386   2.603  0.0726  0.4437 -0.0939
12630SOL    HW140428   3.462   0.446   2.549  0.7008  1.4544  1.5867
12630SOL    HW240429   3.370   0.441   2.669  0.3486 -0.9025  1.2403
12631SOL     OW40430   9.671   8.843   1.635 -0.1602 -0.1345 -0.0081
12631SOL    HW140431   9.666   8.802   1.721  2.1594  0.4161  0.4441
12631SOL    HW240432   9.765   8.858   1.621 -0.6725  1.8795 -1.6258
12632SOL     OW40433   0.840   2.195   0.415  0.5263 -0.1779  0.1823
12632SOL    HW140434   0.768   2.248   0.380 -0.8208  0.0362  3.1159
12632SOL    HW240435   0.863   2.238   0.497  2.6357 -1.4583  0.2876
12633SOL     OW40436   6.721   8.277   4.887  0.0328  0.2216  0.0028
12633SOL    HW140437   6.736   8.370   4.900 -0.5050  0.3263 -0.0801
12633SOL    HW240438   6.802   8.235   4.914  0.2901  0.7172  0.0079
12634SOL     OW40439   8.479   2.616   7.551  0.5500  0.3127  0.6415
12634SOL    HW140440   8.454   2.699   7.511 -3.2167 -1.6893 -1.5171
12634SOL    HW240441   8.544   2.579   7.492 -2.3783 -1.0223 -1.8380
12635SOL     OW40442   4.559   4.797   2.156  0.0983 -0.3577 -0.2448
12635SOL    HW140443   4.479   4.849   2.161  0.5845  0.3847 -0.0965
12635SOL    HW240444   4.544   4.738   2.082 -0.7360 -0.4841  0.0127
12636SOL     OW40445   8.577   7.835  10.160 -0.5460 -0.1248 -0.9001
12636SOL    HW140446   8.658   7.866  10.201 -0.8588  2.6944 -2.3362
12636SOL    HW240447   8.530   7.791  10.231  1.3332 -0.0755  0.4310
12637SOL     OW40448   4.975   6.292   1.392 -0.7963 -0.0265  0.4269
12637SOL    HW140449   4.954   6.259   1.305  1.2934  2.0848 -0.9555
12637SOL    HW240450   4.936   6.379   1.395 -0.9119 -0.1102  1.6216
12638SOL     OW40451   1.131   0.433   0.228 -0.5118  0.8108 -0.4631
12638SOL    HW140452   1.164   0.462   0.313 -0.8541  1.1119 -0.4323
12638SOL    HW240453   1.179   0.352   0.210 -0.3082  0.8433 -0.0667
12639SOL     OW40454   9.835   3.354   7.079 -0.1142  0.1189 -0.1519
12639SOL    HW140455   9.855   3.395   6.994  0.3563 -0.1621 -0.1827
12639SOL    HW240456   9.905   3.385   7.136 -0.0293 -0.2528 -0.0509
12640SOL     OW40457   9.739   2.349   3.596  0.5176 -0.0455  0.2190
12640SOL    HW140458   9.667   2.386   3.646  1.4886  1.4378  0.5797
12640SOL    HW240459   9.739   2.398   3.514  0.1840 -1.0709 -0.3933
12641SOL     OW40460   7.170   9.251   4.135 -0.3597  0.3297 -0.1538
12641SOL    HW140461   7.250   9.240   4.187  0.2276  0.6479 -0.9837
12641SOL    HW240462   7.141   9.162   4.116  0.9420  0.1945 -1.5880
12642SOL     OW40463   7.213   4.758   0.839 -0.1692  0.0057  1.3789
12642SOL    HW140464   7.136   4.811   0.818 -0.6358 -1.3118 -0.4000
12642SOL    HW240465   7.278   4.821   0.869 -1.0569  1.4724  0.3085
12643SOL     OW40466   2.759   7.504   6.369  0.2244 -0.6919 -0.3923
12643SOL    HW140467   2.814   7.442   6.416 -2.8873 -3.7176 -0.5446
12643SOL    HW240468   2.720   7.558   6.438 -0.0190 -1.4621  0.0845
12644SOL     OW40469   1.811   2.116   4.253  0.3230 -0.7009  0.5256
12644SOL    HW140470   1.902   2.145   4.264  0.5550 -1.1291 -0.2472
12644SOL    HW240471   1.814   2.022   4.270  0.1269 -0.8162 -0.1051
12645SOL     OW40472   8.713   6.552   7.637  0.1784  0.1167 -0.1443
12645SOL    HW140473   8.721   6.495   7.560  0.3330  0.1620 -0.1616
12645SOL    HW240474   8.635   6.520   7.682  0.0201  0.1667 -0.3851
12646SOL     OW40475   7.557   3.132   0.348 -0.1599 -0.1798  0.0054
12646SOL    HW140476   7.530   3.150   0.438 -0.0103  1.0024 -0.1802
12646SOL    HW240477   7.522   3.045   0.330 -1.6471  0.2711  0.6244
12647SOL     OW40478  10.041   3.940   7.612  0.1149 -0.8274 -0.2559
12647SOL    HW140479  10.056   3.906   7.700  2.6283  4.6707  1.7122
12647SOL    HW240480  10.109   3.899   7.559  2.0263 -0.2769  1.6457
12648SOL     OW40481   7.484   7.830   5.335 -0.1406 -0.2017 -0.3930
12648SOL    HW140482   7.579   7.838   5.322 -0.2209 -0.2567 -1.0121
12648SOL    HW240483   7.456   7.916   5.365  0.0857 -0.1479 -0.3359
12649SOL     OW40484   5.612   2.502   3.616 -0.3337 -0.4241  0.2215
12649SOL    HW140485   5.677   2.554   3.569  0.1505  0.7889  2.1511
12649SOL    HW240486   5.559   2.567   3.664 -2.0682 -1.4812 -0.2010
12650SOL     OW40487  10.024   7.375   5.572  0.7957 -0.0345  0.3993
12650SOL    HW140488  10.037   7.286   5.605  3.2730 -0.0534 -0.5467
12650SOL    HW240489   9.976   7.364   5.490  1.6221 -0.5431 -0.0154
12651SOL     OW40490   5.833   1.167   2.010  0.3625  0.4402 -0.8513
12651SOL    HW140491   5.803   1.076   2.002 -2.0256  1.3320 -2.2872
12651SOL    HW240492   5.909   1.172   1.952 -0.0962 -0.3762 -1.5346
12652SOL     OW40493   6.822   1.037   5.404  0.0387  0.6780 -0.3717
12652SOL    HW140494   6.734   1.005   5.420  0.6689 -0.2443  1.3866
12652SOL    HW240495   6.826   1.122   5.449  0.5574 -0.0531  0.9775
12653SOL     OW40496   4.806   5.685   4.647 -0.1294  0.2938  0.3887
12653SOL    HW140497   4.890   5.727   4.667  0.3980 -1.2225  1.4655
12653SOL    HW240498   4.789   5.629   4.723 -1.0657 -1.0138 -0.7601
12654SOL     OW40499   9.662   5.938   9.296  0.4018 -0.0816 -0.7195
12654SOL    HW140500   9.708   6.021   9.307  0.0736 -0.3004  2.8340
12654SOL    HW240501   9.709   5.877   9.353 -1.1976 -1.6039 -0.9974
12655SOL     OW40502   4.932   6.643   5.619 -0.1550 -0.1536  0.0381
12655SOL    HW140503   4.882   6.712   5.575 -1.1579 -1.6864 -1.3237
12655SOL    HW240504   4.985   6.604   5.549  2.0861  0.6703  1.2327
12656SOL     OW40505   4.071   5.166   4.399  0.1557 -0.0998  0.3800
12656SOL    HW140506   4.060   5.071   4.395  0.1109 -0.1359  1.2108
12656SOL    HW240507   4.164   5.178   4.414  0.2562  0.0104 -0.3178
12657SOL     OW40508   6.137   2.124   7.581 -0.4903 -0.3684  1.1198
12657SOL    HW140509   6.056   2.120   7.632 -1.1306  0.0595  0.1489
12657SOL    HW240510   6.115   2.176   7.504  0.3004 -1.5207  0.0928
12658SOL     OW40511   8.676   7.469  10.200 -0.1208  0.2793 -0.1273
12658SOL    HW140512   8.645   7.516  10.122 -0.7590 -0.4541 -0.3187
12658SOL    HW240513   8.622   7.502  10.271  2.2144  2.9137  0.5268
12659SOL     OW40514   5.041   9.660   1.689 -0.0293  0.0226 -0.3376
12659SOL    HW140515   5.047   9.573   1.649 -0.3902  0.3685 -1.1654
12659SOL    HW240516   5.073   9.719   1.621 -0.2972  0.5898  0.0323
12660SOL     OW40517   0.480   5.856   1.641  0.0245 -0.0790  0.6200
12660SOL    HW140518   0.563   5.816   1.667 -0.5945 -1.1085  1.0415
12660SOL    HW240519   0.469   5.929   1.702  0.2003 -0.4687  1.1281
12661SOL     OW40520   5.459   4.707   4.734  0.3742 -0.5016 -0.2618
12661SOL    HW140521   5.465   4.612   4.722  0.8241 -0.3531 -1.2431
12661SOL    HW240522   5.435   4.740   4.647  3.4112  0.5803 -0.7211
12662SOL     OW40523   7.058   0.605   6.698  0.3746  0.5677  0.4589
12662SOL    HW140524   7.011   0.527   6.667  2.5138 -0.1290 -1.1750
12662SOL    HW240525   7.144   0.599   6.657  1.1233  3.0015  1.5632
12663SOL     OW40526   0.988   9.435   5.320 -0.9595  0.0148  0.2140
12663SOL    HW140527   1.029   9.449   5.405  0.8161  1.1703 -0.8097
12663SOL    HW240528   1.000   9.342   5.302  1.2892  0.3395 -0.0860
12664SOL     OW40529   3.956   8.026   2.935 -0.0397 -0.1455 -0.5238
12664SOL    HW140530   4.046   7.999   2.951  0.3729  1.1867 -0.4777
12664SOL    HW240531   3.918   7.955   2.884  0.7955 -1.0937  0.1474
12665SOL     OW40532   3.711   0.211   1.361  0.1114 -0.0863 -0.0996
12665SOL    HW140533   3.652   0.136   1.365 -0.9662  0.6887 -1.0660
12665SOL    HW240534   3.656   0.283   1.332  1.4272  0.7722 -0.5132
12666SOL     OW40535   7.033   9.722   9.961 -0.5596  0.2311 -0.2828
12666SOL    HW140536   6.947   9.756   9.936 -0.9162 -2.2348 -2.6567
12666SOL    HW240537   7.094   9.764   9.900 -0.4476 -0.1626 -0.4411
12667SOL     OW40538   2.724   0.464   0.191 -0.3711  0.3264  0.5472
12667SOL    HW140539   2.813   0.499   0.194 -0.7915  1.4842  0.1244
12667SOL    HW240540   2.734   0.370   0.178  0.8065  0.2972  1.5684
12668SOL     OW40541   9.430   1.512   8.082  0.0444  0.5063 -0.2768
12668SOL    HW140542   9.506   1.544   8.034 -0.3762  1.7356 -0.1174
12668SOL    HW240543   9.453   1.421   8.104  0.4072  0.0394 -2.4407
12669SOL     OW40544   8.205   8.048   2.113  0.1348  0.5420  0.3554
12669SOL    HW140545   8.130   8.101   2.138  0.3215  0.5678  0.8845
12669SOL    HW240546   8.169   7.960   2.099 -0.1933  0.8366 -0.6547
12670SOL     OW40547   1.442   9.592   9.728  0.1746  0.0678 -0.5350
12670SOL    HW140548   1.449   9.548   9.812 -0.9333 -0.2058 -0.5825
12670SOL    HW240549   1.504   9.665   9.734  1.5246 -1.0756 -0.2139
12671SOL     OW40550   0.815   5.351   3.146 -0.1159  0.1159  0.4200
12671SOL    HW140551   0.895   5.304   3.168  0.5649  1.1431  0.1385
12671SOL    HW240552   0.838   5.407   3.073 -1.1058  0.3873  0.2979
12672SOL     OW40553   4.893   8.566   4.327 -0.0772  0.4369  0.3799
12672SOL    HW140554   4.842   8.584   4.249  0.8370 -0.2741 -0.3921
12672SOL    HW240555   4.978   8.607   4.310  0.9109 -1.6984 -0.0022
12673SOL     OW40556   1.542   7.788   1.053  0.4113 -0.2673  0.0968
12673SOL    HW140557   1.500   7.713   1.097  0.5651 -0.3386  0.1240
12673SOL    HW240558   1.471   7.832   1.007 -0.2312  1.3146  2.5149
12674SOL     OW40559   2.894   6.368   9.230  0.2345  0.7403  0.4874
12674SOL    HW140560   2.937   6.404   9.152 -0.2705 -1.2066 -0.7372
12674SOL    HW240561   2.920   6.276   9.231 -1.8771  0.1249  1.1269
12675SOL     OW40562   0.641   3.058   0.129  0.1397  0.0041 -0.2820
12675SOL    HW140563   0.593   3.076   0.049 -0.2523  0.1084 -0.0231
12675SOL    HW240564   0.733   3.073   0.106 -0.0995  1.4913 -0.3115
12676SOL     OW40565   2.184   3.087   8.544  0.0525 -0.1851  0.2740
12676SOL    HW140566   2.186   2.999   8.579 -1.3911  0.1661  1.2818
12676SOL    HW240567   2.276   3.110   8.531  0.4360 -1.7910  0.0782
12677SOL     OW40568   5.732   4.601   5.390 -0.3380 -0.1780 -0.2843
12677SOL    HW140569   5.732   4.694   5.413  0.4260 -0.3679  0.5186
12677SOL    HW240570   5.797   4.562   5.449 -0.6855 -1.2261 -0.5868
12678SOL     OW40571   3.213   1.932   8.273 -0.3425  0.1478  0.5190
12678SOL    HW140572   3.200   1.838   8.282 -0.2514  0.0383 -0.4599
12678SOL    HW240573   3.245   1.944   8.184  0.1756  1.0544  0.8135
12679SOL     OW40574   3.533   6.108   4.722 -0.4271  0.2683  0.5522
12679SOL    HW140575   3.451   6.058   4.720 -1.2607  1.6403 -1.6647
12679SOL    HW240576   3.576   6.080   4.803 -2.0884 -2.0568  0.6946
12680SOL     OW40577   5.524   9.235   7.277  0.1643 -0.2426 -0.3506
12680SOL    HW140578   5.449   9.179   7.299  1.1872 -1.5531 -0.1088
12680SOL    HW240579   5.545   9.280   7.359 -0.6684  0.5256 -0.5483
12681SOL     OW40580   9.011   9.719   5.082 -0.3994 -0.0138 -0.1580
12681SOL    HW140581   8.995   9.804   5.042  1.7162  0.1962 -0.6075
12681SOL    HW240582   9.009   9.736   5.176 -0.0379  0.5387 -0.2463
12682SOL     OW40583   4.800   2.739   7.338 -1.0006 -0.6702  0.1124
12682SOL    HW140584   4.839   2.794   7.405  1.3929 -0.2689 -1.5540
12682SOL    HW240585   4.861   2.666   7.328 -2.1947 -1.6230 -0.4339
12683SOL     OW40586   3.945   6.251   0.302 -0.0956 -0.0232  0.0368
12683SOL    HW140587   3.914   6.340   0.320  2.1045  0.9563 -0.7600
12683SOL    HW240588   4.023   6.241   0.357  0.4510 -0.9533 -0.8824
12684SOL     OW40589   5.228   6.472   6.428  0.6868 -0.1385  0.2156
12684SOL    HW140590   5.188   6.548   6.472 -1.3320 -0.2896 -1.3074
12684SOL    HW240591   5.267   6.508   6.349  1.9920 -0.3031  0.7668
12685SOL     OW40592   8.334   9.086   6.575  0.2072 -0.1855 -0.3017
12685SOL    HW140593   8.239   9.095   6.584  0.4015  0.7102  1.0302
12685SOL    HW240594   8.348   9.060   6.484 -1.3802 -1.3640 -0.2279
12686SOL     OW40595   1.589   1.492   1.960  0.1180 -0.0539  0.7679
12686SOL    HW140596   1.604   1.545   2.038  0.5068 -0.0847  0.7140
12686SOL    HW240597   1.676   1.466   1.931  0.0913  1.4011 -0.6903
12687SOL     OW40598   5.746   5.699   3.133  0.0618 -0.0697  0.7914
12687SOL    HW140599   5.779   5.780   3.172  0.3965  0.6121 -0.8572
12687SOL    HW240600   5.825   5.649   3.112  0.1635  1.5461 -3.1229
12688SOL     OW40601   7.935   8.357   7.741 -0.1883 -0.1776 -0.0199
12688SOL    HW140602   8.012   8.351   7.684 -0.7154  0.9335 -0.8676
12688SOL    HW240603   7.962   8.414   7.813 -0.2565  0.3385 -0.3984
12689SOL     OW40604   6.574   5.704   3.699  0.2603  0.3360 -0.1217
12689SOL    HW140605   6.617   5.787   3.678 -1.1359  1.4223  1.2225
12689SOL    HW240606   6.522   5.723   3.777 -0.2697 -1.7451  0.0552
12690SOL     OW40607   0.813  10.029   3.805 -0.9723  0.6000 -0.3030
12690SOL    HW140608   0.871   9.962   3.840 -1.2275  0.4983 -0.0711
12690SOL    HW240609   0.821  10.102   3.867  0.4308  1.3508 -1.3495
12691SOL     OW40610   5.353   0.604   7.340  0.1647 -0.1447  0.7786
12691SOL    HW140611   5.298   0.535   7.379  0.9279  0.0570  2.2585
12691SOL    HW240612   5.291   0.669   7.308 -0.4782  0.8225  3.8339
12692SOL     OW40613   5.805   2.468   4.190 -0.3097 -0.3738 -0.1168
12692SOL    HW140614   5.871   2.507   4.132  1.2630 -0.8271  1.3459
12692SOL    HW240615   5.722   2.491   4.148  0.7173  0.9720 -1.5262
12693SOL     OW40616   8.783   0.339   1.333  0.1767 -1.1298 -0.0563
12693SOL    HW140617   8.787   0.430   1.305  1.5823 -1.6989 -1.8191
12693SOL    HW240618   8.807   0.341   1.426 -0.3013  0.3340  0.0413
12694SOL     OW40619   7.229   2.502   4.832  0.0071  0.0195 -0.2373
12694SOL    HW140620   7.206   2.430   4.890 -1.6346  0.4488 -0.3139
12694SOL    HW240621   7.270   2.460   4.756  0.5149 -0.6896  0.4224
12695SOL     OW40622   3.145   5.403   0.514 -1.0030 -0.1074 -0.1490
12695SOL    HW140623   3.197   5.482   0.530 -2.2126  0.7300 -0.2683
12695SOL    HW240624   3.102   5.419   0.430 -0.3028 -1.4285 -0.7719
12696SOL     OW40625   1.839   2.394   5.187 -0.3108 -0.1216 -0.1304
12696SOL    HW140626   1.820   2.393   5.093  0.0428  0.1879 -0.2108
12696SOL    HW240627   1.784   2.326   5.224  0.9379 -1.5449 -0.8402
12697SOL     OW40628   6.469   1.273   3.132 -0.1461  0.2658  0.2268
12697SOL    HW140629   6.510   1.245   3.214 -1.1449 -1.8306  0.0327
12697SOL    HW240630   6.491   1.204   3.070 -0.8406  1.0030 -0.8530
12698SOL     OW40631   8.031   4.339   9.366 -0.2251 -0.0368  0.2036
12698SOL    HW140632   7.950   4.354   9.416 -1.4334 -1.1622 -1.3861
12698SOL    HW240633   8.010   4.368   9.277  0.9079 -0.9336 -0.3649
12699SOL     OW40634   0.487   4.199   3.176 -0.2675 -0.1325 -0.2570
12699SOL    HW140635   0.555   4.247   3.129 -1.3021  2.1668  0.5415
12699SOL    HW240636   0.535   4.157   3.248  0.5589  0.2050 -0.5934
12700SOL     OW40637   2.556   7.147   3.308 -0.1348 -0.4945 -0.0995
12700SOL    HW140638   2.581   7.058   3.332  0.9637 -0.1708 -0.0106
12700SOL    HW240639   2.616   7.203   3.356 -1.7278  0.3668  0.9561
12701SOL     OW40640   3.770   7.155   3.806  0.1481  0.1163 -0.2767
12701SOL    HW140641   3.851   7.201   3.783  0.6693 -0.5526  0.1972
12701SOL    HW240642   3.757   7.176   3.899  0.4854 -0.8276 -0.0133
12702SOL     OW40643   5.707   2.089  10.170 -0.6024  0.4925 -0.3160
12702SOL    HW140644   5.799   2.103  10.147 -1.3557 -0.1128 -4.0125
12702SOL    HW240645   5.661   2.092  10.086 -3.6864 -1.3231  1.2303
12703SOL     OW40646  10.003   2.080   9.225  0.7975  0.1000 -0.2806
12703SOL    HW140647  10.036   2.031   9.301  1.6617  0.2143 -0.5767
12703SOL    HW240648  10.015   2.020   9.151  0.8070  0.3319 -0.4660
12704SOL     OW40649   8.039   9.161   3.267  0.2562  0.0516 -0.4997
12704SOL    HW140650   7.996   9.195   3.188  1.0474 -1.6384 -1.6821
12704SOL    HW240651   8.130   9.148   3.240 -0.0756 -3.3321 -0.2343
12705SOL     OW40652   0.617   1.723   5.267  0.2573 -0.3957 -0.3007
12705SOL    HW140653   0.546   1.677   5.223  0.3460  0.0207 -0.8849
12705SOL    HW240654   0.585   1.736   5.357  0.5503 -2.2922  0.1154
12706SOL     OW40655   5.163   5.357   2.390 -0.0096  0.1504 -0.0685
12706SOL    HW140656   5.139   5.422   2.456 -1.3924  0.7358 -1.1326
12706SOL    HW240657   5.114   5.278   2.415 -0.5285  0.3709 -0.3719
12707SOL     OW40658   8.371   8.601   9.482 -0.4291 -0.4998  0.4106
12707SOL    HW140659   8.397   8.659   9.411 -1.9794  0.2382  0.4297
12707SOL    HW240660   8.318   8.534   9.440  0.0352 -1.0110  0.6302
12708SOL     OW40661   8.189   6.348   2.972 -0.2160 -0.1741  0.1141
12708SOL    HW140662   8.103   6.388   2.987  0.2914  1.7141 -1.7925
12708SOL    HW240663   8.179   6.300   2.890  1.4789  3.0184 -2.0632
12709SOL     OW40664   8.113   1.495   0.388  0.0532  0.1555 -0.3280
12709SOL    HW140665   8.064   1.444   0.322  0.0844 -1.1389  0.6278
12709SOL    HW240666   8.193   1.521   0.342  1.4015 -3.1540 -0.0082
12710SOL     OW40667   3.208   2.794   7.370  0.1372  0.0156  0.2670
12710SOL    HW140668   3.191   2.736   7.296  1.3841  0.4119 -0.3389
12710SOL    HW240669   3.302   2.790   7.383 -0.0476  0.1292  1.6988
12711SOL     OW40670   7.479   4.430   4.449 -0.2268 -0.2780  0.3745
12711SOL    HW140671   7.497   4.363   4.383  1.3750 -0.9397  1.4376
12711SOL    HW240672   7.565   4.453   4.483 -0.8605  1.5321  0.8177
12712SOL     OW40673   6.141   9.151   4.908  0.0024 -0.1240 -0.3866
12712SOL    HW140674   6.097   9.196   4.980  1.3875  0.2261  0.2702
12712SOL    HW240675   6.181   9.222   4.857 -1.8014 -0.3031 -2.0752
12713SOL     OW40676   5.841   2.907   4.790  0.4612  0.0364 -0.0704
12713SOL    HW140677   5.868   2.967   4.860 -1.4373  0.7335  0.1137
12713SOL    HW240678   5.793   2.963   4.729 -0.8745 -1.1846 -0.1724
12714SOL     OW40679   7.629   5.428   1.563 -0.3918  0.5483 -0.1342
12714SOL    HW140680   7.568   5.502   1.558  1.6787  2.2257 -1.3176
12714SOL    HW240681   7.594   5.364   1.500 -1.7061  0.8860  0.2385
12715SOL     OW40682   0.460   5.102   9.983 -0.1531 -0.1223 -0.3429
12715SOL    HW140683   0.396   5.162   9.945  1.6343  2.4505  0.6101
12715SOL    HW240684   0.544   5.136   9.954  0.8808 -2.5622 -0.2845
12716SOL     OW40685   7.705   9.343   4.997  0.0425 -0.1649 -0.4452
12716SOL    HW140686   7.785   9.328   5.048  0.1914  4.3128  0.8988
12716SOL    HW240687   7.634   9.313   5.054  0.5109  0.0555  0.2572
12717SOL     OW40688   7.399   1.700   1.122  0.0795  0.3109  0.0701
12717SOL    HW140689   7.436   1.710   1.210 -0.6470  0.2967  0.3796
12717SOL    HW240690   7.389   1.789   1.089 -1.9090  0.4339  0.9531
12718SOL     OW40691   1.070   3.979   9.996  0.7074 -0.7022  0.5174
12718SOL    HW140692   1.135   4.048  10.008 -0.6831  0.6409  0.4741
12718SOL    HW240693   1.052   3.978   9.902 -0.1244 -0.2928  0.6585
12719SOL     OW40694   2.524   8.438   2.435  0.2987  0.0359  0.1738
12719SOL    HW140695   2.575   8.478   2.506  0.4864 -0.5502  0.3731
12719SOL    HW240696   2.568   8.355   2.419  0.3428  0.2301 -0.7301
12720SOL     OW40697   6.681  10.099   1.155 -0.0401  0.1464  0.3910
12720SOL    HW140698   6.754  10.051   1.195 -2.1835 -0.9611  3.1468
12720SOL    HW240699   6.669  10.057   1.070 -0.0841 -2.4408  1.6047
12721SOL     OW40700   8.805   4.036   3.149  0.0581 -0.4005  0.5740
12721SOL    HW140701   8.714   4.022   3.120 -0.1509 -0.5266  1.2866
12721SOL    HW240702   8.798   4.102   3.218  0.5855  0.1015  0.1510
12722SOL     OW40703   5.421   7.183   8.801  0.0335  0.4671 -0.4685
12722SOL    HW140704   5.393   7.259   8.851  1.9634  2.0664 -1.7318
12722SOL    HW240705   5.494   7.215   8.747  0.1208 -1.9805 -1.8907
12723SOL     OW40706   1.091   5.149   7.815  0.4325  0.2039  0.2047
12723SOL    HW140707   1.099   5.184   7.904  0.2662 -0.3837  0.4592
12723SOL    HW240708   1.016   5.089   7.820 -1.3854  2.2860 -1.0353
12724SOL     OW40709   5.568   6.212   8.888 -0.4374  0.7783 -0.2003
12724SOL    HW140710   5.569   6.306   8.869 -0.7650  0.6643 -0.8148
12724SOL    HW240711   5.639   6.177   8.835 -0.7367  0.5902 -0.4789
12725SOL     OW40712   1.731   6.337   1.000  0.4139  0.1026 -0.3943
12725SOL    HW140713   1.644   6.376   0.995 -0.3020 -1.5420 -1.1915
12725SOL    HW240714   1.765   6.343   0.911  0.6856 -0.2142 -0.3136
12726SOL     OW40715   6.569   9.200   3.823  0.0870  0.6149 -0.3630
12726SOL    HW140716   6.523   9.266   3.875  0.6074  0.7517 -0.0676
12726SOL    HW240717   6.522   9.118   3.840 -0.1121  0.7745 -0.1561
12727SOL     OW40718   8.308   3.250   4.824 -0.4967 -0.9784  0.1096
12727SOL    HW140719   8.348   3.174   4.866 -0.3275 -0.3337  1.1387
12727SOL    HW240720   8.217   3.225   4.811  0.2686 -2.5838 -2.5680
12728SOL     OW40721   3.992   2.062   8.417 -1.1829 -0.2663 -0.2138
12728SOL    HW140722   3.965   2.111   8.340 -0.4172 -2.1127 -1.6973
12728SOL    HW240723   3.921   2.075   8.480 -2.1931  0.6284 -1.5082
12729SOL     OW40724   1.760   3.168   7.000 -0.0136 -0.5679 -0.3181
12729SOL    HW140725   1.711   3.112   6.939  0.3910 -1.9772  0.6470
12729SOL    HW240726   1.745   3.257   6.966 -0.7817 -1.2209 -1.7749
12730SOL     OW40727   3.488   9.153   2.079 -0.4444  0.4887 -0.2071
12730SOL    HW140728   3.405   9.189   2.047 -1.6516 -1.5644  0.5259
12730SOL    HW240729   3.504   9.076   2.023 -0.3897 -0.6419  1.3320
12731SOL     OW40730   6.804   8.193   7.252  0.2256 -0.1688 -0.2713
12731SOL    HW140731   6.841   8.179   7.339  2.3539  0.8856 -0.9764
12731SOL    HW240732   6.768   8.108   7.228 -0.3632 -0.4872  1.6199
12732SOL     OW40733   8.340   1.101   1.745  0.5668  0.7074  0.4913
12732SOL    HW140734   8.246   1.097   1.729  0.9470  0.3385 -1.9175
12732SOL    HW240735   8.371   1.012   1.731  1.4374  1.0656  0.0480
12733SOL     OW40736   9.059   7.228   2.569  0.4765  0.4636 -0.2130
12733SOL    HW140737   9.111   7.198   2.643 -1.1745 -1.8616  0.0590
12733SOL    HW240738   8.969   7.204   2.592 -0.4142  2.2645 -1.7169
12734SOL     OW40739   7.980   2.741   9.066  1.1532 -0.0694 -1.1732
12734SOL    HW140740   7.989   2.834   9.048 -0.8024  0.4895  0.5325
12734SOL    HW240741   8.035   2.725   9.142  1.7614 -0.3878 -1.6772
12735SOL     OW40742   0.116   7.559   3.827 -0.7340  0.8340 -0.0695
12735SOL    HW140743   0.051   7.590   3.889 -1.8534 -1.4180 -0.0541
12735SOL    HW240744   0.078   7.576   3.741 -0.9469  0.3383 -0.0743
12736SOL     OW40745   0.393   8.301   2.452 -0.3311 -0.0011  0.1242
12736SOL    HW140746   0.488   8.311   2.459 -0.2146 -0.7490 -0.3078
12736SOL    HW240747   0.358   8.344   2.530  0.5379 -2.7773  2.1088
12737SOL     OW40748   3.039   7.230   4.819 -0.3391  0.4856  0.0327
12737SOL    HW140749   3.053   7.138   4.839 -0.8240  1.1582  3.9017
12737SOL    HW240750   2.946   7.236   4.795 -0.4405  0.0644  0.3249
12738SOL     OW40751   4.023   9.887   3.557 -0.5103 -0.4255  0.2665
12738SOL    HW140752   4.027   9.831   3.635  0.6875  1.8014  1.8439
12738SOL    HW240753   4.054   9.972   3.586 -0.3957  0.5746 -2.5779
12739SOL     OW40754  10.072   1.497   4.102 -0.4729 -0.5879 -0.1803
12739SOL    HW140755  10.136   1.445   4.151 -0.6197 -0.7571 -0.1657
12739SOL    HW240756  10.063   1.577   4.153  0.2182 -0.2825 -0.5393
12740SOL     OW40757   1.773   2.534   6.680  0.3661 -0.1106 -0.1604
12740SOL    HW140758   1.778   2.629   6.670 -0.7753 -0.1523 -1.1698
12740SOL    HW240759   1.733   2.503   6.599 -0.3461 -1.3503  0.6508
12741SOL     OW40760   1.874   8.502   8.997 -0.0695  0.2847 -0.0813
12741SOL    HW140761   1.868   8.591   8.962  0.7309  0.3988  0.0516
12741SOL    HW240762   1.867   8.446   8.920 -0.6203  0.4585 -0.1632
12742SOL     OW40763   9.974   2.259   5.094  0.2712 -0.0418  0.3607
12742SOL    HW140764  10.045   2.323   5.085 -0.5216  0.9937  1.2099
12742SOL    HW240765  10.018   2.177   5.116  1.2690  0.3573 -0.1195
12743SOL     OW40766   7.796   6.424   0.305  0.5906 -0.5347 -0.4462
12743SOL    HW140767   7.862   6.493   0.303 -0.8972  0.9509  0.3637
12743SOL    HW240768   7.806   6.385   0.392  0.1885 -0.0970 -0.2035
12744SOL     OW40769   3.878   5.078   8.121  0.4034  0.0062 -0.0375
12744SOL    HW140770   3.891   5.030   8.040  0.3102  0.7603 -0.5028
12744SOL    HW240771   3.944   5.146   8.120  0.1936  0.2204  0.3670
12745SOL     OW40772   1.684   6.038  10.194  0.5002 -0.0677  0.1621
12745SOL    HW140773   1.714   5.964  10.248 -1.1421 -0.8764 -0.0030
12745SOL    HW240774   1.678   6.003  10.106  0.0666  0.3699  0.0157
12746SOL     OW40775   5.503   9.646   8.575 -0.1801  0.0810  0.5160
12746SOL    HW140776   5.558   9.594   8.634 -1.3751 -1.0507  0.6528
12746SOL    HW240777   5.557   9.661   8.498  0.0202 -1.7644  0.2903
12747SOL     OW40778   8.191   7.741   6.810  0.1020 -0.0039  0.3802
12747SOL    HW140779   8.201   7.646   6.812 -1.1018 -0.1366  1.0962
12747SOL    HW240780   8.152   7.760   6.725  0.3615 -0.1525  0.2296
12748SOL     OW40781   4.193   9.683   0.803 -0.1453  0.1683  0.5179
12748SOL    HW140782   4.263   9.618   0.810 -1.0975 -0.8614  0.5232
12748SOL    HW240783   4.192   9.727   0.888  0.1952 -0.1139  0.6693
12749SOL     OW40784   0.260   7.256   2.324  0.4119  0.3365  0.4895
12749SOL    HW140785   0.243   7.308   2.403  2.0713 -0.0872  1.1516
12749SOL    HW240786   0.341   7.209   2.343 -0.5283 -1.7349 -0.5066
12750SOL     OW40787   2.315   5.950   2.042 -0.1618 -0.8310  0.3316
12750SOL    HW140788   2.334   5.917   1.954 -0.0600 -1.4605  0.5861
12750SOL    HW240789   2.317   5.872   2.098  1.4797 -0.1971  1.1833
12751SOL     OW40790   4.459   7.767   9.143 -0.4531 -0.1064 -0.5783
12751SOL    HW140791   4.423   7.770   9.054  0.9395 -0.7201 -1.1825
12751SOL    HW240792   4.410   7.698   9.187 -0.9703  0.0239 -0.9470
12752SOL     OW40793   2.887   1.344   4.977 -0.0910 -0.2714 -0.1731
12752SOL    HW140794   2.820   1.412   4.973  0.1325 -0.0498 -0.2129
12752SOL    HW240795   2.969   1.392   4.985  0.1753 -0.4873 -1.4388
12753SOL     OW40796   5.001   9.829   1.472 -0.1408  0.1748  0.0452
12753SOL    HW140797   4.933   9.774   1.432  1.6143 -0.2981 -2.4030
12753SOL    HW240798   4.983   9.917   1.438  1.5259 -0.2787 -2.1075
12754SOL     OW40799   4.089   1.300   2.920  0.3179  0.1049 -0.2964
12754SOL    HW140800   4.124   1.224   2.965 -0.9533  0.0777  0.6930
12754SOL    HW240801   4.111   1.286   2.828  0.4402 -1.2669 -0.0717
12755SOL     OW40802   2.870   2.229   0.440 -0.0930 -0.3231 -0.2154
12755SOL    HW140803   2.811   2.279   0.383  0.1102  0.3510  0.1647
12755SOL    HW240804   2.829   2.142   0.446 -0.8600  0.0352 -0.2338
12756SOL     OW40805   5.323   8.100   1.966  0.3888  0.4750  0.2925
12756SOL    HW140806   5.288   8.149   2.040  1.1797 -0.7502  1.5128
12756SOL    HW240807   5.262   8.027   1.955 -0.6232  1.5321 -1.3279
12757SOL     OW40808   9.086   0.826   9.759 -0.1477 -0.0380 -0.0017
12757SOL    HW140809   9.135   0.748   9.786 -0.0717  0.7625  2.3316
12757SOL    HW240810   8.995   0.796   9.752  0.1821 -0.7859 -1.0983
12758SOL     OW40811   3.896   9.088   0.978  0.5163  0.0225  0.1230
12758SOL    HW140812   3.898   9.118   1.068  1.3224  0.1758  0.0543
12758SOL    HW240813   3.853   9.159   0.930  2.1383  0.9467  0.0105
12759SOL     OW40814   0.095   7.824   9.666 -0.1627  0.3644  0.5166
12759SOL    HW140815   0.189   7.809   9.657 -0.3297 -0.2480 -0.2773
12759SOL    HW240816   0.080   7.907   9.619 -0.2492 -0.3058 -0.6577
12760SOL     OW40817   5.953   2.459   2.623 -0.2874  0.1839 -0.0275
12760SOL    HW140818   6.014   2.532   2.610 -0.6457  0.4200 -0.4011
12760SOL    HW240819   5.881   2.496   2.674 -0.4053  0.0598 -0.1012
12761SOL     OW40820   0.116   0.178   1.741 -0.0566  0.0055  0.5613
12761SOL    HW140821   0.168   0.195   1.663  0.6744  2.2343  1.4946
12761SOL    HW240822   0.178   0.142   1.804 -0.3554 -0.4625  0.5944
12762SOL     OW40823   4.604   3.021   0.183 -0.7163 -0.3027  0.1611
12762SOL    HW140824   4.629   3.113   0.185 -0.7063 -0.3038  0.1104
12762SOL    HW240825   4.634   2.990   0.097 -0.3344 -0.4581  0.3470
12763SOL     OW40826   2.405   7.428   7.469  0.0881  0.8214  0.5342
12763SOL    HW140827   2.388   7.515   7.432 -0.3312  1.4651  2.1937
12763SOL    HW240828   2.320   7.383   7.464  0.0731  0.8477  0.5505
12764SOL     OW40829   0.397   1.456   1.839 -0.1026 -0.1515  0.2910
12764SOL    HW140830   0.366   1.372   1.873  2.3812 -1.0664  0.4422
12764SOL    HW240831   0.475   1.476   1.892  2.7458 -0.6642 -3.5325
12765SOL     OW40832   2.783   8.456   3.225 -0.3700  0.7200  0.1205
12765SOL    HW140833   2.753   8.400   3.296  0.7554  0.5776  0.4896
12765SOL    HW240834   2.756   8.544   3.250 -0.4757  0.5924  0.4480
12766SOL     OW40835   7.059   5.430   4.721  0.2418  0.2142  0.4112
12766SOL    HW140836   7.054   5.462   4.811 -1.2377 -0.9053  0.7494
12766SOL    HW240837   7.007   5.493   4.671  1.3626  1.0384  0.2748
12767SOL     OW40838   6.735   0.748   7.494 -0.4617  0.4676 -0.2022
12767SOL    HW140839   6.653   0.730   7.448 -0.6325  1.6236 -0.3800
12767SOL    HW240840   6.708   0.791   7.575 -0.1488 -1.3714  0.9024
12768SOL     OW40841   6.787   2.183   2.349  0.3731  0.2195  0.5971
12768SOL    HW140842   6.745   2.119   2.292 -0.2775  0.4573  0.8115
12768SOL    HW240843   6.766   2.268   2.310  2.7675  0.2599 -0.7477
12769SOL     OW40844   3.528   9.030   2.878  0.6671  0.2657  0.4972
12769SOL    HW140845   3.560   9.032   2.968  0.6904  0.9094  0.4799
12769SOL    HW240846   3.601   8.993   2.828  0.6759 -0.0354  0.7348
12770SOL     OW40847   3.463   0.442   0.187  0.3085  0.4762 -0.4440
12770SOL    HW140848   3.491   0.522   0.142  0.0520  0.0951 -1.2847
12770SOL    HW240849   3.511   0.372   0.142  1.5726  0.2763  1.1626
12771SOL     OW40850   0.329   1.763   2.044 -0.5829 -0.2842 -0.0500
12771SOL    HW140851   0.406   1.707   2.060 -0.4063 -0.1973 -0.6034
12771SOL    HW240852   0.363   1.852   2.053 -0.6118 -0.2450 -0.3414
12772SOL     OW40853   5.004   7.112   7.083 -0.2847  0.2473  0.0252
12772SOL    HW140854   5.014   7.195   7.037  2.6241  0.5162  0.9814
12772SOL    HW240855   5.014   7.045   7.015  1.9296  0.6672 -0.1149
12773SOL     OW40856   4.253   7.256   1.925  0.1997  0.0668 -0.3174
12773SOL    HW140857   4.340   7.291   1.903 -0.0148  1.4207  0.9199
12773SOL    HW240858   4.216   7.321   1.984 -1.9451 -0.1781 -1.3568
12774SOL     OW40859   2.950   9.622   1.362  0.3927 -0.2250 -0.4547
12774SOL    HW140860   3.017   9.608   1.295  0.8096 -0.0506 -0.0757
12774SOL    HW240861   2.884   9.555   1.344  1.4716 -1.4964  0.2027
12775SOL     OW40862   6.844   4.722   2.319  0.1987 -0.2139  0.7752
12775SOL    HW140863   6.787   4.751   2.248  2.2770  1.6021 -0.2242
12775SOL    HW240864   6.854   4.628   2.307  1.0924  0.1875 -1.8090
12776SOL     OW40865   1.707   2.546   4.439  0.0218  0.1075  0.1420
12776SOL    HW140866   1.615   2.566   4.420 -0.0547 -3.5146 -4.1230
12776SOL    HW240867   1.704   2.465   4.490  0.8729  0.0804  0.1595
12777SOL     OW40868   2.531   8.045   6.296 -0.3843  0.3034 -0.0130
12777SOL    HW140869   2.620   8.015   6.317 -0.7961  0.1915  1.6352
12777SOL    HW240870   2.479   7.965   6.291 -0.5778  0.4294 -0.0448
12778SOL     OW40871   0.999   6.133   9.768  0.0589  0.1245 -0.6043
12778SOL    HW140872   0.914   6.167   9.741 -0.7592  0.0699  1.7774
12778SOL    HW240873   1.056   6.209   9.769 -0.3185  0.4138 -0.7941
12779SOL     OW40874   3.299   8.696   5.081 -0.0657  0.6671 -0.0626
12779SOL    HW140875   3.369   8.699   5.147  0.5643 -0.8819 -0.6384
12779SOL    HW240876   3.224   8.660   5.128  0.5274 -0.9146 -0.3003
12780SOL     OW40877   7.733   6.455   2.451 -0.9807 -0.0693 -0.0026
12780SOL    HW140878   7.740   6.550   2.449 -0.2496 -0.1392 -2.1070
12780SOL    HW240879   7.639   6.438   2.443 -0.9778  0.4636 -1.2792
12781SOL     OW40880   4.020   0.457   2.284  0.6200  0.7126 -0.0768
12781SOL    HW140881   4.014   0.553   2.275 -1.5274  0.6950  0.7145
12781SOL    HW240882   3.940   0.424   2.243 -0.2895 -0.4977  2.5369
12782SOL     OW40883   4.560   2.777   2.937 -0.6181  0.0522  0.0270
12782SOL    HW140884   4.595   2.751   3.022 -0.4231  0.9510  0.2213
12782SOL    HW240885   4.468   2.796   2.954 -0.9092 -1.0536 -0.2319
12783SOL     OW40886   7.522   8.178   2.625  0.2431 -0.0805  0.4288
12783SOL    HW140887   7.501   8.143   2.539 -0.7056  0.1808  0.5559
12783SOL    HW240888   7.562   8.105   2.672 -1.5839 -0.9486  0.6454
12784SOL     OW40889   1.029   5.738   1.341  0.1727  0.6751 -0.2784
12784SOL    HW140890   1.121   5.762   1.326  0.2632 -0.2017 -1.2038
12784SOL    HW240891   1.030   5.642   1.342 -0.5445  0.6704  0.9794
12785SOL     OW40892   3.427   6.517   3.420 -0.4879  0.1278 -0.0351
12785SOL    HW140893   3.436   6.506   3.325 -0.4920  0.8793 -0.1295
12785SOL    HW240894   3.425   6.612   3.432  1.0475  0.0474  0.8678
12786SOL     OW40895   9.900   1.953   2.618 -0.0428  0.4989 -0.5818
12786SOL    HW140896   9.910   2.029   2.675 -0.6001  0.5249 -0.5203
12786SOL    HW240897   9.970   1.963   2.554  0.2322  0.7704 -0.2468
12787SOL     OW40898   3.586   0.978   9.100 -0.5423 -0.0117 -0.9167
12787SOL    HW140899   3.557   1.008   9.014 -3.0370  1.1895  0.2998
12787SOL    HW240900   3.519   0.917   9.128 -0.8134  1.1730  1.0495
12788SOL     OW40901   2.690   9.619   0.344 -0.0506 -0.2105 -0.0494
12788SOL    HW140902   2.596   9.638   0.353  0.0788 -0.2515  1.4898
12788SOL    HW240903   2.727   9.698   0.306 -0.5408  0.1951  0.3119
12789SOL     OW40904   8.976   8.423   2.394  0.1199  0.2055 -0.3122
12789SOL    HW140905   8.889   8.450   2.364 -0.7426 -0.5497  1.4549
12789SOL    HW240906   8.985   8.463   2.480  1.5311  0.2625 -0.4828
12790SOL     OW40907   1.220   2.255   6.218 -0.3144  0.0427 -0.1198
12790SOL    HW140908   1.197   2.174   6.172  0.6117  0.0782 -0.6629
12790SOL    HW240909   1.251   2.314   6.149 -0.0740  0.5271  0.3946
12791SOL     OW40910   5.636   6.074   3.049  0.4001 -0.2843 -0.2870
12791SOL    HW140911   5.597   6.033   2.972 -0.8495 -0.6628  0.5383
12791SOL    HW240912   5.565   6.081   3.112  0.9876  1.5870  0.2306
12792SOL     OW40913   6.489   6.329   5.028  0.2865  0.2064  0.5476
12792SOL    HW140914   6.503   6.279   5.109  0.6134  1.9736  1.6044
12792SOL    HW240915   6.395   6.326   5.014  0.4653 -2.0919 -0.3154
12793SOL     OW40916   6.636   3.056   6.000  0.3552  1.0752  0.0633
12793SOL    HW140917   6.658   3.045   5.907  1.6045  0.1470  0.4519
12793SOL    HW240918   6.713   3.023   6.046 -0.9743 -0.1247  1.4611
12794SOL     OW40919   5.698   8.606   7.591  0.3051  0.0690  0.2844
12794SOL    HW140920   5.681   8.697   7.615 -0.1731 -0.4059  1.8158
12794SOL    HW240921   5.785   8.587   7.626 -0.2199 -0.4990  1.3246
12795SOL     OW40922   8.015   7.524   2.962 -0.1533  0.4212 -0.2035
12795SOL    HW140923   8.029   7.513   2.868  1.0015  0.4681 -0.0464
12795SOL    HW240924   7.976   7.612   2.971  1.2552  1.0872 -0.5100
12796SOL     OW40925   1.935   7.905   9.284 -0.4630  0.1476  0.3452
12796SOL    HW140926   1.955   7.812   9.271  1.8474  0.1455  3.1760
12796SOL    HW240927   1.977   7.950   9.211 -0.7754 -0.9316 -0.5140
12797SOL     OW40928   5.577   8.406   0.134  0.0337  0.7291 -0.0500
12797SOL    HW140929   5.671   8.418   0.134  0.1853 -0.3521  0.7515
12797SOL    HW240930   5.543   8.476   0.078  1.4325  0.1226 -1.6820
12798SOL     OW40931   1.215   4.995   5.042 -0.0050  0.1147  0.8570
12798SOL    HW140932   1.136   5.006   4.990 -0.6680  0.7329  1.9720
12798SOL    HW240933   1.281   4.966   4.979 -1.1258 -0.4782 -0.0636
12799SOL     OW40934   0.571   6.480   5.453  0.1296  0.1284 -0.4937
12799SOL    HW140935   0.664   6.467   5.432  0.1365 -1.1147  0.2384
12799SOL    HW240936   0.528   6.402   5.417 -0.5811  0.5606 -0.5706
12800SOL     OW40937   4.890   1.571   2.230 -0.1042 -0.5860 -0.0705
12800SOL    HW140938   4.849   1.506   2.173 -0.6282 -0.3695  0.0572
12800SOL    HW240939   4.817   1.622   2.264  0.3045  0.1019 -0.2100
12801SOL     OW40940   6.746   3.702   2.662 -0.3945  0.0082 -0.1771
12801SOL    HW140941   6.743   3.651   2.581 -0.7039  0.1686 -0.2690
12801SOL    HW240942   6.691   3.653   2.723  1.8070 -1.4396  0.7202
12802SOL     OW40943   8.382   1.353   9.453 -0.5346  0.3437 -0.8931
12802SOL    HW140944   8.403   1.288   9.519  1.8573  3.5840  1.7175
12802SOL    HW240945   8.427   1.323   9.374 -0.1857 -1.5754  0.0094
12803SOL     OW40946   5.385   0.279   9.063 -0.2358  0.3390 -0.1271
12803SOL    HW140947   5.446   0.246   9.129 -0.6721 -1.4046 -0.5846
12803SOL    HW240948   5.299   0.268   9.103 -0.2795  3.4008  0.7858
12804SOL     OW40949   9.103   1.758   3.639 -0.1638  0.0626  0.2689
12804SOL    HW140950   9.126   1.719   3.554 -1.2124 -0.1902  0.0895
12804SOL    HW240951   9.141   1.698   3.703  2.2067  1.2071  0.0077
12805SOL     OW40952   7.398   2.790   3.967  0.0817 -0.2407 -0.2329
12805SOL    HW140953   7.306   2.765   3.954  0.2510 -1.8581  1.4817
12805SOL    HW240954   7.412   2.861   3.905 -1.7292 -1.3980 -2.0533
12806SOL     OW40955   0.531   4.215   3.710  0.0504 -0.1351 -0.1031
12806SOL    HW140956   0.461   4.280   3.723  0.8986  0.6707  0.4587
12806SOL    HW240957   0.549   4.182   3.798  0.4631 -0.2493 -0.2293
12807SOL     OW40958   8.294   8.643   5.876 -0.6488 -0.0840 -0.1113
12807SOL    HW140959   8.219   8.702   5.867 -0.3691  0.5369  1.4275
12807SOL    HW240960   8.294   8.591   5.795 -0.6995  2.2658 -1.6869
12808SOL     OW40961   9.401   4.111   0.959 -0.0331  0.6599  0.3885
12808SOL    HW140962   9.434   4.121   1.048  0.7275  0.4975  0.1242
12808SOL    HW240963   9.469   4.149   0.904  1.5198 -3.0599 -0.4338
12809SOL     OW40964   0.518   0.880   5.983  0.3386  0.2153 -0.5949
12809SOL    HW140965   0.500   0.901   5.891  0.6597  0.4733 -0.5971
12809SOL    HW240966   0.603   0.919   6.001  0.1960  0.3184 -0.1341
12810SOL     OW40967   1.068   0.162   0.470 -0.6052 -0.2937 -0.1909
12810SOL    HW140968   1.122   0.155   0.392 -1.5104  0.0293 -0.8458
12810SOL    HW240969   0.988   0.206   0.441 -0.5783  0.6341  1.0967
12811SOL     OW40970   6.986   5.291   5.285  0.2910  0.2269 -0.0244
12811SOL    HW140971   6.952   5.360   5.229 -0.8278  1.3911  2.0063
12811SOL    HW240972   7.075   5.320   5.308  0.9286 -0.4889 -1.5473
12812SOL     OW40973   9.769   2.198   8.912 -0.2253 -0.3124  0.0863
12812SOL    HW140974   9.717   2.226   8.837  0.8204 -1.4219 -1.0679
12812SOL    HW240975   9.705   2.172   8.978 -1.1339 -0.5274 -0.8717
12813SOL     OW40976   8.939   5.481   9.651 -0.0874 -0.3280  0.2509
12813SOL    HW140977   8.852   5.482   9.692 -0.2664 -1.8865 -0.0430
12813SOL    HW240978   8.940   5.559   9.596 -0.2919  1.1545  2.2868
12814SOL     OW40979   8.021   0.590   7.715  0.2359  0.4187  0.1423
12814SOL    HW140980   8.110   0.557   7.704  0.3677  1.0838 -0.8883
12814SOL    HW240981   8.028   0.684   7.701 -1.1277  0.0862 -3.1817
12815SOL     OW40982   9.165   6.940   8.796  0.0271 -0.5625 -0.6214
12815SOL    HW140983   9.257   6.922   8.819 -0.0900 -0.8544 -0.3852
12815SOL    HW240984   9.118   6.933   8.879 -0.0846  0.4024 -0.6038
12816SOL     OW40985   1.416   8.130   4.560  0.2686 -0.4019 -0.8043
12816SOL    HW140986   1.430   8.181   4.480 -1.2430 -0.0312 -0.8410
12816SOL    HW240987   1.321   8.123   4.569  0.2766  2.3962  2.7146
12817SOL     OW40988   5.905   2.594   0.954 -0.1784 -0.3695 -0.3774
12817SOL    HW140989   5.855   2.554   1.025 -1.4437 -0.4852 -1.3315
12817SOL    HW240990   5.926   2.682   0.987 -0.4950 -0.5282  0.2612
12818SOL     OW40991   1.024   1.018   8.412  0.4613  0.0936 -0.4264
12818SOL    HW140992   1.011   0.995   8.320  2.6958 -1.1474 -0.4661
12818SOL    HW240993   0.955   0.971   8.458 -0.8662  0.9727 -1.4871
12819SOL     OW40994   8.483   9.350   4.502  0.5121  0.1278 -0.0002
12819SOL    HW140995   8.394   9.377   4.527  0.0974 -0.3611 -0.9286
12819SOL    HW240996   8.534   9.431   4.505 -0.3506  0.7239 -1.1307
12820SOL     OW40997   5.068   8.870   9.206  0.3732  0.0634 -0.1296
12820SOL    HW140998   5.096   8.806   9.272  0.3153 -0.2436 -0.4051
12820SOL    HW240999   4.981   8.898   9.236  0.4412  0.0901  0.0457
12821SOL     OW41000   6.335   1.780   7.984  0.2452  0.4452 -0.4297
12821SOL    HW141001   6.242   1.758   7.979  0.0282  0.9636  1.1144
12821SOL    HW241002   6.352   1.830   7.904 -0.5345 -0.5786 -1.2578
12822SOL     OW41003   6.881   7.624   7.015 -0.2993 -0.4951  0.3540
12822SOL    HW141004   6.915   7.606   6.927  1.2783  3.6105  0.0031
12822SOL    HW241005   6.789   7.598   7.011  0.2186 -2.1069 -1.9237
12823SOL     OW41006   8.073   0.055   5.479 -0.1424  0.0862  0.0446
12823SOL    HW141007   8.013  -0.004   5.434  0.4211 -0.9595  0.6434
12823SOL    HW241008   8.124   0.096   5.409 -1.7815  1.2703 -0.5020
12824SOL     OW41009   0.715   0.157   6.689  0.2763 -0.3093  0.1856
12824SOL    HW141010   0.665   0.230   6.726  1.2832  1.4979 -1.8802
12824SOL    HW241011   0.653   0.111   6.633 -0.3359 -1.0443  1.4210
12825SOL     OW41012   8.899   9.797   0.754 -0.7448 -0.2519 -0.5670
12825SOL    HW141013   8.852   9.816   0.835  1.2927  0.6589  0.4320
12825SOL    HW241014   8.850   9.844   0.686 -2.9762 -1.7349 -0.0412
12826SOL     OW41015   5.611   7.630   9.386 -0.4346  0.0855  0.1487
12826SOL    HW141016   5.615   7.556   9.447  3.0162 -1.8347 -2.1939
12826SOL    HW241017   5.660   7.699   9.430  0.8171 -0.8033  0.1844
12827SOL     OW41018   1.903   7.926   3.695 -0.5715 -0.2917  0.1777
12827SOL    HW141019   1.967   7.974   3.747 -0.3925  0.7307 -0.9548
12827SOL    HW241020   1.820   7.969   3.713 -0.2741  1.0157 -1.5010
12828SOL     OW41021   6.988   8.096   0.881 -0.0552  0.5066  0.1217
12828SOL    HW141022   6.925   8.167   0.893 -0.2603  0.2674  0.4845
12828SOL    HW241023   7.070   8.140   0.857 -0.6805  0.7345 -1.6173
12829SOL     OW41024   3.941   4.918   4.833  0.3531 -0.1306 -0.1977
12829SOL    HW141025   3.919   4.909   4.740 -0.3113  0.3117 -0.0839
12829SOL    HW241026   3.985   5.004   4.839  0.8329 -0.3736 -0.1796
12830SOL     OW41027   6.772   9.650   3.944 -0.3023  0.2551  0.3530
12830SOL    HW141028   6.816   9.567   3.923 -1.6132 -0.9708  2.2299
12830SOL    HW241029   6.802   9.711   3.877 -1.3294 -2.4053 -2.7035
12831SOL     OW41030   9.400   6.851   1.403  0.5604  0.2442  0.0548
12831SOL    HW141031   9.480   6.816   1.363 -0.1878 -0.1606 -1.1037
12831SOL    HW241032   9.372   6.921   1.344 -0.5995 -0.4074 -0.1791
12832SOL     OW41033   5.289   1.221   4.405 -0.0128  0.0062  0.1680
12832SOL    HW141034   5.249   1.139   4.375 -0.5222 -0.1885  1.3616
12832SOL    HW241035   5.314   1.266   4.324 -0.7790 -0.8035 -0.5318
12833SOL     OW41036   6.368   9.370   3.387  0.4151  0.3091 -0.4060
12833SOL    HW141037   6.389   9.425   3.463 -0.4944  1.4651 -0.9736
12833SOL    HW241038   6.449   9.368   3.336  0.5261  0.9491 -0.2637
12834SOL     OW41039   4.751   1.548   1.606 -0.8755 -0.5775  0.0737
12834SOL    HW141040   4.843   1.532   1.588 -0.4900 -1.2793  2.5831
12834SOL    HW241041   4.705   1.508   1.532  0.7927 -0.3683 -1.1027
12835SOL     OW41042   4.389   0.935   8.008 -0.5557 -0.4317 -0.2199
12835SOL    HW141043   4.473   0.889   8.013  0.3197  1.1459 -0.0298
12835SOL    HW241044   4.323   0.867   8.021  0.7708 -1.1758  2.9102
12836SOL     OW41045   8.837   7.205   6.920  0.2990 -0.2187  0.3249
12836SOL    HW141046   8.786   7.213   6.839  2.3136  1.4536 -0.8120
12836SOL    HW241047   8.836   7.292   6.958  3.8155  0.3374 -0.6847
12837SOL     OW41048   8.063   3.171   0.087  0.2673 -0.5401  0.1977
12837SOL    HW141049   8.151   3.138   0.067  1.0609  0.5275  1.7343
12837SOL    HW241050   8.048   3.145   0.178 -1.2371 -1.1529 -0.2062
12838SOL     OW41051   0.459   4.397   8.516 -0.5169  0.1425  0.2644
12838SOL    HW141052   0.457   4.490   8.497  0.0585 -0.0049 -0.5124
12838SOL    HW241053   0.382   4.382   8.572 -1.3378  0.8388 -0.6775
12839SOL     OW41054   7.545   9.970   8.418  0.0450  0.2120  0.1386
12839SOL    HW141055   7.454   9.997   8.409  0.1451 -0.2022 -2.9487
12839SOL    HW241056   7.595  10.045   8.384  0.9370  0.8454  2.7444
12840SOL     OW41057   1.483   7.418   6.856  0.1515  0.7959  0.4579
12840SOL    HW141058   1.411   7.355   6.850  3.1829 -3.1174  2.4039
12840SOL    HW241059   1.490   7.438   6.949  0.8750  2.0053  0.1557
12841SOL     OW41060   1.051   2.176   8.946  0.4408 -0.1321  0.2605
12841SOL    HW141061   1.009   2.167   8.860 -0.1552  2.1899  0.2896
12841SOL    HW241062   1.086   2.089   8.964 -0.7810 -1.0572 -1.6339
12842SOL     OW41063   9.179   1.595   3.429 -0.2261 -0.1570  0.0586
12842SOL    HW141064   9.273   1.599   3.443 -0.2353  1.8206 -0.4367
12842SOL    HW241065   9.164   1.645   3.349 -1.6906 -0.6047  0.0395
12843SOL     OW41066   4.600   0.227   8.517 -0.0990 -0.4189  0.5053
12843SOL    HW141067   4.516   0.221   8.563  0.6784  0.5899  2.1255
12843SOL    HW241068   4.628   0.317   8.530  0.3477 -0.2236 -1.6550
12844SOL     OW41069   5.448   4.368   6.094 -0.2471 -0.0678  0.2043
12844SOL    HW141070   5.364   4.348   6.135 -1.2444  1.2536 -1.1372
12844SOL    HW241071   5.470   4.456   6.126 -0.3426  0.3842 -0.9363
12845SOL     OW41072   4.082   7.635   9.052 -0.1084 -1.0043 -0.2996
12845SOL    HW141073   3.987   7.624   9.052 -0.1123 -0.9481  0.2878
12845SOL    HW241074   4.095   7.730   9.048 -0.0900 -0.8816  1.9554
12846SOL     OW41075   4.753   6.184   7.263 -0.2350 -0.2183  0.3512
12846SOL    HW141076   4.799   6.265   7.240  2.6145 -2.0631 -0.6905
12846SOL    HW241077   4.756   6.181   7.359  2.1215 -0.4259  0.3058
12847SOL     OW41078   5.938   5.303   3.192  0.4430  0.6545  0.4715
12847SOL    HW141079   6.024   5.317   3.233 -0.1738  2.3304  1.2465
12847SOL    HW241080   5.950   5.331   3.101  1.5911 -2.2764 -0.3433
12848SOL     OW41081   9.043   1.641   1.430 -0.4194  0.5836  0.3302
12848SOL    HW141082   9.005   1.650   1.343 -0.2510 -0.5950  0.1254
12848SOL    HW241083   9.086   1.555   1.429  2.0496  1.7610  0.6273
12849SOL     OW41084   3.988   5.450   5.714 -0.0082  0.6718  0.2892
12849SOL    HW141085   3.916   5.506   5.741  0.5169  1.5162 -0.0309
12849SOL    HW241086   4.029   5.422   5.796 -0.7156  0.1666  0.4695
12850SOL     OW41087   0.027   5.047   7.134  0.3439  0.0547  0.2498
12850SOL    HW141088   0.007   5.125   7.186 -0.4810 -0.6361  0.9996
12850SOL    HW241089  -0.045   5.042   7.070  0.0643 -0.4333  0.6026
12851SOL     OW41090   3.127   2.035   8.541 -0.1459 -0.1848  0.3728
12851SOL    HW141091   3.172   2.001   8.463 -2.0319  0.3934 -1.0129
12851SOL    HW241092   3.150   1.974   8.611  0.5751 -1.4418 -0.9458
12852SOL     OW41093   2.974   4.101   3.000 -0.0806  0.4369  0.5399
12852SOL    HW141094   2.976   4.197   3.004 -0.7935  0.4401  1.0017
12852SOL    HW241095   2.897   4.077   3.052  1.0694 -0.4629  1.8535
12853SOL     OW41096   5.345   2.367   5.434  0.3314 -0.3070  0.0099
12853SOL    HW141097   5.403   2.384   5.508 -1.2091  0.1090  1.1488
12853SOL    HW241098   5.389   2.407   5.359  1.6682 -0.3032  0.7909
12854SOL     OW41099   3.047   6.088   5.989  0.0697  0.2465 -0.2227
12854SOL    HW141100   3.116   6.026   5.965 -0.9643 -0.5838 -1.0649
12854SOL    HW241101   3.075   6.122   6.074  0.0846 -2.1948  0.7682
12855SOL     OW41102   7.642   9.967   4.752 -0.4465 -0.0818 -0.1693
12855SOL    HW141103   7.664  10.056   4.726  1.3386 -1.0752 -2.2735
12855SOL    HW241104   7.577   9.938   4.688  0.2268 -0.8359 -0.5307
12856SOL     OW41105   3.936   2.247   3.308 -0.6271 -0.2383 -0.1627
12856SOL    HW141106   3.987   2.280   3.382 -2.6092 -1.4184  1.7846
12856SOL    HW241107   3.848   2.282   3.321 -1.0716 -0.6774 -1.8156
12857SOL     OW41108   9.422   6.879   9.295  0.2972 -0.4083 -0.2973
12857SOL    HW141109   9.507   6.910   9.328  0.6919 -0.6406 -1.0960
12857SOL    HW241110   9.375   6.852   9.374  0.8083  0.1017  0.1915
12858SOL     OW41111   5.034   3.089   3.753  0.6253 -0.2091 -0.0812
12858SOL    HW141112   4.989   3.130   3.827  2.3786 -0.0661  0.9425
12858SOL    HW241113   5.015   3.145   3.678  0.0716  0.4935  0.5840
12859SOL     OW41114   7.395   7.442   9.784 -0.3601  0.0909 -0.6295
12859SOL    HW141115   7.425   7.386   9.856 -2.6155 -1.4122 -0.8124
12859SOL    HW241116   7.361   7.520   9.827  0.4978  0.2519 -0.2236
12860SOL     OW41117   7.785   4.626   3.743 -0.1055  0.3008  0.2818
12860SOL    HW141118   7.725   4.577   3.687  1.9551  0.0395 -1.8051
12860SOL    HW241119   7.812   4.562   3.810 -0.9305 -0.0469  0.2876
12861SOL     OW41120   7.278   7.408   9.326  0.2542  0.2349 -0.3156
12861SOL    HW141121   7.213   7.446   9.385 -0.3454  0.0449 -0.8513
12861SOL    HW241122   7.332   7.352   9.383 -0.5438 -0.2259 -0.0145
12862SOL     OW41123   7.167   1.085   4.877  0.3164 -0.6804  0.4483
12862SOL    HW141124   7.100   1.041   4.824  0.8790 -2.2272  1.0178
12862SOL    HW241125   7.122   1.108   4.958  0.5727 -2.0927  0.9996
12863SOL     OW41126   8.210   5.030   0.685  0.1483 -0.2753  0.2627
12863SOL    HW141127   8.126   5.047   0.728  0.0914  1.2103 -0.3964
12863SOL    HW241128   8.270   5.012   0.757  0.4287  3.7788  1.1827
12864SOL     OW41129   9.194   7.907   7.996 -0.0421  0.5887  0.2151
12864SOL    HW141130   9.275   7.942   7.961 -0.0468  1.6934  1.2830
12864SOL    HW241131   9.125   7.954   7.950 -0.1868 -2.3449 -2.7842
12865SOL     OW41132   3.040   8.569   2.570  0.4259 -0.4705 -0.5109
12865SOL    HW141133   3.067   8.477   2.575  0.1541 -0.4414  2.0275
12865SOL    HW241134   2.980   8.580   2.643 -0.6819  1.3832 -1.6605
12866SOL     OW41135   7.706   2.906   0.688  0.2701 -0.1847  0.4207
12866SOL    HW141136   7.617   2.938   0.699  0.4034  0.2587  0.2091
12866SOL    HW241137   7.755   2.982   0.656  0.5607 -0.6270 -0.1907
12867SOL     OW41138   9.190   8.699   8.586 -0.1017  0.3257  0.2779
12867SOL    HW141139   9.183   8.722   8.679  1.2571  0.7860  0.2757
12867SOL    HW241140   9.139   8.765   8.541 -0.9576 -0.0285  0.7152
12868SOL     OW41141   2.883   8.767   3.055  0.0294  0.6359  0.3082
12868SOL    HW141142   2.803   8.722   3.026  0.3216  1.1463 -1.3521
12868SOL    HW241143   2.954   8.722   3.010  0.4593  1.7899 -0.1933
12869SOL     OW41144   3.882   3.621   8.865 -0.1299 -0.1692 -0.0179
12869SOL    HW141145   3.866   3.540   8.913 -1.5497  0.5676  0.7795
12869SOL    HW241146   3.796   3.646   8.831 -0.1305  2.0990  1.5291
12870SOL     OW41147   8.573   7.179   4.778  0.3561  0.0784  0.2160
12870SOL    HW141148   8.590   7.254   4.720  0.6688  0.0288  0.2393
12870SOL    HW241149   8.592   7.102   4.724 -0.2789  0.0038  0.0943
12871SOL     OW41150   2.583   5.499   8.860 -0.0861 -0.0815  0.2398
12871SOL    HW141151   2.665   5.521   8.815  0.4073 -1.9871  0.1818
12871SOL    HW241152   2.517   5.549   8.813  1.0082  1.3335  0.1593
12872SOL     OW41153   9.068   1.132   8.893 -0.0052  0.1647  0.3741
12872SOL    HW141154   9.093   1.048   8.856  1.4107  1.1271 -0.9307
12872SOL    HW241155   8.995   1.162   8.839 -0.1325  0.0511  0.4817
12873SOL     OW41156   3.056   0.002   9.282 -0.0524 -0.0121 -0.2006
12873SOL    HW141157   3.122  -0.064   9.261 -0.3877 -0.8822  1.4719
12873SOL    HW241158   3.099   0.085   9.260  0.8482 -0.6891 -1.0479
12874SOL     OW41159   1.910  10.036   1.133  0.5085 -0.2732  0.4806
12874SOL    HW141160   1.954  10.035   1.048 -3.5858 -1.0733 -1.7888
12874SOL    HW241161   1.936   9.954   1.174  0.6658 -1.0476 -1.1076
12875SOL     OW41162   2.458   4.712   7.065 -0.1853  0.8006  0.2672
12875SOL    HW141163   2.530   4.720   7.127 -0.7558 -2.6517  1.4819
12875SOL    HW241164   2.488   4.759   6.987  2.3950  1.3802  1.5656
12876SOL     OW41165   5.824   7.033   8.208 -0.3878 -0.4336 -0.4279
12876SOL    HW141166   5.829   7.006   8.300 -1.5208 -0.1297 -0.2794
12876SOL    HW241167   5.832   7.129   8.211  1.3782 -0.5403 -0.7909
12877SOL     OW41168   1.763   4.582   7.614  0.0877  0.1510 -0.6307
12877SOL    HW141169   1.855   4.594   7.592  0.2238 -1.5354 -1.0452
12877SOL    HW241170   1.764   4.543   7.701 -0.1523 -1.9251 -1.5400
12878SOL     OW41171   3.210   1.138   8.215  0.4448 -0.2305 -0.5841
12878SOL    HW141172   3.267   1.062   8.198 -0.1661 -0.6925 -0.5949
12878SOL    HW241173   3.233   1.165   8.304  0.2579 -0.7945 -0.3586
12879SOL     OW41174   5.449   8.292   4.676  0.3472  0.1258  0.2127
12879SOL    HW141175   5.525   8.341   4.644  0.2100 -0.7047 -1.4418
12879SOL    HW241176   5.469   8.201   4.656 -0.4527 -0.2450  1.0800
12880SOL     OW41177   0.892   5.511   0.750 -0.2656  0.2653 -0.0353
12880SOL    HW141178   0.897   5.452   0.826  1.2583 -0.8638 -0.9852
12880SOL    HW241179   0.844   5.461   0.684 -0.7014  0.8612 -0.1783
12881SOL     OW41180   5.684   8.909   4.813 -0.0320  0.3647 -0.2200
12881SOL    HW141181   5.702   8.821   4.781  1.2036  0.4028  0.3363
12881SOL    HW241182   5.763   8.959   4.791 -0.4467  1.1689  0.0715
12882SOL     OW41183   0.181   5.754   7.346  0.1052 -0.5983 -0.3285
12882SOL    HW141184   0.241   5.779   7.276 -0.4421  0.7794 -0.3140
12882SOL    HW241185   0.237   5.747   7.424  0.2619  0.5574 -0.3378
12883SOL     OW41186   9.312   7.673   2.129  0.4672 -0.9144  0.0223
12883SOL    HW141187   9.322   7.621   2.050  0.9510 -0.7122 -0.0471
12883SOL    HW241188   9.217   7.686   2.138  0.3896 -1.2862 -0.2943
12884SOL     OW41189   7.408   3.211   5.266 -0.3264 -0.1678  0.3179
12884SOL    HW141190   7.393   3.142   5.201  0.2322 -0.2730  0.2976
12884SOL    HW241191   7.466   3.171   5.330 -1.1302 -0.1702  1.0608
12885SOL     OW41192   4.687   0.596   3.996 -0.9367 -0.0768  0.4517
12885SOL    HW141193   4.727   0.606   3.909 -0.5639 -0.5398  0.5658
12885SOL    HW241194   4.689   0.501   4.012 -1.0562  0.0024  0.9408
12886SOL     OW41195   9.237   0.067   4.642 -0.0997  0.1081  0.1573
12886SOL    HW141196   9.284   0.149   4.653 -0.3948  0.3246 -0.1464
12886SOL    HW241197   9.275   0.008   4.706  0.5479  0.2925 -0.0529
12887SOL     OW41198   4.282   5.179   2.925  0.5295  0.2022 -0.4030
12887SOL    HW141199   4.343   5.158   2.996  0.6540  1.2222 -0.2068
12887SOL    HW241200   4.210   5.117   2.936  0.0161  1.0774  1.2826
12888SOL     OW41201   5.726   1.094   9.508  0.0760 -0.1506  0.1618
12888SOL    HW141202   5.650   1.038   9.494  0.2331 -0.3301  0.0297
12888SOL    HW241203   5.788   1.068   9.439 -0.2670  0.9038 -0.5661
12889SOL     OW41204   5.401   5.378   5.872 -0.1369 -0.3608 -0.2682
12889SOL    HW141205   5.486   5.338   5.890 -0.0180 -0.2611 -0.6028
12889SOL    HW241206   5.408   5.411   5.782 -0.3982 -0.0118 -0.1633
12890SOL     OW41207   6.887   1.586   5.554  0.3073 -0.1547  0.1372
12890SOL    HW141208   6.907   1.502   5.596 -0.4722 -1.0346 -1.2213
12890SOL    HW241209   6.941   1.586   5.475  1.0752  1.0847  0.6563
12891SOL     OW41210   6.407   2.246   7.956 -0.1733  0.2953  0.4025
12891SOL    HW141211   6.362   2.184   8.013 -1.6253  0.0549 -0.9692
12891SOL    HW241212   6.384   2.332   7.992 -0.1340  0.1148  0.8643
12892SOL     OW41213   5.349   3.486   9.174 -0.1827 -0.8469  0.6010
12892SOL    HW141214   5.374   3.487   9.266  1.9241 -1.1256  0.0592
12892SOL    HW241215   5.420   3.533   9.129 -0.6993 -1.5283 -0.9766
12893SOL     OW41216   7.251   9.381   0.984 -0.1459 -1.2357  0.3495
12893SOL    HW141217   7.180   9.396   1.047 -0.3566 -0.7315 -0.0067
12893SOL    HW241218   7.321   9.342   1.037  0.7026  1.7127  1.4946
12894SOL     OW41219   8.838   8.047   8.954  0.2690 -0.1466 -0.2082
12894SOL    HW141220   8.771   8.073   9.017  0.7143  1.1899 -0.2857
12894SOL    HW241221   8.791   7.993   8.891 -0.9910  1.7235 -0.9130
12895SOL     OW41222   3.811   6.715   4.720  0.7980  0.3549 -0.2648
12895SOL    HW141223   3.720   6.685   4.722  0.8944  0.1127  0.4575
12895SOL    HW241224   3.821   6.767   4.800  1.3892  0.1131 -0.1819
12896SOL     OW41225   0.832   1.324   5.654 -0.3105  0.2493 -0.3772
12896SOL    HW141226   0.851   1.360   5.567 -0.0970  0.1921 -0.3533
12896SOL    HW241227   0.739   1.302   5.650  0.1031 -1.4362 -1.1927
12897SOL     OW41228   7.394   7.668   9.943 -0.1626  0.5199 -0.5262
12897SOL    HW141229   7.453   7.732   9.903  0.9890  0.3056  0.7862
12897SOL    HW241230   7.431   7.653  10.031 -1.8815 -0.0045  0.1190
12898SOL     OW41231   6.012   6.311   1.451  0.2823 -0.5801 -0.3673
12898SOL    HW141232   6.012   6.380   1.518  0.4710  0.8326 -1.7710
12898SOL    HW241233   6.029   6.230   1.499 -3.7021 -0.2099  1.8857
12899SOL     OW41234   1.303   6.807   4.771 -0.1402  0.3993 -0.0818
12899SOL    HW141235   1.253   6.737   4.811 -0.6668  0.7917 -0.0453
12899SOL    HW241236   1.392   6.773   4.764 -0.6796 -0.7757 -1.3218
12900SOL     OW41237   1.200   6.814   6.891  0.7090 -0.1889  0.0892
12900SOL    HW141238   1.279   6.774   6.854  1.5896  2.0381 -0.5362
12900SOL    HW241239   1.129   6.784   6.835  1.2948 -1.1909 -0.1185
12901SOL     OW41240   1.353   6.037   5.978 -0.4567  0.1959 -0.0670
12901SOL    HW141241   1.285   6.070   6.036  1.0270  0.2372  1.7076
12901SOL    HW241242   1.368   6.109   5.916 -1.7343  0.3361 -0.2082
12902SOL     OW41243   1.897   5.695   0.793 -0.0543  0.5551  0.6024
12902SOL    HW141244   1.851   5.736   0.866 -1.1974 -1.3622  0.9906
12902SOL    HW241245   1.965   5.641   0.834  0.4110  0.8081  0.1726
12903SOL     OW41246   9.394   0.883   8.240  0.5694 -0.4321  0.3232
12903SOL    HW141247   9.313   0.839   8.212  0.9258 -1.7441  1.3144
12903SOL    HW241248   9.368   0.934   8.317  0.3123  0.5528 -0.4061
12904SOL     OW41249   7.254   7.822   2.650 -0.1812  0.0846 -0.3631
12904SOL    HW141250   7.175   7.768   2.645 -0.4212  0.4381 -0.4704
12904SOL    HW241251   7.240   7.890   2.584  0.0454  0.3717 -0.1157
12905SOL     OW41252   8.664   3.343   6.193  0.0257  0.3746 -0.4213
12905SOL    HW141253   8.598   3.327   6.261  0.5174 -0.0198 -0.0355
12905SOL    HW241254   8.739   3.377   6.241  0.7053 -0.7929 -0.6529
12906SOL     OW41255   1.316   1.699   4.958  0.0259  0.0885  0.3763
12906SOL    HW141256   1.400   1.654   4.958 -0.5530 -1.0674  2.1101
12906SOL    HW241257   1.253   1.633   4.928 -0.0893  1.3659 -2.3005
12907SOL     OW41258   6.298   6.375   1.688  0.1662  0.1757  0.3781
12907SOL    HW141259   6.280   6.440   1.621  0.8543 -0.4241 -0.4030
12907SOL    HW241260   6.388   6.395   1.717  0.3156 -0.3173  0.2590
12908SOL     OW41261  10.073   9.160   6.122  0.1422  0.1686 -0.0093
12908SOL    HW141262  10.047   9.069   6.104  1.7048 -0.4437  0.7204
12908SOL    HW241263  10.016   9.213   6.066  0.2805 -1.3520 -1.6401
12909SOL     OW41264   4.431   0.837   9.546 -0.0705  0.1448 -0.1498
12909SOL    HW141265   4.508   0.846   9.491  0.1282 -1.5823 -0.1938
12909SOL    HW241266   4.364   0.891   9.504  0.6840  0.4746 -0.9287
12910SOL     OW41267   0.959   4.712   6.373 -0.1881 -0.1905  0.1485
12910SOL    HW141268   0.913   4.640   6.417 -1.1453  0.5017  0.2871
12910SOL    HW241269   1.050   4.683   6.369 -0.6924 -1.7225 -0.4491
12911SOL     OW41270   1.519   9.745   3.903 -0.8348 -0.0669 -0.0459
12911SOL    HW141271   1.537   9.669   3.959  1.3255 -0.7609 -1.6022
12911SOL    HW241272   1.453   9.713   3.841 -0.7949 -0.3167  0.0371
12912SOL     OW41273   5.659   6.886   8.702 -0.4000 -0.4737 -0.2107
12912SOL    HW141274   5.568   6.904   8.723 -0.1567  0.5920  0.0059
12912SOL    HW241275   5.701   6.870   8.786 -0.0700  0.6557 -0.1426
12913SOL     OW41276   2.940   5.319   9.281 -0.0687 -0.4933 -0.1136
12913SOL    HW141277   2.898   5.404   9.269  0.2649 -0.2806  0.2099
12913SOL    HW241278   2.871   5.255   9.262 -0.1619 -0.1543 -0.8940
12914SOL     OW41279   6.206   2.863   9.138 -0.4395 -0.2993  0.1765
12914SOL    HW141280   6.205   2.923   9.212  1.3502 -0.4363  0.3237
12914SOL    HW241281   6.299   2.844   9.123 -0.7090  0.4973 -2.7402
12915SOL     OW41282   1.797   5.575   5.943 -0.1376  0.0553  0.1031
12915SOL    HW141283   1.750   5.503   5.900  0.6710 -0.3454 -0.1258
12915SOL    HW241284   1.850   5.614   5.874  0.5427 -0.0675  0.5505
12916SOL     OW41285   0.917   2.767   6.127  0.5036  0.1055 -0.0260
12916SOL    HW141286   0.939   2.799   6.214  1.9180 -1.2196  0.1249
12916SOL    HW241287   0.822   2.756   6.128 -0.0353  3.9726 -0.0018
12917SOL     OW41288   6.930   6.798  10.011  0.7050  0.5208 -0.0420
12917SOL    HW141289   6.858   6.859  10.022  0.4374  0.1203  0.4249
12917SOL    HW241290   6.888   6.714   9.994  1.0192 -0.1270  2.2814
12918SOL     OW41291   4.195   8.890   9.630 -0.3865 -0.1532 -0.2482
12918SOL    HW141292   4.171   8.952   9.561  1.1338  0.8945  0.1496
12918SOL    HW241293   4.287   8.907   9.648 -0.6697 -0.6019  1.8358
12919SOL     OW41294   7.119   8.755   1.870  0.4509 -0.3786  0.2136
12919SOL    HW141295   7.181   8.829   1.872  0.8680 -0.7425  1.1357
12919SOL    HW241296   7.155   8.697   1.802  0.3780  0.0396 -0.1913
12920SOL     OW41297  10.066   2.012   6.277 -0.1358  0.3823 -0.6275
12920SOL    HW141298  10.090   2.072   6.206  1.1516  0.4220 -0.1711
12920SOL    HW241299  10.095   2.057   6.357  0.3670 -0.6121 -0.2426
12921SOL     OW41300   0.022   9.328   9.392  0.0047 -0.2088  0.1358
12921SOL    HW141301   0.105   9.374   9.387  0.2695 -0.7717 -0.8743
12921SOL    HW241302   0.012   9.305   9.484  1.7143 -1.4853  0.0282
12922SOL     OW41303   4.721   8.438   2.383  0.2431 -0.4037 -0.3679
12922SOL    HW141304   4.691   8.393   2.462 -0.8273  0.3866 -0.3236
12922SOL    HW241305   4.754   8.522   2.414 -0.9847  0.2695 -0.8415
12923SOL     OW41306   3.221   0.658   2.129 -0.1766  0.0347 -0.3075
12923SOL    HW141307   3.142   0.604   2.137  0.3259 -0.7702 -0.8253
12923SOL    HW241308   3.199   0.739   2.176 -1.5643  0.0930 -1.0324
12924SOL     OW41309   7.379   9.315   7.903  0.2005  0.0210 -0.4153
12924SOL    HW141310   7.416   9.402   7.919 -0.3508  0.2260 -0.2320
12924SOL    HW241311   7.325   9.326   7.825 -0.6494  0.0793  0.1696
12925SOL     OW41312   8.686  10.183   6.734 -0.0763  0.0780 -0.3531
12925SOL    HW141313   8.606  10.149   6.773 -0.7395  1.9970  0.0047
12925SOL    HW241314   8.663  10.272   6.705  1.8521  0.5888 -0.3943
12926SOL     OW41315   5.997   1.250   2.234 -0.2128  0.0555 -0.3227
12926SOL    HW141316   5.928   1.241   2.168 -0.1208 -2.9841 -0.0865
12926SOL    HW241317   5.951   1.261   2.317 -0.5009 -2.3455 -0.1155
12927SOL     OW41318   1.455   3.408   4.278 -0.5013  0.0456 -0.0630
12927SOL    HW141319   1.424   3.416   4.188 -0.4342 -0.6417 -0.1549
12927SOL    HW241320   1.499   3.323   4.280 -0.6710 -0.0261  0.6676
12928SOL     OW41321   4.239   0.369   8.357 -0.1547  0.4560 -0.0507
12928SOL    HW141322   4.173   0.437   8.374  0.7539  1.4563 -0.5118
12928SOL    HW241323   4.220   0.339   8.268 -0.4606  0.2029  0.0975
12929SOL     OW41324   1.604   7.653   2.980 -0.6563  0.3118  0.1027
12929SOL    HW141325   1.525   7.600   2.971 -0.1910 -0.2832 -0.4904
12929SOL    HW241326   1.676   7.591   2.971 -0.1098  0.9665 -0.0815
12930SOL     OW41327   4.071   3.411   4.907 -0.0989  0.2970 -0.0439
12930SOL    HW141328   3.982   3.403   4.873 -0.5364  1.1857  0.8251
12930SOL    HW241329   4.065   3.379   4.997  0.9234 -1.5526 -0.6183
12931SOL     OW41330   6.726   5.728   1.444  0.4257  0.2507  0.0879
12931SOL    HW141331   6.789   5.738   1.373  1.0920  0.4522  0.7055
12931SOL    HW241332   6.767   5.666   1.505  0.2130  0.7067  0.7010
12932SOL     OW41333   0.485   9.621   9.295  0.0422  0.0571 -0.6050
12932SOL    HW141334   0.513   9.683   9.362  0.2480 -1.4401  0.7478
12932SOL    HW241335   0.567   9.593   9.253  0.4060 -2.2701  1.5074
12933SOL     OW41336   4.835   1.544   4.967  0.1422  0.2589  0.1336
12933SOL    HW141337   4.905   1.601   4.998  0.3758 -0.1681  0.4012
12933SOL    HW241338   4.806   1.583   4.885 -0.4409  1.3763  0.8585
12934SOL     OW41339   0.036   9.206   7.424 -0.3598  0.2420  0.0328
12934SOL    HW141340  -0.015   9.282   7.400 -0.0603  0.2237 -0.6879
12934SOL    HW241341   0.127   9.236   7.421 -0.2868  0.0769  0.5615
12935SOL     OW41342   5.563   4.351   1.351 -0.3985  0.2415 -0.2571
12935SOL    HW141343   5.624   4.282   1.323 -0.0989 -0.1956  1.3936
12935SOL    HW241344   5.613   4.404   1.413 -0.6516  1.9283 -1.4650
12936SOL     OW41345   1.063   3.840   9.528 -0.2806  0.2663  0.6240
12936SOL    HW141346   1.116   3.760   9.529 -0.6441  0.0426  2.3099
12936SOL    HW241347   1.058   3.863   9.435  0.2236 -1.4052  0.1576
12937SOL     OW41348   8.035   1.601   7.543  0.5812  0.4097  0.0362
12937SOL    HW141349   8.072   1.553   7.469  2.8425  1.5453  0.4002
12937SOL    HW241350   7.997   1.680   7.503  2.9292  1.6562  0.1792
12938SOL     OW41351   4.354   4.374   4.223  0.0623  0.5585 -0.3845
12938SOL    HW141352   4.426   4.430   4.195 -1.0340  1.6104 -1.1472
12938SOL    HW241353   4.288   4.435   4.257 -1.1345 -0.2691 -1.1984
12939SOL     OW41354   6.836   7.043   3.063 -0.0115 -0.4468 -0.2320
12939SOL    HW141355   6.777   7.059   3.137  0.4371 -1.8305  0.4352
12939SOL    HW241356   6.873   7.129   3.043  0.0079 -0.0979  1.2730
12940SOL     OW41357   0.984   6.962   0.074 -0.0040 -0.1367  0.1766
12940SOL    HW141358   0.943   7.028   0.130 -0.8895  1.3953 -2.2154
12940SOL    HW241359   0.996   6.886   0.132  1.3407  2.1775  3.0938
12941SOL     OW41360   5.584  10.021   3.778  0.4361 -0.6292 -0.1094
12941SOL    HW141361   5.599   9.948   3.838 -0.5974 -0.2344  0.6594
12941SOL    HW241362   5.518   9.989   3.717 -1.2950  0.1795  1.2614
12942SOL     OW41363   9.869   4.565   0.440 -0.0527  0.1678 -0.3099
12942SOL    HW141364   9.933   4.634   0.425  0.4131 -0.4275 -1.0741
12942SOL    HW241365   9.785   4.611   0.441  0.2699  0.7711 -0.6337
12943SOL     OW41366   2.985   6.313   7.394 -0.0147  0.2450 -0.3181
12943SOL    HW141367   2.896   6.281   7.409 -0.9980  1.9694 -2.1830
12943SOL    HW241368   3.000   6.375   7.465  0.1445 -0.9004  0.6570
12944SOL     OW41369   8.458   5.067   6.343  0.4818 -0.1715  0.3929
12944SOL    HW141370   8.366   5.044   6.351  0.4259 -0.1078 -0.0512
12944SOL    HW241371   8.476   5.120   6.420 -0.0614  0.4922  0.0686
12945SOL     OW41372   0.811   8.561   6.869 -0.0948  0.1510  0.0430
12945SOL    HW141373   0.834   8.640   6.820  1.0589 -0.2257 -0.0279
12945SOL    HW241374   0.894   8.527   6.900 -0.4534 -1.7959 -1.0514
12946SOL     OW41375   7.082   6.700   2.863 -0.3912  0.7269 -0.5145
12946SOL    HW141376   7.061   6.781   2.909 -0.1316  0.5538 -0.0812
12946SOL    HW241377   7.121   6.644   2.930  0.9527  0.8491 -1.1818
12947SOL     OW41378   5.404   5.396   6.359  0.2096 -0.0040 -0.6063
12947SOL    HW141379   5.431   5.417   6.270  0.1736  0.1311 -0.5859
12947SOL    HW241380   5.430   5.305   6.372 -0.4140 -0.2413 -0.9950
12948SOL     OW41381   1.694   3.852   5.219  0.1331 -0.8672  0.0962
12948SOL    HW141382   1.607   3.812   5.216  0.2625 -1.1451  0.0845
12948SOL    HW241383   1.715   3.871   5.127 -0.8267  1.1639  0.2662
12949SOL     OW41384   5.999   1.275   5.119 -0.1775 -0.0484  0.0463
12949SOL    HW141385   5.942   1.218   5.171 -0.7669  1.6015  1.2510
12949SOL    HW241386   6.016   1.225   5.039 -0.5048 -1.9991  1.1513
12950SOL     OW41387   3.582   9.329   7.876  0.2551  0.4828 -0.1022
12950SOL    HW141388   3.672   9.299   7.888  0.4325  0.6107 -1.0605
12950SOL    HW241389   3.584   9.380   7.795 -0.5109  1.1789  0.3089
12951SOL     OW41390   4.975   1.818   8.722  0.4827 -0.4819 -0.2825
12951SOL    HW141391   5.046   1.882   8.713 -0.2277  0.6035  1.5781
12951SOL    HW241392   4.945   1.827   8.812 -1.2976 -1.7137 -0.7125
12952SOL     OW41393   4.976   5.767  10.020 -0.4809 -0.8854 -0.1761
12952SOL    HW141394   5.029   5.815   9.957  0.2200 -1.0572  0.2680
12952SOL    HW241395   5.035   5.752  10.094 -1.8194  0.9667  1.3274
12953SOL     OW41396   4.627   0.364   7.150 -0.5881 -0.2769  0.5625
12953SOL    HW141397   4.692   0.299   7.177 -0.2052  0.6244  1.8836
12953SOL    HW241398   4.590   0.396   7.233  1.3788  3.3798  0.1377
12954SOL     OW41399   1.573   4.784   0.315 -0.1774  0.5558  0.4035
12954SOL    HW141400   1.502   4.722   0.331  0.7706 -0.1285  2.1509
12954SOL    HW241401   1.564   4.849   0.385  1.4856 -0.0702  1.2142
12955SOL     OW41402   3.251   4.488   2.883  0.0674  0.0406  0.0620
12955SOL    HW141403   3.282   4.537   2.959  1.3133  1.9743 -1.6148
12955SOL    HW241404   3.293   4.402   2.890 -1.5289 -0.5938  2.6375
12956SOL     OW41405   1.412   0.790   1.717 -0.4078  0.7478  0.4486
12956SOL    HW141406   1.458   0.787   1.801 -2.3909  1.1038  1.6005
12956SOL    HW241407   1.394   0.883   1.703 -0.9243  0.5983  0.1175
12957SOL     OW41408   3.072   1.379   4.022 -0.2432 -0.7118  0.0904
12957SOL    HW141409   3.138   1.394   4.089 -0.8826  0.3506  0.4907
12957SOL    HW241410   3.090   1.445   3.955 -1.5826  0.3346  0.7352
12958SOL     OW41411   2.282   7.860   3.689  0.8519  0.3960  0.0457
12958SOL    HW141412   2.350   7.899   3.634 -0.1910 -0.8621 -2.1691
12958SOL    HW241413   2.219   7.931   3.703  1.1929  0.7550 -0.2201
12959SOL     OW41414   0.684   4.375   5.770  0.0589  0.1617 -0.3858
12959SOL    HW141415   0.763   4.329   5.743  0.0121  0.8087 -1.6605
12959SOL    HW241416   0.613   4.313   5.753  0.0192  0.5928 -1.8928
12960SOL     OW41417   3.901   8.965   2.101  0.9572  0.2154 -0.1908
12960SOL    HW141418   3.843   9.024   2.054  1.1826  2.6062  2.3766
12960SOL    HW241419   3.851   8.938   2.178  1.0229 -2.6462 -1.1057
12961SOL     OW41420   8.513   9.040   5.507 -0.3863 -0.0418 -0.2967
12961SOL    HW141421   8.479   9.062   5.594  0.1970 -0.0357 -0.0638
12961SOL    HW241422   8.497   9.119   5.455  0.2409  0.3683  0.1057
12962SOL     OW41423   5.107   9.137   8.645  0.9014  0.2461  0.1222
12962SOL    HW141424   5.023   9.177   8.664  0.6163 -0.1893 -0.2170
12962SOL    HW241425   5.090   9.043   8.646  0.9694  0.1891 -1.8475
12963SOL     OW41426   5.878   6.634   9.162  0.1952 -0.3021 -0.4065
12963SOL    HW141427   5.930   6.673   9.232  0.6245  0.3286 -1.0726
12963SOL    HW241428   5.788   6.640   9.193  0.4737 -1.0918  0.6051
12964SOL     OW41429   8.145   6.704   3.113 -0.2609 -0.6573  0.2857
12964SOL    HW141430   8.126   6.613   3.134 -0.7728 -0.5984  0.0884
12964SOL    HW241431   8.158   6.704   3.018  0.5006 -0.6550  0.3852
12965SOL     OW41432   4.995   8.986   3.330 -0.3500  0.1870 -0.9389
12965SOL    HW141433   4.972   8.953   3.243 -0.5268 -0.5268 -0.6295
12965SOL    HW241434   5.076   8.941   3.353  0.2685  1.1760 -1.1776
12966SOL     OW41435   3.168   1.958   9.456 -0.0905  0.0022  0.0720
12966SOL    HW141436   3.105   2.023   9.488  0.3334  1.1105 -1.3387
12966SOL    HW241437   3.117   1.877   9.453 -1.1224  0.6336  0.0883
12967SOL     OW41438   0.255   1.853   5.021  0.2330 -0.0680 -0.3483
12967SOL    HW141439   0.231   1.826   4.933 -1.0682  1.5339 -0.5015
12967SOL    HW241440   0.331   1.911   5.008 -1.1617  1.7433 -0.6120
12968SOL     OW41441   8.819   6.332   1.229  0.3187  0.1264 -0.7503
12968SOL    HW141442   8.902   6.297   1.261 -0.3062  1.2162  2.1412
12968SOL    HW241443   8.842   6.416   1.188  0.3896  1.5802  2.1594
12969SOL     OW41444   7.523   3.496   8.657 -0.2464  0.3638 -0.0052
12969SOL    HW141445   7.497   3.588   8.662 -0.0540  0.4228 -0.0741
12969SOL    HW241446   7.604   3.491   8.707 -1.9149 -0.4090  2.7389
12970SOL     OW41447   9.478   8.542   2.648  0.2895 -0.0823 -0.8485
12970SOL    HW141448   9.484   8.452   2.681 -0.6449  0.4096  0.7080
12970SOL    HW241449   9.388   8.550   2.617 -0.0017  0.6974  0.1807
12971SOL     OW41450   5.897   3.165   7.897 -0.0463  0.0539  0.2070
12971SOL    HW141451   5.860   3.080   7.875 -1.4454  1.3642 -2.6527
12971SOL    HW241452   5.824   3.226   7.894  0.9891  1.4576  1.9403
12972SOL     OW41453   7.052   7.204   0.825 -0.3867 -0.3305  0.4424
12972SOL    HW141454   7.079   7.255   0.902  0.4636  2.1857 -1.4512
12972SOL    HW241455   6.966   7.238   0.802 -0.5559 -0.9377  0.1622
12973SOL     OW41456   1.788   1.317   3.398 -0.0101 -0.0139  0.1139
12973SOL    HW141457   1.727   1.317   3.472  1.8813  0.5188  1.7209
12973SOL    HW241458   1.831   1.402   3.403 -0.4742  0.3755 -2.1589
12974SOL     OW41459   8.398   8.215   8.347  0.0845 -0.6956  0.1703
12974SOL    HW141460   8.317   8.243   8.388  0.1757 -1.3779  0.8402
12974SOL    HW241461   8.452   8.184   8.420  0.9481 -0.2315 -0.2647
12975SOL     OW41462   7.960   2.862   2.938  0.3353  0.5017 -0.2526
12975SOL    HW141463   7.998   2.798   2.877  0.3495 -0.5076  0.8027
12975SOL    HW241464   8.011   2.942   2.923 -0.0244  0.4466 -1.9615
12976SOL     OW41465   0.704   9.868   3.002 -0.6898 -0.2189 -0.8331
12976SOL    HW141466   0.744   9.883   2.916 -0.7299 -1.3800 -1.0639
12976SOL    HW241467   0.665   9.952   3.025 -1.0931 -0.0210 -2.1770
12977SOL     OW41468   9.748   4.199   7.756  0.5779 -0.0737  0.0902
12977SOL    HW141469   9.822   4.240   7.799  0.6829  1.5698 -1.5883
12977SOL    HW241470   9.782   4.168   7.672 -0.4281 -0.1088 -0.3204
12978SOL     OW41471   4.377   7.888   4.489  0.1943  0.2445  0.6337
12978SOL    HW141472   4.420   7.819   4.539  1.1454  0.3542 -0.0135
12978SOL    HW241473   4.433   7.965   4.501 -0.1380  0.5513  0.2665
12979SOL     OW41474   4.710  10.168   1.850 -0.0332 -0.6563 -0.1941
12979SOL    HW141475   4.766  10.171   1.772  1.3485  1.4077  0.8436
12979SOL    HW241476   4.654  10.246   1.843  1.0438  0.3055  1.5366
12980SOL     OW41477   5.576   1.799   5.728  0.4511 -0.3213 -0.3503
12980SOL    HW141478   5.496   1.766   5.768 -0.0485  0.7911 -0.4003
12980SOL    HW241479   5.604   1.729   5.669 -1.6888  0.1080 -1.9769
12981SOL     OW41480   0.572   9.740   2.652  0.0055  0.5877  0.5068
12981SOL    HW141481   0.525   9.803   2.598 -1.3494  0.4085  1.4542
12981SOL    HW241482   0.631   9.794   2.705 -0.2872  0.9613  0.4555
12982SOL     OW41483   9.508   1.984   4.360 -0.4472 -0.2892 -0.4476
12982SOL    HW141484   9.535   2.026   4.442 -0.3945 -0.9816 -0.1039
12982SOL    HW241485   9.567   2.019   4.294 -0.1714 -0.0941 -0.0977
12983SOL     OW41486   5.447   2.057   0.609  0.0663 -0.1652 -0.1180
12983SOL    HW141487   5.496   2.113   0.549  0.5412 -1.3335 -0.8279
12983SOL    HW241488   5.511   2.028   0.674  0.3769 -1.8010 -1.1223
12984SOL     OW41489   0.090   0.916   4.683  0.5332 -0.2819  0.0265
12984SOL    HW141490   0.085   0.857   4.607  0.3037 -0.0110 -0.1669
12984SOL    HW241491   0.139   0.865   4.748  2.2358  0.1275 -0.8977
12985SOL     OW41492   7.303   4.926   6.531  0.5806  0.4597 -0.0053
12985SOL    HW141493   7.394   4.899   6.516  0.1907 -0.7940 -0.1800
12985SOL    HW241494   7.268   4.943   6.444  0.3650 -0.0152 -0.0141
12986SOL     OW41495   1.672   6.394   4.190 -0.5488  0.3728  0.2413
12986SOL    HW141496   1.707   6.319   4.238 -0.0735 -1.2967 -2.5688
12986SOL    HW241497   1.746   6.428   4.140 -0.3782  3.7845  2.6712
12987SOL     OW41498   4.948   0.274   3.796 -0.1050  0.6694 -0.2964
12987SOL    HW141499   4.883   0.331   3.837 -0.0122  0.7004 -0.1912
12987SOL    HW241500   4.978   0.324   3.719 -0.7498  0.3331 -0.7724
12988SOL     OW41501   2.056   0.931   3.694 -0.0320 -0.4516  0.3359
12988SOL    HW141502   2.121   0.978   3.747  0.2225  0.5744 -0.8567
12988SOL    HW241503   1.972   0.964   3.725  0.0954 -0.3050  0.5277
12989SOL     OW41504   6.561   9.328   3.221  0.0777 -0.0474 -0.6521
12989SOL    HW141505   6.635   9.382   3.192  0.6468 -0.5115 -0.1016
12989SOL    HW241506   6.549   9.264   3.151  1.6294 -1.3422  0.2121
12990SOL     OW41507   6.080   2.869   3.183 -0.6238  0.3343 -0.1729
12990SOL    HW141508   6.105   2.831   3.099  0.9099  1.2572 -0.1502
12990SOL    HW241509   6.057   2.960   3.162 -2.2064  0.0063  0.1012
12991SOL     OW41510   7.739   6.059   9.095  0.0404  0.1722  0.1674
12991SOL    HW141511   7.679   6.126   9.061  0.9393  0.8269 -0.1373
12991SOL    HW241512   7.785   6.103   9.166  3.0099  0.9345 -2.1636
12992SOL     OW41513   9.564   1.311   8.705 -0.2911  0.0346 -0.3398
12992SOL    HW141514   9.638   1.259   8.735 -1.0361 -1.9171 -1.7571
12992SOL    HW241515   9.558   1.292   8.611 -1.7984  1.1570 -0.4904
12993SOL     OW41516   0.706   0.608   8.451 -0.1214 -0.0300 -0.0192
12993SOL    HW141517   0.647   0.670   8.493  0.2272 -0.1536  0.6646
12993SOL    HW241518   0.680   0.523   8.486 -1.2486 -0.3901 -1.7097
12994SOL     OW41519   1.648   5.793   6.437 -0.5568  0.5252 -0.7095
12994SOL    HW141520   1.725   5.777   6.382 -0.9047 -1.7286 -0.5538
12994SOL    HW241521   1.574   5.763   6.385 -0.9714 -0.8793  0.6547
12995SOL     OW41522   4.180   7.264   0.641  0.2703 -0.3349 -0.3211
12995SOL    HW141523   4.188   7.338   0.701  1.3538  0.2892 -1.2230
12995SOL    HW241524   4.262   7.216   0.651  0.9772  0.4437 -2.1802
12996SOL     OW41525   7.771   5.161   4.525 -0.2334 -0.2374  0.2067
12996SOL    HW141526   7.688   5.115   4.537 -0.6265  0.7259  1.3249
12996SOL    HW241527   7.752   5.252   4.548  0.5902  0.4622 -1.7278
12997SOL     OW41528   8.091   2.634   1.627  0.1686 -0.3991 -0.1439
12997SOL    HW141529   8.044   2.685   1.694  1.3611  0.9156 -0.2823
12997SOL    HW241530   8.123   2.557   1.674  0.8129  0.4070  0.7635
12998SOL     OW41531   7.987   4.153   3.041  0.5393  0.2922  0.5313
12998SOL    HW141532   8.049   4.183   3.108  0.9081  2.2474 -0.6445
12998SOL    HW241533   8.015   4.064   3.020  0.9506 -0.0352  2.3216
12999SOL     OW41534   9.916   1.686   3.822  1.2048 -0.1384 -0.1372
12999SOL    HW141535   9.953   1.599   3.835  0.0927 -0.3637  1.7414
12999SOL    HW241536   9.989   1.746   3.835  1.8702 -0.7551 -0.9459
13000SOL     OW41537   0.289   2.864   3.982 -0.1235  0.1697  0.6006
13000SOL    HW141538   0.208   2.814   3.980 -0.0958  0.1361  0.1163
13000SOL    HW241539   0.344   2.822   3.915  1.1005 -1.1725  2.3824
13001SOL     OW41540   5.243   9.701   5.711 -0.0664 -0.5829  0.2139
13001SOL    HW141541   5.280   9.614   5.697  1.5165  0.3250 -1.4837
13001SOL    HW241542   5.317   9.761   5.699 -1.4127  1.0784  0.0107
13002SOL     OW41543   4.580   8.470   9.968 -0.2605  0.0875  0.2996
13002SOL    HW141544   4.506   8.420   9.933 -0.8846  0.9936  0.3040
13002SOL    HW241545   4.626   8.408  10.024  1.5947 -1.8398 -3.1917
13003SOL     OW41546   4.917   8.600   3.270 -0.5590  0.2944 -0.0114
13003SOL    HW141547   4.837   8.622   3.317 -0.9571 -0.8807 -0.1087
13003SOL    HW241548   4.932   8.674   3.212 -2.0486  0.1573 -0.6013
13004SOL     OW41549   8.661   7.125   6.026  0.3103 -0.3005 -0.1131
13004SOL    HW141550   8.628   7.187   5.961 -0.8331 -0.2704  0.5019
13004SOL    HW241551   8.586   7.070   6.049  0.3095  0.6512  2.2864
13005SOL     OW41552   9.212   6.393   1.077  1.0818 -0.3097  0.2018
13005SOL    HW141553   9.172   6.337   1.144 -0.7261  1.0729  0.3044
13005SOL    HW241554   9.306   6.385   1.093  0.8091 -2.3975  0.9426
13006SOL     OW41555   5.956   9.379   0.067 -0.3176 -0.2544 -0.3907
13006SOL    HW141556   5.951   9.411   0.157  1.5946 -0.0306 -0.3400
13006SOL    HW241557   5.910   9.445   0.015 -1.0061 -0.1414  0.3517
13007SOL     OW41558   3.781   9.006   2.536  0.5556 -0.0757  0.1143
13007SOL    HW141559   3.715   9.073   2.554 -1.2146 -1.4268 -1.1293
13007SOL    HW241560   3.795   8.962   2.620  0.7131  0.9443  0.6299
13008SOL     OW41561   9.305   8.607   2.313  0.0433 -0.6883 -0.6609
13008SOL    HW141562   9.383   8.553   2.301  1.3471  0.2962  2.7232
13008SOL    HW241563   9.266   8.574   2.394 -1.2601  0.9408 -0.5988
13009SOL     OW41564   4.726   6.700   1.272 -0.2109  0.0297  0.1634
13009SOL    HW141565   4.675   6.635   1.223 -0.7504  0.8426 -0.3553
13009SOL    HW241566   4.661   6.747   1.324  0.1191  0.4818  0.1653
13010SOL     OW41567   5.444   4.422   1.809 -0.0408  0.7410 -0.7085
13010SOL    HW141568   5.425   4.493   1.747  1.9595  2.4808  0.5883
13010SOL    HW241569   5.422   4.458   1.894  2.8998  0.5861  0.1753
13011SOL     OW41570   2.733   6.854   1.663  0.1390 -0.1345  0.5643
13011SOL    HW141571   2.751   6.831   1.571  0.8501  1.3698  0.3108
13011SOL    HW241572   2.818   6.882   1.697 -0.4824  1.0022  1.1844
13012SOL     OW41573   2.742   8.208   8.090  0.0233  0.3830 -0.1266
13012SOL    HW141574   2.822   8.167   8.059  0.4394  0.2108  1.1555
13012SOL    HW241575   2.674   8.177   8.030  0.8252  0.1386 -0.9155
13013SOL     OW41576   6.648   8.430   7.088  0.1575  0.1560  0.0404
13013SOL    HW141577   6.615   8.514   7.054 -0.4355  1.0828  2.8198
13013SOL    HW241578   6.651   8.373   7.011  0.3094  2.6296 -1.8529
13014SOL     OW41579   1.008   4.311   4.738 -0.3416  0.0178  0.0955
13014SOL    HW141580   1.014   4.296   4.832  2.9801  0.5860  0.0430
13014SOL    HW241581   0.967   4.397   4.730  0.5181  0.5217  1.0737
13015SOL     OW41582   0.155   8.543   9.289 -0.2733  0.0951 -0.2757
13015SOL    HW141583   0.225   8.606   9.305 -1.6351  1.5801 -0.0635
13015SOL    HW241584   0.151   8.491   9.370  1.0925 -0.5296 -0.5914
13016SOL     OW41585   5.122  10.181   5.791 -0.3105  0.3800 -0.0377
13016SOL    HW141586   5.202  10.139   5.824 -0.4110  0.2279  0.0146
13016SOL    HW241587   5.153  10.256   5.740 -0.1792  1.3692  1.4488
13017SOL     OW41588   9.351   1.508   5.279 -1.0528  0.5338 -0.3749
13017SOL    HW141589   9.410   1.549   5.342  2.2972 -2.8327 -1.1565
13017SOL    HW241590   9.362   1.560   5.199  0.7285  0.1086 -0.4325
13018SOL     OW41591   6.491   8.945   8.706  0.4291  0.0259 -0.3030
13018SOL    HW141592   6.547   9.004   8.656  0.6967 -0.1061 -0.1601
13018SOL    HW241593   6.420   8.923   8.647 -1.5595  3.2245  0.7366
13019SOL     OW41594   9.814   3.520   9.499  0.2995 -0.0700 -0.0233
13019SOL    HW141595   9.826   3.593   9.438  0.0550  0.2760  0.3373
13019SOL    HW241596   9.879   3.455   9.472  1.1450  0.6650  0.2382
13020SOL     OW41597   5.020   6.818   9.323  0.0341 -0.0428 -0.1690
13020SOL    HW141598   5.100   6.803   9.374  0.2639  0.5062 -0.3626
13020SOL    HW241599   4.960   6.859   9.386 -0.0165 -0.2562 -0.0797
13021SOL     OW41600   0.339   3.068   5.413 -0.1220 -0.8776 -0.1304
13021SOL    HW141601   0.310   2.983   5.447 -1.2285 -0.0363  1.0765
13021SOL    HW241602   0.263   3.126   5.425  0.5138  0.2033 -1.2295
13022SOL     OW41603   7.750   1.615   4.627  0.4767 -0.0791  0.1276
13022SOL    HW141604   7.824   1.560   4.653  0.7270  1.1749  2.1402
13022SOL    HW241605   7.784   1.705   4.634 -0.2564  0.3912 -2.0697
13023SOL     OW41606   7.565   7.314   8.061  0.1387 -0.6016 -0.1676
13023SOL    HW141607   7.535   7.288   7.974  0.5913  0.9319 -0.7870
13023SOL    HW241608   7.526   7.401   8.075  0.5126 -0.5999  0.9385
13024SOL     OW41609   6.139   2.609   3.259  0.0096 -0.0373  0.1700
13024SOL    HW141610   6.074   2.548   3.224  0.8374  0.5516 -2.5080
13024SOL    HW241611   6.110   2.695   3.230  0.5637  0.5210  1.2301
13025SOL     OW41612   4.042   5.592   2.412  0.4160 -0.1309  0.1146
13025SOL    HW141613   4.087   5.509   2.400 -1.0838 -0.6560 -2.2066
13025SOL    HW241614   3.949   5.569   2.413 -0.1701  1.7433 -3.2910
13026SOL     OW41615   5.899   9.637   8.013  0.5057 -0.1062 -0.4350
13026SOL    HW141616   5.940   9.717   7.981 -0.6440  0.7377  0.1660
13026SOL    HW241617   5.973   9.581   8.039  1.2781  1.5674  1.0747
13027SOL     OW41618   3.236   0.332   6.466 -0.8344  0.0089  0.2693
13027SOL    HW141619   3.155   0.366   6.428 -0.9324 -0.3700  0.1276
13027SOL    HW241620   3.298   0.332   6.393 -0.6001  0.6415  0.4686
13028SOL     OW41621   9.084   7.773   2.507  0.4664  0.4208 -0.3153
13028SOL    HW141622   9.093   7.794   2.414  1.3865  2.0370  0.1152
13028SOL    HW241623   9.152   7.708   2.523  0.2173  0.0374 -0.8076
13029SOL     OW41624   3.856   1.623   3.120  0.0421 -0.0458 -0.2203
13029SOL    HW141625   3.907   1.660   3.048 -0.1303  0.2243 -0.2050
13029SOL    HW241626   3.813   1.547   3.081 -1.1042  0.8630 -0.7690
13030SOL     OW41627   9.364   7.524   3.408 -0.1207 -0.0134 -0.0521
13030SOL    HW141628   9.456   7.549   3.413  0.8210 -2.9990 -1.4877
13030SOL    HW241629   9.351   7.466   3.483 -1.1701  1.2727  0.7955
13031SOL     OW41630   4.055   1.024   8.603  0.0811 -0.0665 -0.0502
13031SOL    HW141631   4.123   0.966   8.569  0.6058  1.0409 -0.9553
13031SOL    HW241632   4.029   1.077   8.527 -1.7427 -0.4317  0.2988
13032SOL     OW41633   7.187   3.582   6.763  0.0848 -0.3619  1.0205
13032SOL    HW141634   7.141   3.510   6.719 -0.5214  1.1560 -0.9133
13032SOL    HW241635   7.127   3.611   6.831 -0.5963 -0.3083  0.4053
13033SOL     OW41636   3.929   0.197   4.010 -0.2187  0.2918 -0.5760
13033SOL    HW141637   3.936   0.240   4.096  0.2444  1.0497 -0.9918
13033SOL    HW241638   3.959   0.107   4.027 -1.6900 -0.0367  0.4055
13034SOL     OW41639   4.095   9.027   3.186  0.3620  0.7271 -0.0327
13034SOL    HW141640   4.101   8.958   3.120  1.4448  0.2374  0.5718
13034SOL    HW241641   4.016   9.005   3.236  0.3497  0.2903 -0.2440
13035SOL     OW41642   4.652  10.162   7.919 -0.5309  0.3011  0.2947
13035SOL    HW141643   4.557  10.167   7.914 -0.5093  0.6181  0.1941
13035SOL    HW241644   4.676  10.228   7.984 -0.3008  0.9581 -0.4477
13036SOL     OW41645   8.334   6.034   9.212 -0.2602  0.4687  0.4461
13036SOL    HW141646   8.279   6.112   9.200  0.7628  1.1267  0.0483
13036SOL    HW241647   8.332   6.019   9.307 -3.0582 -0.9332  0.2352
13037SOL     OW41648   9.232   8.452  10.014  0.2460  0.7442  0.1786
13037SOL    HW141649   9.154   8.499   9.983  0.8893  2.5020  1.1135
13037SOL    HW241650   9.216   8.439  10.107  0.1849 -0.7194 -0.0340
13038SOL     OW41651   6.987   4.138   2.697 -0.1827  0.3311  0.2195
13038SOL    HW141652   6.912   4.082   2.675 -0.7062  0.9634  0.3811
13038SOL    HW241653   6.981   4.211   2.636 -0.1678  0.7950  0.7739
13039SOL     OW41654   3.052  10.098   5.365 -0.0137  0.9209 -0.0530
13039SOL    HW141655   2.994  10.022   5.367  0.0555  0.8915  1.3347
13039SOL    HW241656   3.004  10.164   5.314 -1.0133  0.6887  0.5790
13040SOL     OW41657   6.020   8.565   1.119  0.3151  0.1245  0.6691
13040SOL    HW141658   6.075   8.636   1.150 -1.4349  1.8578 -0.1135
13040SOL    HW241659   5.973   8.536   1.198 -0.2194  0.9886  0.6780
13041SOL     OW41660   5.703   7.179   6.109  0.4957 -0.0266  0.3027
13041SOL    HW141661   5.653   7.155   6.032  1.3300  0.9074 -0.5394
13041SOL    HW241662   5.711   7.097   6.159 -0.1419 -0.6069 -0.5356
13042SOL     OW41663   2.518   4.360   4.180  0.1620 -0.2597 -0.3682
13042SOL    HW141664   2.546   4.305   4.252 -1.7993  0.1676  0.7559
13042SOL    HW241665   2.556   4.446   4.199 -1.2301  0.1218  0.7294
13043SOL     OW41666   0.750   8.384   8.360  0.0933 -0.0330 -0.1908
13043SOL    HW141667   0.779   8.472   8.338  1.9959 -0.5238  0.2926
13043SOL    HW241668   0.733   8.387   8.454  1.2607 -0.4688  0.0410
13044SOL     OW41669  10.140   7.639   7.723 -0.1417  0.1593  0.1191
13044SOL    HW141670  10.092   7.706   7.674 -2.2610 -0.2639  1.5995
13044SOL    HW241671  10.154   7.569   7.659 -1.3545  0.3493 -0.3734
13045SOL     OW41672   9.129   7.331   3.970 -0.0110 -0.2364 -0.2664
13045SOL    HW141673   9.122   7.338   4.065  1.5956  0.4121 -0.1763
13045SOL    HW241674   9.173   7.247   3.956 -0.0694 -0.2406 -0.4297
13046SOL     OW41675   4.476   1.919   4.751 -0.2754 -0.1045 -0.0337
13046SOL    HW141676   4.535   1.856   4.708  0.1763 -0.6879  1.4084
13046SOL    HW241677   4.534   1.990   4.780 -0.6968  0.6885 -1.1172
13047SOL     OW41678   5.538   4.512   0.286 -0.0831 -0.9064  0.0794
13047SOL    HW141679   5.597   4.536   0.214  0.3980 -0.0789  0.7371
13047SOL    HW241680   5.545   4.417   0.292 -0.2917 -1.0138 -1.1007
13048SOL     OW41681   3.195   3.542   2.588 -0.1573  0.2703 -0.6950
13048SOL    HW141682   3.142   3.621   2.576  0.6193  0.8912 -0.1178
13048SOL    HW241683   3.284   3.570   2.566  0.1655 -0.3595 -0.1825
13049SOL     OW41684   6.477   9.678   7.384 -0.2344 -0.0346 -0.4293
13049SOL    HW141685   6.481   9.655   7.291 -1.2603  0.8818 -0.7049
13049SOL    HW241686   6.435   9.764   7.386 -0.2458 -0.0617  0.8862
13050SOL     OW41687   9.269   8.907   7.645 -0.1917  0.7874 -0.2259
13050SOL    HW141688   9.285   8.930   7.736  2.3274 -0.3921 -0.3305
13050SOL    HW241689   9.190   8.852   7.648  1.1773 -1.1444  1.5372
13051SOL     OW41690   0.878   5.318   0.951  0.3585  0.5642 -0.1745
13051SOL    HW141691   0.794   5.273   0.963  0.1762  0.1593 -2.6413
13051SOL    HW241692   0.889   5.371   1.030 -2.3125  0.7701  0.0846
13052SOL     OW41693  10.019   0.757   9.244 -0.1914  0.1123  0.0185
13052SOL    HW141694  10.070   0.693   9.294 -1.6137 -0.4713  0.7381
13052SOL    HW241695   9.954   0.790   9.306 -2.1760 -0.8193 -1.4920
13053SOL     OW41696   3.213   6.148   9.905  0.5263 -0.4073 -0.3853
13053SOL    HW141697   3.271   6.073   9.910 -1.7322 -2.1834  0.1049
13053SOL    HW241698   3.270   6.224   9.915  2.7583 -2.0793 -0.2021
13054SOL     OW41699   4.095   0.920   4.299  0.0386 -0.2811 -0.0621
13054SOL    HW141700   4.114   0.830   4.325  0.6058  0.2823  1.5498
13054SOL    HW241701   4.070   0.914   4.207 -3.2219 -2.5111  0.8898
13055SOL     OW41702   5.975   3.513   4.987 -0.0086 -0.6163 -0.0540
13055SOL    HW141703   6.009   3.432   4.948 -0.4825 -0.1716 -1.4260
13055SOL    HW241704   5.944   3.564   4.912 -1.4470  0.0319  0.9771
13056SOL     OW41705   2.141   1.264   0.766  0.5059  0.3272  0.1281
13056SOL    HW141706   2.131   1.311   0.684  1.1876  0.5634  0.1814
13056SOL    HW241707   2.155   1.173   0.741  0.2432  0.3198  0.0018
13057SOL     OW41708   7.976   4.081   1.565  0.2414 -0.4199 -0.2538
13057SOL    HW141709   8.068   4.098   1.546  0.4377 -2.1207 -0.9747
13057SOL    HW241710   7.937   4.064   1.479 -0.3985 -1.2068  0.1794
13058SOL     OW41711   5.894   1.860   2.110  0.4213 -0.4850  0.4906
13058SOL    HW141712   5.967   1.862   2.172 -0.0175  0.8389  0.9815
13058SOL    HW241713   5.829   1.919   2.148  0.9679  1.9970 -2.2081
13059SOL     OW41714   9.329   4.458   5.094  0.7081 -0.2825  0.0394
13059SOL    HW141715   9.418   4.460   5.129  0.3388 -1.5345  1.0989
13059SOL    HW241716   9.274   4.477   5.170  0.1031  1.2143 -0.7636
13060SOL     OW41717   8.254   3.941   7.551 -0.4617  0.0090  0.3027
13060SOL    HW141718   8.318   4.001   7.588 -0.3507  0.8869 -1.2629
13060SOL    HW241719   8.249   3.870   7.614  2.8510 -0.6001  0.0063
13061SOL     OW41720   4.310   2.909   6.859  0.3116 -0.1260  0.3182
13061SOL    HW141721   4.226   2.899   6.903  0.6463 -2.1129  0.5537
13061SOL    HW241722   4.366   2.951   6.924  0.5967 -2.3852  1.5822
13062SOL     OW41723   8.206   7.526   6.255  0.3122 -0.0018  0.6526
13062SOL    HW141724   8.216   7.591   6.324  0.2514 -1.4052  1.9982
13062SOL    HW241725   8.111   7.518   6.244  0.2273 -2.0749  2.6356
13063SOL     OW41726   3.872   6.780   6.282  0.5464  0.0601 -0.3093
13063SOL    HW141727   3.933   6.707   6.279 -1.5338 -1.6955 -2.0320
13063SOL    HW241728   3.802   6.750   6.341 -0.6508  0.3512 -1.5503
13064SOL     OW41729   4.404   6.083   9.721  0.1933  0.1049 -1.1177
13064SOL    HW141730   4.397   6.153   9.656 -0.8641  1.9073  0.8570
13064SOL    HW241731   4.468   6.116   9.784 -1.3681 -0.0495  0.5897
13065SOL     OW41732   9.196   1.432   9.906  0.4899 -0.2134  0.2365
13065SOL    HW141733   9.165   1.369   9.972  1.2610 -0.1269  0.6882
13065SOL    HW241734   9.169   1.517   9.940 -0.7548 -0.2929 -0.4869
13066SOL     OW41735   1.556   4.992   9.586 -0.3504  0.4046  0.1993
13066SOL    HW141736   1.612   5.059   9.548 -0.1188 -0.6137 -1.3042
13066SOL    HW241737   1.575   4.913   9.536 -1.7227 -0.4332  0.9436
13067SOL     OW41738   5.791   0.033   3.821 -0.1275  0.1427 -0.4551
13067SOL    HW141739   5.729  -0.036   3.798  2.6929 -3.3203  1.6232
13067SOL    HW241740   5.751   0.079   3.894 -0.0519 -2.5099  1.3248
13068SOL     OW41741   3.862   0.928   5.620 -0.5443 -0.1757 -0.0874
13068SOL    HW141742   3.929   0.984   5.658 -1.6867  1.3403 -0.2762
13068SOL    HW241743   3.901   0.897   5.538  0.7734 -1.1030  0.8637
13069SOL     OW41744   4.195   3.288   6.212  0.0600 -0.0233  0.1930
13069SOL    HW141745   4.239   3.210   6.245  0.1362  0.7803  2.0503
13069SOL    HW241746   4.265   3.341   6.172  0.4653  0.3538  1.3939
13070SOL     OW41747   2.403   6.467   1.540  0.0742  0.1023  0.3320
13070SOL    HW141748   2.374   6.451   1.450  1.3054 -2.1474  0.2946
13070SOL    HW241749   2.344   6.535   1.573 -2.3177 -1.1771 -1.1903
13071SOL     OW41750   2.100   4.778   9.675 -0.6794 -0.2258  0.2584
13071SOL    HW141751   2.016   4.808   9.640  0.0039  0.8473 -0.5007
13071SOL    HW241752   2.078   4.735   9.757 -2.1386 -1.2933 -0.6668
13072SOL     OW41753   9.010   8.115   9.354 -0.4936 -0.4390 -0.5735
13072SOL    HW141754   9.055   8.174   9.293  0.1407 -0.8833 -0.5334
13072SOL    HW241755   8.922   8.153   9.363 -0.4331 -0.0963 -1.3828
13073SOL     OW41756   7.361   9.085   7.488 -0.3619  0.3066 -0.0565
13073SOL    HW141757   7.299   9.087   7.415 -0.9974 -0.8483  0.4379
13073SOL    HW241758   7.312   9.120   7.562 -1.3567 -3.1550  1.0030
13074SOL     OW41759   5.788   0.448   5.790  0.3226  0.0868 -0.5769
13074SOL    HW141760   5.798   0.393   5.869  2.1325 -0.5203 -1.2073
13074SOL    HW241761   5.693   0.457   5.780 -0.0854 -3.7476 -0.9727
13075SOL     OW41762   9.493   3.695   1.266  0.7088 -0.5864 -0.1228
13075SOL    HW141763   9.539   3.699   1.349  0.6087 -0.2435 -0.0822
13075SOL    HW241764   9.463   3.604   1.259 -0.7715 -0.2040  1.0193
13076SOL     OW41765   8.774   9.874   1.899 -0.1812 -0.2998  0.2391
13076SOL    HW141766   8.728   9.867   1.983 -0.2996  1.7383  0.3749
13076SOL    HW241767   8.856   9.826   1.913 -0.6774 -0.8976  1.1642
13077SOL     OW41768   2.148   8.173   8.666 -0.7743 -0.1248  0.5151
13077SOL    HW141769   2.131   8.239   8.598 -1.5222  0.9956  1.7480
13077SOL    HW241770   2.081   8.190   8.733 -1.4256 -2.6040  0.5466
13078SOL     OW41771  10.073   1.463   0.187 -0.4422  0.0647 -0.1504
13078SOL    HW141772  10.163   1.443   0.211 -0.3468 -0.7111 -1.1113
13078SOL    HW241773  10.063   1.556   0.206  0.1221 -0.1602  1.3059
13079SOL     OW41774   4.494   7.458   5.530  0.0632 -0.6628  0.0018
13079SOL    HW141775   4.535   7.543   5.516  0.8773 -0.8690  1.0674
13079SOL    HW241776   4.565   7.395   5.516 -0.2989 -1.1212  0.2138
13080SOL     OW41777   7.188   1.591   4.711  0.4342 -0.8085  0.0232
13080SOL    HW141778   7.212   1.661   4.772  0.5996 -0.2893 -0.6394
13080SOL    HW241779   7.268   1.573   4.662  0.0188 -0.4913 -0.7735
13081SOL     OW41780   4.523  10.176   2.410  0.1289 -0.1142  0.1308
13081SOL    HW141781   4.580  10.238   2.365 -0.9003  1.1541  0.5482
13081SOL    HW241782   4.517  10.209   2.499 -0.0688 -1.0764  0.4862
13082SOL     OW41783   4.035   8.749   1.951 -0.2263 -1.0494  0.3711
13082SOL    HW141784   3.987   8.815   2.001 -0.2219 -0.1823 -0.7559
13082SOL    HW241785   4.125   8.756   1.983 -0.3379 -0.9198  0.6671
13083SOL     OW41786   6.151   1.515   0.860 -0.3398  0.2254  0.1426
13083SOL    HW141787   6.133   1.531   0.767 -0.6866  0.5882  0.2701
13083SOL    HW241788   6.089   1.572   0.906 -0.2953 -0.0955  0.5950
13084SOL     OW41789   4.818   8.576   5.516  0.3566  0.2353  0.0740
13084SOL    HW141790   4.734   8.531   5.502  0.0262  0.2850  1.7864
13084SOL    HW241791   4.873   8.545   5.444 -1.2527  0.5297 -1.3387
13085SOL     OW41792   4.897   7.007   8.611 -0.1015 -0.4529  0.1658
13085SOL    HW141793   4.966   7.043   8.665 -0.5946 -0.3843  0.7528
13085SOL    HW241794   4.937   6.997   8.524  1.2590 -2.2959  0.9615
13086SOL     OW41795   6.105   8.545  10.133 -0.4231 -0.5123  0.4714
13086SOL    HW141796   6.021   8.499  10.138 -0.8846  0.3524  0.7818
13086SOL    HW241797   6.099   8.612  10.201 -0.1069  0.5696 -0.5586
13087SOL     OW41798   9.721   4.136   3.548 -0.2853  0.9005 -0.1490
13087SOL    HW141799   9.793   4.199   3.538  0.4387  0.0063 -0.7540
13087SOL    HW241800   9.642   4.188   3.539  0.2977  1.8644  0.2490
13088SOL     OW41801   2.670   9.345   9.042  0.7203 -0.5545 -0.1119
13088SOL    HW141802   2.679   9.358   8.948  1.5884  1.7513  0.2741
13088SOL    HW241803   2.698   9.428   9.081 -1.3619 -0.8380  2.0957
13089SOL     OW41804   8.396   8.384   7.647 -0.3209  0.1603  0.0925
13089SOL    HW141805   8.406   8.324   7.720  1.4034  1.1194  0.6738
13089SOL    HW241806   8.454   8.350   7.579 -1.2515 -0.2316 -0.5277
13090SOL     OW41807   2.481   6.499   9.790  0.3025  0.0985 -0.0629
13090SOL    HW141808   2.545   6.464   9.851  0.2099 -0.7799 -0.4519
13090SOL    HW241809   2.461   6.425   9.732 -0.3919  0.6171 -0.4937
13091SOL     OW41810   8.250   1.913   3.002  0.1032  0.5987 -0.5143
13091SOL    HW141811   8.233   2.004   3.027  0.3628  0.6599 -0.5572
13091SOL    HW241812   8.255   1.915   2.907 -0.1602  0.4919 -0.5306
13092SOL     OW41813   0.039   8.957   4.147  0.0107 -0.0167  0.3800
13092SOL    HW141814   0.065   8.869   4.173  1.7754  0.1014 -0.9265
13092SOL    HW241815   0.110   9.013   4.178 -0.0627  0.6803 -0.6938
13093SOL     OW41816   0.901   9.496   5.837  0.8163  0.0560  0.2927
13093SOL    HW141817   0.892   9.455   5.751 -1.2877  0.7873  0.1441
13093SOL    HW241818   0.953   9.432   5.888  0.7061 -1.1086 -1.0159
13094SOL     OW41819   0.111   4.089   3.803  0.1770  0.7530  0.2505
13094SOL    HW141820   0.154   4.174   3.801  0.6574  0.5077 -1.0171
13094SOL    HW241821   0.174   4.030   3.760 -0.3117 -0.1489  0.7510
13095SOL     OW41822   5.660   6.527   5.695 -0.2085 -0.2456 -0.2050
13095SOL    HW141823   5.750   6.533   5.663 -0.4631  1.5519 -0.6525
13095SOL    HW241824   5.611   6.587   5.639 -2.2740 -3.3669 -1.9531
13096SOL     OW41825   0.991   2.745   3.360 -0.3375  0.1956  0.3562
13096SOL    HW141826   0.925   2.800   3.317 -1.2533  0.7379  2.3737
13096SOL    HW241827   1.037   2.805   3.419 -0.5845 -0.9515  1.7360
13097SOL     OW41828   7.322   1.220   1.711  0.6450  0.6013 -0.4444
13097SOL    HW141829   7.249   1.170   1.676  1.9040 -0.2464 -1.9231
13097SOL    HW241830   7.398   1.164   1.696  1.7982  2.1123 -0.3102
13098SOL     OW41831   9.204   4.753   5.045 -0.5092 -0.1030  0.2100
13098SOL    HW141832   9.225   4.669   5.084  0.4028  0.0078 -0.0242
13098SOL    HW241833   9.152   4.799   5.112  1.1993  0.1592  1.3772
13099SOL     OW41834   2.080   6.564   1.025  0.1620  0.0515 -0.3787
13099SOL    HW141835   2.115   6.481   1.059 -1.3580 -0.2495  0.5140
13099SOL    HW241836   2.027   6.539   0.950 -0.1662  0.2231 -0.2074
13100SOL     OW41837   5.752   1.085   4.246 -0.2329 -0.0905 -0.1857
13100SOL    HW141838   5.760   1.065   4.339  2.0946  0.3764 -0.2665
13100SOL    HW241839   5.720   1.175   4.243  0.1355  0.0521  0.1693
13101SOL     OW41840   2.455   7.954   9.584 -0.3261 -0.3643 -0.1420
13101SOL    HW141841   2.379   7.896   9.577  2.1670 -4.0591  1.6012
13101SOL    HW241842   2.459   7.977   9.677  1.9070 -2.0916  0.2395
13102SOL     OW41843   1.924  10.150   8.738  0.1027 -0.1568  0.6796
13102SOL    HW141844   1.997  10.092   8.721 -0.6920 -0.7590 -0.7757
13102SOL    HW241845   1.950  10.234   8.699  0.9858  0.2978  2.2284
13103SOL     OW41846   4.813   9.637   7.969  0.1301  0.3002 -0.1373
13103SOL    HW141847   4.797   9.729   7.991 -0.9435  0.4052 -1.3113
13103SOL    HW241848   4.828   9.637   7.874  0.2775 -0.7178 -0.1195
13104SOL     OW41849   8.310   0.052   6.125  0.0003  0.2096  0.0764
13104SOL    HW141850   8.350  -0.000   6.056  0.8043  0.8345  0.0664
13104SOL    HW241851   8.297   0.138   6.086  0.5656  0.5973  0.7334
13105SOL     OW41852   8.832   1.924   9.331  0.4967  0.0265 -0.0411
13105SOL    HW141853   8.737   1.925   9.322  0.3564  1.3561  1.3987
13105SOL    HW241854   8.850   1.845   9.381  0.0779  0.1508  0.3126
13106SOL     OW41855   7.911   0.540   5.775  0.7233  0.0007 -0.1682
13106SOL    HW141856   7.934   0.625   5.812 -0.0041 -0.9844  2.6894
13106SOL    HW241857   7.825   0.554   5.735  1.4200  1.0323 -1.3507
13107SOL     OW41858   3.270   5.526   6.885  0.0920  0.3478 -0.0728
13107SOL    HW141859   3.266   5.556   6.794  0.9038 -0.2316 -0.3052
13107SOL    HW241860   3.339   5.579   6.925  0.5651 -0.2314 -0.1159
13108SOL     OW41861   2.803   0.970   6.192  0.5186 -0.3826  0.7539
13108SOL    HW141862   2.795   0.937   6.281 -1.1053  0.8997  1.1162
13108SOL    HW241863   2.738   1.040   6.186 -0.4645 -1.4283 -1.8936
13109SOL     OW41864   9.697   2.023   3.305  0.3182 -0.5866  0.0118
13109SOL    HW141865   9.628   2.042   3.241  0.7145  0.4203 -0.1295
13109SOL    HW241866   9.777   2.019   3.253  0.5913 -0.1257  0.3878
13110SOL     OW41867   4.394   5.828   8.458 -0.2822 -0.0352  0.7362
13110SOL    HW141868   4.317   5.790   8.500  1.5124 -2.7053  1.7128
13110SOL    HW241869   4.463   5.822   8.525  1.0260  1.4426 -0.4403
13111SOL     OW41870   1.603   4.796   9.406  0.3037 -0.3807 -0.7709
13111SOL    HW141871   1.612   4.849   9.327 -1.7495  1.1807  0.0044
13111SOL    HW241872   1.618   4.706   9.376  0.4725  0.2772 -2.7495
13112SOL     OW41873   9.385   9.151   9.996 -0.4037 -0.0380 -0.2042
13112SOL    HW141874   9.425   9.112  10.074 -1.9001  2.3378  1.8247
13112SOL    HW241875   9.446   9.131   9.926  1.3031 -1.7181  1.6746
13113SOL     OW41876   7.275   6.842   6.111  0.1450  0.5287  0.6037
13113SOL    HW141877   7.193   6.835   6.159  0.8370 -0.0463  1.7154
13113SOL    HW241878   7.335   6.884   6.172  0.5375  1.4463 -0.3950
13114SOL     OW41879   6.988   0.820   9.882 -0.2927 -0.0210  0.9393
13114SOL    HW141880   7.033   0.789   9.803 -1.3244 -4.3714  1.9598
13114SOL    HW241881   6.933   0.892   9.851 -0.9611 -1.8886 -2.4115
13115SOL     OW41882   0.437   1.841   6.117 -0.3594  0.5388 -0.5567
13115SOL    HW141883   0.471   1.925   6.088  0.1302 -0.0975 -1.8473
13115SOL    HW241884   0.509   1.779   6.102 -0.9375 -0.2286 -0.2324
13116SOL     OW41885   2.620   5.603   8.411  0.4202 -0.1895  0.4622
13116SOL    HW141886   2.691   5.576   8.353 -1.0806  1.1134 -2.0521
13116SOL    HW241887   2.653   5.680   8.456  0.8326  0.0404 -0.2307
13117SOL     OW41888   7.622   9.250   1.937  0.7365 -0.1622 -0.0914
13117SOL    HW141889   7.560   9.318   1.912 -1.2833 -2.6360 -2.1931
13117SOL    HW241890   7.570   9.186   1.986  2.0283 -1.3370 -0.2085
13118SOL     OW41891   7.197   6.716   3.173 -0.2077 -0.2203 -0.0574
13118SOL    HW141892   7.152   6.708   3.257  0.9359 -1.3839  0.4699
13118SOL    HW241893   7.162   6.795   3.133 -0.2410  0.7375  1.8406
13119SOL     OW41894   1.380   5.802   3.880  0.5738  0.1901 -0.6927
13119SOL    HW141895   1.418   5.755   3.954 -1.0241  0.1294  0.1045
13119SOL    HW241896   1.455   5.833   3.830  1.6901  0.7634  1.2937
13120SOL     OW41897   4.139   2.185   7.918 -0.2168  0.5255  0.2048
13120SOL    HW141898   4.181   2.263   7.955  1.1323 -0.2227  0.2653
13120SOL    HW241899   4.208   2.119   7.915 -0.9624 -0.2161 -1.2643
13121SOL     OW41900   9.044   1.398   5.516 -0.5480 -0.3335 -0.0326
13121SOL    HW141901   8.970   1.398   5.577 -0.7610 -1.3961 -0.2930
13121SOL    HW241902   9.096   1.321   5.540  0.6729  0.6003  0.3844
13122SOL     OW41903   7.806   9.467   0.777 -0.2909 -0.1739 -0.1807
13122SOL    HW141904   7.901   9.456   0.775 -0.1033  1.1713  0.6081
13122SOL    HW241905   7.775   9.407   0.844  0.2477  0.9157  1.0668
13123SOL     OW41906   6.420   1.146   8.634  0.2809  0.1175 -0.0320
13123SOL    HW141907   6.383   1.061   8.655  0.0305  0.4158  0.7566
13123SOL    HW241908   6.393   1.202   8.706 -0.4165  1.1151 -1.0365
13124SOL     OW41909   9.921   1.036   2.235 -0.1313  0.1288 -0.5528
13124SOL    HW141910   9.948   1.003   2.150 -0.2369  0.2424 -0.6296
13124SOL    HW241911   9.971   1.117   2.247 -0.5807  0.4409 -0.7794
13125SOL     OW41912   5.166   0.838   9.736  0.3319  0.0194 -0.0791
13125SOL    HW141913   5.188   0.923   9.775  1.2096 -0.1703 -0.1557
13125SOL    HW241914   5.075   0.823   9.761 -0.5031  1.9587 -1.7846
13126SOL     OW41915   2.068   5.894   5.358  0.4971  0.6369  0.1795
13126SOL    HW141916   1.998   5.959   5.356  0.5746  0.7115 -0.7363
13126SOL    HW241917   2.115   5.911   5.440 -0.1945  0.9706  0.5066
13127SOL     OW41918  10.005   1.713   5.674 -0.1762 -0.1710  0.0034
13127SOL    HW141919   9.976   1.767   5.748 -2.8508 -1.1320 -0.2898
13127SOL    HW241920  10.095   1.688   5.696  0.4566  2.8512  1.0123
13128SOL     OW41921   8.396   3.143   6.059  0.8661 -0.0995 -0.0697
13128SOL    HW141922   8.454   3.124   6.133  0.8094  0.5584  0.1455
13128SOL    HW241923   8.313   3.100   6.083  0.7583  0.3545  0.3877
13129SOL     OW41924   7.445   9.733   1.652 -0.0452 -0.6825  0.1811
13129SOL    HW141925   7.522   9.709   1.600 -0.3761 -2.1859  0.3456
13129SOL    HW241926   7.404   9.649   1.673 -0.6100 -0.0226  1.7927
13130SOL     OW41927   5.305   7.237   9.455  0.0499 -0.0833 -0.5877
13130SOL    HW141928   5.371   7.230   9.523 -0.2369 -2.7054 -0.5455
13130SOL    HW241929   5.222   7.222   9.500 -0.1909 -1.2895 -1.4141
13131SOL     OW41930   0.826   6.984   9.676 -0.8691  0.0823 -0.0670
13131SOL    HW141931   0.905   6.941   9.709  0.0043  0.7940 -1.1761
13131SOL    HW241932   0.857   7.037   9.603 -2.6659 -1.0616 -1.6963
13132SOL     OW41933   0.159   0.606   5.507  0.3556  0.0364 -0.5705
13132SOL    HW141934   0.202   0.562   5.434 -0.2093 -0.5441 -0.5606
13132SOL    HW241935   0.228   0.617   5.573  0.7934  0.2956 -1.0742
13133SOL     OW41936   3.664   1.204   3.879  0.0581 -0.0756 -0.2959
13133SOL    HW141937   3.723   1.223   3.806 -0.6342 -0.4481 -0.9639
13133SOL    HW241938   3.684   1.113   3.903  0.0286 -0.0773 -0.2766
13134SOL     OW41939   3.866   3.729   3.601  0.0561  0.0155  0.0919
13134SOL    HW141940   3.866   3.634   3.588  0.2022 -0.2788  2.0507
13134SOL    HW241941   3.956   3.750   3.626  0.0416  0.6792 -0.4135
13135SOL     OW41942  10.063   3.450   1.120  0.0851 -0.0558  0.0092
13135SOL    HW141943   9.990   3.490   1.073 -0.1232 -0.2923  0.1281
13135SOL    HW241944  10.063   3.358   1.093  1.7154  0.4181 -1.6862
13136SOL     OW41945   1.106   1.493   7.260 -0.0354  0.0805  0.1000
13136SOL    HW141946   1.138   1.546   7.186 -0.4669 -0.1146 -0.2311
13136SOL    HW241947   1.152   1.410   7.251  1.2415  0.6511  1.0775
13137SOL     OW41948   4.534   5.563   5.947  0.0916 -0.2936 -0.0577
13137SOL    HW141949   4.603   5.506   5.911 -0.2517 -0.8376  0.1382
13137SOL    HW241950   4.468   5.502   5.980  0.4919  0.1740  1.6774
13138SOL     OW41951   6.944   9.784   2.545 -0.5323 -0.5687  0.0618
13138SOL    HW141952   6.958   9.777   2.451  0.5344 -1.4900  0.2856
13138SOL    HW241953   6.969   9.698   2.580 -2.4362 -0.7533  1.0031
13139SOL     OW41954   9.942   0.239   2.687 -0.0688  0.2673  0.2944
13139SOL    HW141955   9.970   0.148   2.690  0.5300  0.4194 -0.3101
13139SOL    HW241956   9.871   0.245   2.750 -0.4413 -0.7320 -0.0219
13140SOL     OW41957   9.519   6.520   5.137 -0.9460 -0.2439  0.6479
13140SOL    HW141958   9.573   6.596   5.115  1.2771 -0.8387  3.6498
13140SOL    HW241959   9.530   6.461   5.063 -0.4842  1.2232 -0.4824
13141SOL     OW41960   5.252   4.980   8.291  0.7682  0.1881 -0.1967
13141SOL    HW141961   5.179   4.922   8.313  0.8674  0.1604  0.0645
13141SOL    HW241962   5.330   4.926   8.301  0.9228  0.5962  0.8771
13142SOL     OW41963   3.783   7.725  10.191  0.1112 -0.1603 -0.0410
13142SOL    HW141964   3.863   7.697  10.147 -0.3217  1.3138 -1.8372
13142SOL    HW241965   3.713   7.676  10.148 -0.1642  0.0804  0.1300
13143SOL     OW41966   9.948   3.992   8.248 -0.7530 -0.2510  0.2512
13143SOL    HW141967  10.027   3.970   8.297 -2.1989  0.2660  2.9138
13143SOL    HW241968   9.939   4.087   8.257 -0.6268 -0.0356 -1.6949
13144SOL     OW41969   5.377   7.680   9.621 -0.1801  0.0657  0.1685
13144SOL    HW141970   5.355   7.628   9.698 -0.7551  0.9163  0.5882
13144SOL    HW241971   5.472   7.689   9.624 -0.2694  0.6655  1.1519
13145SOL     OW41972   5.483   7.525   1.027  0.1968 -0.3443 -0.2736
13145SOL    HW141973   5.564   7.569   1.001  0.7342 -1.2960 -0.2247
13145SOL    HW241974   5.507   7.471   1.102 -1.0484  1.2815  1.3498
13146SOL     OW41975   2.902   6.406   2.113 -0.2443  0.1000  0.1165
13146SOL    HW141976   2.981   6.387   2.162 -0.9024  1.1072  1.6061
13146SOL    HW241977   2.833   6.354   2.156 -0.7648  0.7427  0.0737
13147SOL     OW41978   2.319   7.124   1.184 -0.1063  0.1243  0.6357
13147SOL    HW141979   2.267   7.048   1.157 -0.6718  0.1731  1.5355
13147SOL    HW241980   2.269   7.199   1.153 -0.5410  0.1698  1.4403
13148SOL     OW41981   0.431   7.645   4.445  0.2029 -0.4740  0.1311
13148SOL    HW141982   0.449   7.639   4.351 -0.1600  1.6870 -0.0851
13148SOL    HW241983   0.509   7.607   4.486  1.0521 -0.0003 -0.9961
13149SOL     OW41984   3.174   7.459   9.162 -0.0393  0.0310  0.1965
13149SOL    HW141985   3.253   7.508   9.184  0.8604 -1.5113  0.5230
13149SOL    HW241986   3.117   7.471   9.237 -0.7111  2.3010 -0.6352
13150SOL     OW41987   8.980   1.263   3.076  0.2383  0.2010 -0.1862
13150SOL    HW141988   9.031   1.283   3.154  4.9281  1.4709 -3.3611
13150SOL    HW241989   8.958   1.348   3.039 -1.4240 -0.3867 -0.6011
13151SOL     OW41990   0.664   1.766   4.720  0.1849  0.0148  0.2199
13151SOL    HW141991   0.580   1.719   4.721  1.1522 -1.7831 -0.4683
13151SOL    HW241992   0.639   1.858   4.715 -1.7616 -0.4721  0.2126
13152SOL     OW41993   0.577   8.049   6.607  0.0011  0.1709 -0.6051
13152SOL    HW141994   0.538   8.135   6.591 -1.2400 -0.5339 -1.3614
13152SOL    HW241995   0.506   7.996   6.642  0.8035 -0.5230  0.0079
13153SOL     OW41996   9.103   7.116   1.480 -0.3967  0.4252 -0.1083
13153SOL    HW141997   9.074   7.108   1.389 -0.3066 -0.3539 -0.0692
13153SOL    HW241998   9.198   7.126   1.473 -0.2670 -0.6760 -0.0577
13154SOL     OW41999   9.999   7.288   2.963 -0.1567 -0.2538  0.2304
13154SOL    HW142000  10.036   7.214   2.915  0.0175 -0.1699  0.2329
13154SOL    HW242001  10.005   7.361   2.901  0.9462  0.0725  0.7056
13155SOL     OW42002   8.246   5.310   9.266  0.1232 -0.4666 -0.2391
13155SOL    HW142003   8.227   5.377   9.332  1.7036 -1.2056  1.0186
13155SOL    HW242004   8.213   5.346   9.184 -0.4521  1.1708  0.6925
13156SOL     OW42005   7.048   3.098   9.919 -0.0170  0.1777 -0.2406
13156SOL    HW142006   7.051   3.039   9.843  0.7761  0.3406 -0.3414
13156SOL    HW242007   7.094   3.176   9.891 -0.9940  0.8277 -0.0743
13157SOL     OW42008   3.649   8.310   5.618 -0.7296 -0.2851  0.0461
13157SOL    HW142009   3.709   8.383   5.612 -1.0174 -0.2210 -2.4080
13157SOL    HW242010   3.568   8.341   5.577 -1.3886 -1.4248  0.4387
13158SOL     OW42011   3.100   4.973   1.906 -0.0351  0.1482  0.2367
13158SOL    HW142012   3.106   5.068   1.919  1.0853  0.2557 -0.9925
13158SOL    HW242013   3.061   4.963   1.819  0.6499 -0.5007 -0.0073
13159SOL     OW42014   2.289   9.033   9.757 -0.6286 -0.1937  0.1341
13159SOL    HW142015   2.359   9.064   9.700 -0.5224  0.5175  0.6482
13159SOL    HW242016   2.288   8.938   9.744 -0.2406 -0.0999 -0.6323
13160SOL     OW42017   3.350   3.770   1.232 -0.0416 -0.1117  0.0246
13160SOL    HW142018   3.379   3.703   1.169 -0.7364 -0.5557  0.1743
13160SOL    HW242019   3.255   3.773   1.222 -0.1150  0.1101  0.7714
13161SOL     OW42020   6.535   8.314   4.113 -0.0465 -0.5280 -0.1870
13161SOL    HW142021   6.556   8.246   4.049 -0.1437 -1.2047  0.4880
13161SOL    HW242022   6.440   8.309   4.123  0.0118 -0.7161  0.3169
13162SOL     OW42023   4.579   7.900   0.223 -0.1202  0.1861  0.0384
13162SOL    HW142024   4.607   7.808   0.220 -1.5668 -0.2841  0.3084
13162SOL    HW242025   4.630   7.938   0.294  1.1196 -0.1803 -0.6361
13163SOL     OW42026   5.189   7.950   7.731 -0.2916  0.3158  0.1273
13163SOL    HW142027   5.156   7.913   7.649 -0.2762  1.4848 -0.4213
13163SOL    HW242028   5.189   8.045   7.716  0.4166  0.4962  1.2172
13164SOL     OW42029   3.033   0.039   8.984 -0.0592  0.2272  0.1289
13164SOL    HW142030   3.014   0.133   8.977  0.1513  0.3683  1.3137
13164SOL    HW242031   3.128   0.036   9.000  0.1589 -0.2517 -1.2244
13165SOL     OW42032   3.495   3.317   4.347 -0.4166 -0.6937  0.4182
13165SOL    HW142033   3.471   3.369   4.270  0.4645 -2.3030 -0.9765
13165SOL    HW242034   3.529   3.381   4.410  0.0991  0.4951 -1.0435
13166SOL     OW42035   0.590   1.292   7.259 -0.3509  0.7157  0.2860
13166SOL    HW142036   0.639   1.314   7.339 -1.2039  0.9014  0.7617
13166SOL    HW242037   0.499   1.313   7.280 -0.7315 -0.2530 -0.3712
13167SOL     OW42038   3.453   4.213   4.921 -0.4822  0.0680 -0.5651
13167SOL    HW142039   3.447   4.201   5.016 -0.6358 -0.2958 -0.6200
13167SOL    HW242040   3.507   4.140   4.891  0.4186  0.7460 -0.6397
13168SOL     OW42041   4.649   9.274   0.851 -0.3554 -0.3075 -0.1249
13168SOL    HW142042   4.634   9.188   0.889  1.5827 -0.2685  0.7391
13168SOL    HW242043   4.650   9.259   0.756  0.1095 -1.2541  0.0248
13169SOL     OW42044   0.608   8.039  10.091  0.2719 -0.1389  0.2257
13169SOL    HW142045   0.623   7.945  10.102  0.2419 -0.2389 -0.5447
13169SOL    HW242046   0.690   8.073  10.055 -0.3566 -0.2048 -1.3200
13170SOL     OW42047   9.323   4.490   0.972  0.1937 -0.2312 -0.0898
13170SOL    HW142048   9.239   4.451   0.997  0.0857  0.2225  0.2568
13170SOL    HW242049   9.352   4.536   1.051  0.0722  0.8377 -0.6632
13171SOL     OW42050   1.173   4.767   5.511 -0.1502 -0.0506 -0.0506
13171SOL    HW142051   1.082   4.739   5.507 -0.0587 -0.1275 -2.0291
13171SOL    HW242052   1.169   4.862   5.525 -0.5472  0.0912 -1.1297
13172SOL     OW42053   5.476  10.150   4.436 -0.2116  0.3292 -0.0663
13172SOL    HW142054   5.420  10.097   4.492  0.7731 -0.4575  0.1820
13172SOL    HW242055   5.416  10.187   4.371 -0.6043 -2.6321 -1.4342
13173SOL     OW42056   3.139   4.412   6.988 -0.3396  0.1274 -0.1432
13173SOL    HW142057   3.166   4.338   7.042  0.6493 -0.4356 -1.3919
13173SOL    HW242058   3.196   4.484   7.016 -0.0585 -0.0725 -0.1989
13174SOL     OW42059   0.038   6.258   2.768 -0.1899 -0.5503  0.4078
13174SOL    HW142060   0.134   6.262   2.767 -0.1174 -2.0113  0.7293
13174SOL    HW242061   0.016   6.199   2.695 -0.8670  0.1341  0.0560
13175SOL     OW42062   6.484  10.134   5.245  0.2376 -0.3135 -0.3558
13175SOL    HW142063   6.534  10.114   5.324  0.5329 -0.6536 -0.6247
13175SOL    HW242064   6.407  10.180   5.276  0.3525 -0.4476  0.1313
13176SOL     OW42065   5.852   7.836   8.910 -0.1049 -0.4663  0.3135
13176SOL    HW142066   5.783   7.774   8.937  0.4726 -2.0335 -1.6860
13176SOL    HW242067   5.809   7.892   8.845 -0.1943  0.2156  0.9604
13177SOL     OW42068   3.576   3.713   6.949  0.2307 -0.5416  0.2862
13177SOL    HW142069   3.555   3.652   6.878  2.9998 -1.2196 -0.0199
13177SOL    HW242070   3.596   3.656   7.023 -0.4497  0.1157  0.9819
13178SOL     OW42071   1.849   6.441   2.179 -0.2072 -0.0136 -0.6736
13178SOL    HW142072   1.919   6.415   2.239 -0.0252  2.3490  0.1808
13178SOL    HW242073   1.892   6.499   2.116 -1.3423  1.2942 -0.2642
13179SOL     OW42074   6.558   2.402   1.036  0.5352 -0.1260 -0.1076
13179SOL    HW142075   6.614   2.388   1.112  0.5003  1.6273  0.2700
13179SOL    HW242076   6.480   2.348   1.053  0.6738  0.0041  0.9485
13180SOL     OW42077   5.858   6.390   9.560  0.2943  0.2751 -0.2912
13180SOL    HW142078   5.910   6.353   9.489  0.4589 -0.2253  0.0918
13180SOL    HW242079   5.845   6.318   9.622 -0.1049  0.6253  0.0426
13181SOL     OW42080   4.221   1.994   0.363  0.3576  0.3596  0.4880
13181SOL    HW142081   4.159   2.067   0.366 -0.3741 -0.2306  0.0652
13181SOL    HW242082   4.170   1.918   0.389  0.8294 -0.1829 -0.1441
13182SOL     OW42083   9.177   4.043   6.545 -0.5104 -0.2342  0.0261
13182SOL    HW142084   9.141   4.032   6.633  0.7149  2.0951  0.8604
13182SOL    HW242085   9.252   3.985   6.543 -0.7563 -0.5699  0.3896
13183SOL     OW42086   0.893   8.316   0.221  0.4699  0.0183  0.2205
13183SOL    HW142087   0.963   8.360   0.172  1.8032 -1.1590  1.0122
13183SOL    HW242088   0.813   8.359   0.192  1.2383 -0.4262 -2.7643
13184SOL     OW42089   5.937  10.100   2.693 -0.2235 -0.2297 -0.6213
13184SOL    HW142090   5.851  10.080   2.658 -1.1826  0.7853  1.0726
13184SOL    HW242091   5.969  10.173   2.638  0.4658 -1.9254 -2.5449
13185SOL     OW42092   6.586   7.116   5.829  0.4564 -0.5300 -0.4480
13185SOL    HW142093   6.598   7.189   5.767 -0.3084 -0.9798 -1.1306
13185SOL    HW242094   6.675   7.097   5.860  0.5902  1.1472  0.2624
13186SOL     OW42095   5.877   4.701   1.760  0.2648  0.0957  0.2367
13186SOL    HW142096   5.849   4.619   1.802 -1.0689  0.2300 -0.3597
13186SOL    HW242097   5.863   4.768   1.827 -1.8244  0.3053 -0.3932
13187SOL     OW42098   9.432   0.661   7.678 -1.0039  0.7755  0.3253
13187SOL    HW142099   9.415   0.567   7.673  1.8046  0.1099  2.0563
13187SOL    HW242100   9.445   0.688   7.587 -0.6930 -0.7451 -0.0943
13188SOL     OW42101   6.846   1.779   7.513  0.2809  0.0027  0.5848
13188SOL    HW142102   6.923   1.753   7.564  1.0792  1.0374 -0.0642
13188SOL    HW242103   6.838   1.873   7.530  1.1373  0.5584 -1.9462
13189SOL     OW42104   4.650   1.549  10.203  0.3288 -0.8844  0.0177
13189SOL    HW142105   4.731   1.588  10.235 -0.9904  0.7381  1.5080
13189SOL    HW242106   4.658   1.456  10.222  1.5648 -0.6261  0.7691
13190SOL     OW42107   3.331   7.276   8.415  0.1276  0.6491 -0.4978
13190SOL    HW142108   3.421   7.253   8.439 -0.2246 -0.9153 -0.6218
13190SOL    HW242109   3.277   7.206   8.453 -1.1710  2.2178  0.6527
13191SOL     OW42110   0.518   1.293   8.736  0.3985  0.0729 -0.2776
13191SOL    HW142111   0.534   1.327   8.648  1.1372 -3.1127 -1.4217
13191SOL    HW242112   0.450   1.351   8.771  0.4254  1.6986 -2.7297
13192SOL     OW42113   7.797   3.569   0.511  0.3842  0.1860 -0.1805
13192SOL    HW142114   7.888   3.541   0.495  0.2383 -0.2867 -0.1878
13192SOL    HW242115   7.744   3.493   0.488  0.0487  0.1090  0.8218
13193SOL     OW42116   8.028   5.752   0.032  0.0652  0.1301  0.4228
13193SOL    HW142117   7.945   5.744  -0.016  0.4856 -0.3911 -0.2379
13193SOL    HW242118   8.034   5.844   0.057 -0.4324  0.2876 -0.0464
13194SOL     OW42119   4.964   7.207   5.556 -0.0948 -0.2879  0.2608
13194SOL    HW142120   5.046   7.257   5.560 -0.2581 -0.0884  1.2815
13194SOL    HW242121   4.950   7.179   5.646 -1.8215  0.7647  0.3323
13195SOL     OW42122   0.711   7.068   0.282 -0.8082 -0.1298 -0.4083
13195SOL    HW142123   0.730   7.024   0.364  1.7178  0.1370 -0.8300
13195SOL    HW242124   0.704   7.161   0.305 -0.2806 -0.0756 -0.4728
13196SOL     OW42125   3.581   5.690   2.524  0.1546 -0.1237 -0.5602
13196SOL    HW142126   3.667   5.671   2.486 -0.3874  0.0426 -1.9031
13196SOL    HW242127   3.598   5.755   2.592  1.1733 -0.5615 -0.4007
13197SOL     OW42128   3.473   9.576   2.227  0.0165 -0.2053 -0.4152
13197SOL    HW142129   3.537   9.643   2.251 -0.0685 -0.2140 -0.1600
13197SOL    HW242130   3.486   9.563   2.133 -1.3382  1.6269 -0.9000
13198SOL     OW42131   9.396   7.869   6.472  0.2829 -0.0545 -0.1477
13198SOL    HW142132   9.448   7.802   6.427 -0.4124 -1.4432  1.0517
13198SOL    HW242133   9.327   7.892   6.409 -0.0985 -1.2596 -0.1836
13199SOL     OW42134   5.521   1.489   0.414  0.2748 -0.0743 -0.1017
13199SOL    HW142135   5.581   1.491   0.340  1.5501 -0.9952  0.8686
13199SOL    HW242136   5.567   1.437   0.480 -1.8194 -1.2499  0.4777
13200SOL     OW42137   3.583   3.575   5.289  0.3903  0.4334  0.6073
13200SOL    HW142138   3.652   3.509   5.286  0.6595  0.7277  0.3284
13200SOL    HW242139   3.607   3.639   5.222 -0.8045 -0.0958 -0.3668
13201SOL     OW42140   6.045   8.255   7.510  0.1453  0.3998  0.2052
13201SOL    HW142141   6.018   8.285   7.424 -0.2203  0.0864  0.2117
13201SOL    HW242142   6.122   8.200   7.493 -0.6829 -0.6921 -0.0402
13202SOL     OW42143   9.977   0.119   0.440 -0.2582  0.1436  0.2671
13202SOL    HW142144  10.062   0.165   0.439 -1.3008  2.1302 -1.1080
13202SOL    HW242145   9.984   0.055   0.369  0.0826  0.3509  0.1082
13203SOL     OW42146   1.776   5.176   2.682  0.2226  0.0160 -0.5232
13203SOL    HW142147   1.736   5.136   2.760 -1.9417  1.5246 -0.8170
13203SOL    HW242148   1.776   5.106   2.617 -2.7964  0.1976 -0.7864
13204SOL     OW42149   1.737   1.008   1.550 -0.1078  0.4842 -0.0564
13204SOL    HW142150   1.738   0.912   1.554  0.5059  0.5442  2.3847
13204SOL    HW242151   1.678   1.035   1.620  1.5378  1.9083  0.8489
13205SOL     OW42152   8.348   7.161   4.371 -0.1975 -0.3475 -0.3092
13205SOL    HW142153   8.305   7.173   4.286 -3.5788  0.6844  1.4318
13205SOL    HW242154   8.278   7.178   4.435  2.0706 -1.8193  2.6629
13206SOL     OW42155   2.381   2.217   4.061  0.0185 -0.1182  0.5348
13206SOL    HW142156   2.445   2.259   4.118  1.1601  0.3301 -1.0166
13206SOL    HW242157   2.434   2.158   4.007 -0.5765  1.7098 -2.1387
13207SOL     OW42158   7.200   2.733   5.018  0.8565  0.0325 -0.2282
13207SOL    HW142159   7.257   2.672   4.971  0.8680 -0.7867  0.8129
13207SOL    HW242160   7.187   2.692   5.104 -0.0202  0.9755  0.1053
13208SOL     OW42161   2.811   8.899   9.387 -0.3809 -0.1594 -0.3680
13208SOL    HW142162   2.856   8.883   9.471  0.7850  0.1389 -0.9167
13208SOL    HW242163   2.769   8.984   9.399  0.1697  0.1005 -0.2366
13209SOL     OW42164   0.857   9.922   9.530 -0.0922 -0.4737  0.0858
13209SOL    HW142165   0.844   9.916   9.624 -1.4909  0.5748 -0.0106
13209SOL    HW242166   0.862  10.016   9.512 -0.3809 -0.6377 -0.9309
13210SOL     OW42167   7.454   0.874   2.029 -0.6764 -0.0530 -0.6548
13210SOL    HW142168   7.483   0.790   1.994 -2.7656 -1.3722  0.6420
13210SOL    HW242169   7.369   0.889   1.988 -1.2878  0.3706  0.7276
13211SOL     OW42170   5.984   9.515   6.798  0.0382  0.4445 -0.3107
13211SOL    HW142171   5.913   9.472   6.750 -0.1622  0.6682 -0.2195
13211SOL    HW242172   5.948   9.527   6.886  1.1482 -1.8372  0.4821
13212SOL     OW42173   0.423   2.923   1.317  0.3636 -0.1296  0.2169
13212SOL    HW142174   0.460   2.999   1.362 -0.0564  0.7643 -0.9235
13212SOL    HW242175   0.329   2.927   1.336  0.6884 -1.8925  2.3693
13213SOL     OW42176   9.110   0.204   5.051  0.4002  0.2002 -0.1725
13213SOL    HW142177   9.069   0.288   5.075  0.5425 -0.0834  1.0821
13213SOL    HW242178   9.073   0.183   4.966  0.6977  1.7724 -0.7040
13214SOL     OW42179   9.957   8.928   0.033 -0.2054 -1.1172 -0.2888
13214SOL    HW142180  10.038   8.975   0.049  0.2367 -1.7459 -0.6540
13214SOL    HW242181   9.946   8.871   0.109 -0.7475 -0.4278  0.1601
13215SOL     OW42182   3.985   1.126   6.223  0.3319 -0.2315  0.8035
13215SOL    HW142183   3.901   1.090   6.197  0.5081 -0.5519  0.6711
13215SOL    HW242184   4.008   1.080   6.303  0.2248  0.0932  1.0199
13216SOL     OW42185   5.245   5.325   9.116 -0.3233  0.0858  0.0613
13216SOL    HW142186   5.280   5.413   9.135  1.6531 -0.7729  0.5133
13216SOL    HW242187   5.156   5.328   9.150  0.1041  1.5684  1.1291
13217SOL     OW42188   6.972   9.333   2.324  0.3216  0.3660 -0.0669
13217SOL    HW142189   6.916   9.355   2.399 -0.5590 -0.7466 -0.3804
13217SOL    HW242190   6.930   9.377   2.250 -0.9639 -1.5844 -0.5464
13218SOL     OW42191   7.084   6.609   0.473 -0.5802  0.2706 -0.4752
13218SOL    HW142192   7.011   6.656   0.432 -0.8218  2.1390  2.0131
13218SOL    HW242193   7.043   6.562   0.546  0.3765 -0.4006 -0.3693
13219SOL     OW42194   7.741   0.065   6.137 -0.5984  0.0890 -0.2087
13219SOL    HW142195   7.709   0.127   6.072  0.7154 -0.2995 -1.2564
13219SOL    HW242196   7.817   0.024   6.095  0.2616 -0.1757  1.5654
13220SOL     OW42197   3.174   0.248   7.021 -0.0011  0.3105 -0.4218
13220SOL    HW142198   3.119   0.270   6.946  1.2512  1.6335 -0.9677
13220SOL    HW242199   3.258   0.221   6.983  0.2681 -0.1566  0.4635
13221SOL     OW42200   1.293   1.787   8.192  0.0115  0.1390 -0.1897
13221SOL    HW142201   1.284   1.874   8.232 -1.3637  0.2121 -0.6391
13221SOL    HW242202   1.361   1.745   8.244  0.2292  1.2521  0.4611
13222SOL     OW42203   2.133   5.940   1.400 -0.2487 -0.3057  0.0615
13222SOL    HW142204   2.159   6.029   1.375  1.2640 -0.5363  0.7857
13222SOL    HW242205   2.093   5.951   1.487 -1.9154 -0.0594 -0.7218
13223SOL     OW42206   1.416   4.661   8.843 -0.3539 -0.5353  0.5049
13223SOL    HW142207   1.364   4.731   8.881 -0.5665 -0.2984 -0.2274
13223SOL    HW242208   1.428   4.686   8.751 -1.8137 -2.2618 -0.1742
13224SOL     OW42209   3.959   6.315   1.905  0.2787  0.6134 -0.3673
13224SOL    HW142210   3.997   6.398   1.876  0.9543  0.5906  0.4307
13224SOL    HW242211   4.000   6.298   1.991  0.4328 -0.7210 -0.6839
13225SOL     OW42212   3.078   1.377   9.476  0.3052  0.6102 -0.1884
13225SOL    HW142213   3.097   1.436   9.403 -0.7138 -0.9920 -1.7797
13225SOL    HW242214   3.162   1.334   9.495  1.0832  2.5886  1.0629
13226SOL     OW42215   7.620   5.951   4.644  0.3835 -0.0207  0.1363
13226SOL    HW142216   7.642   5.869   4.600 -0.2424 -0.3051  0.3438
13226SOL    HW242217   7.703   5.983   4.678  0.7323 -0.2542 -0.4755
13227SOL     OW42218   9.314   1.106   6.419 -0.3521  0.3976 -0.5290
13227SOL    HW142219   9.406   1.087   6.436 -0.5014 -1.5119 -1.7020
13227SOL    HW242220   9.315   1.190   6.372  0.7265  0.7499  0.1192
13228SOL     OW42221   7.649   8.418   2.593 -0.3407  0.1378  0.5520
13228SOL    HW142222   7.612   8.336   2.627  0.3688 -0.1650  0.5892
13228SOL    HW242223   7.581   8.452   2.535 -0.6505 -0.4661  0.5558
13229SOL     OW42224   7.954   6.568   6.438 -0.3925 -0.1354 -0.5055
13229SOL    HW142225   7.861   6.556   6.460 -0.2414  1.0236  0.8155
13229SOL    HW242226   7.990   6.615   6.513  1.0142  0.4715 -1.5522
13230SOL     OW42227   7.301   3.519   9.747  0.3210 -0.1069 -0.3684
13230SOL    HW142228   7.381   3.569   9.763 -0.2715  0.4863  0.7629
13230SOL    HW242229   7.232   3.567   9.792 -0.1839 -2.1449  1.1035
13231SOL     OW42230   2.082   2.339   4.690  1.2383 -0.5381 -0.5283
13231SOL    HW142231   2.097   2.288   4.769  0.6198  0.4641  0.2451
13231SOL    HW242232   1.993   2.318   4.663  1.6086 -1.2456 -1.2503
13232SOL     OW42233   7.276   7.007   8.497 -0.4864  0.3356 -0.0991
13232SOL    HW142234   7.356   7.056   8.519 -0.0333 -0.3346 -0.2379
13232SOL    HW242235   7.252   7.039   8.410 -1.6778  2.2116  0.8893
13233SOL     OW42236   6.352   0.619   8.562 -0.6373 -0.3746  0.0297
13233SOL    HW142237   6.259   0.596   8.566 -0.7063 -0.1295 -0.2230
13233SOL    HW242238   6.369   0.663   8.646 -0.9766  0.4559 -0.3347
13234SOL     OW42239   1.275   1.700   4.404 -0.6374  0.4030  0.2912
13234SOL    HW142240   1.355   1.719   4.356  0.6729 -2.1822  1.3871
13234SOL    HW242241   1.219   1.655   4.341  0.4773 -1.6052  0.6851
13235SOL     OW42242   8.007   4.916   7.498  0.4923  0.3559 -0.2613
13235SOL    HW142243   7.943   4.987   7.506  0.0590 -0.1032  0.3768
13235SOL    HW242244   8.091   4.961   7.486  0.6483  1.0623  3.0211
13236SOL     OW42245   6.957   4.752   1.947  0.9482  0.0594 -0.0642
13236SOL    HW142246   6.956   4.845   1.924 -0.0844 -0.4169 -2.0839
13236SOL    HW242247   6.865   4.725   1.944  1.3362 -1.2618 -0.4968
13237SOL     OW42248   5.928   2.507   5.646  0.3629  0.0066  0.3012
13237SOL    HW142249   5.887   2.438   5.593 -0.9646  1.7804 -1.0706
13237SOL    HW242250   5.890   2.588   5.612  0.2671  1.2883  3.3106
13238SOL     OW42251   9.909   2.750   9.695 -0.1477  0.1268  0.0138
13238SOL    HW142252   9.911   2.654   9.695  0.7094  0.1433  0.4776
13238SOL    HW242253   9.861   2.772   9.615  1.0037 -0.6649 -0.9099
13239SOL     OW42254   4.855   3.750   5.715  0.5648  0.5633  0.1921
13239SOL    HW142255   4.805   3.672   5.692  0.2914  1.1296 -1.1525
13239SOL    HW242256   4.945   3.729   5.691  0.2972  1.1120 -1.3407
13240SOL     OW42257   1.838   4.891   5.158  0.8306 -0.2000 -0.1942
13240SOL    HW142258   1.891   4.874   5.235  1.8720  0.3109 -0.7833
13240SOL    HW242259   1.766   4.944   5.189  0.1886 -1.6068  0.7709
13241SOL     OW42260   0.276   3.577   6.210 -0.1716  0.3027  0.0635
13241SOL    HW142261   0.332   3.503   6.232 -0.4789  0.2811  0.7692
13241SOL    HW242262   0.261   3.623   6.293 -0.0329  1.1251 -0.3541
13242SOL     OW42263   8.150   2.918   0.581  0.1824 -0.0143 -0.0083
13242SOL    HW142264   8.123   2.837   0.538 -0.5193 -0.2409  0.8390
13242SOL    HW242265   8.246   2.913   0.583  0.2351  0.0651 -1.6492
13243SOL     OW42266   6.486   5.931   8.224  0.2566 -0.2435 -0.3676
13243SOL    HW142267   6.396   5.903   8.239  0.4603 -0.1724  1.0417
13243SOL    HW242268   6.482   5.983   8.144 -1.0842  0.3943  0.1081
13244SOL     OW42269   5.704   7.856   4.681 -0.7676  0.9819  0.5225
13244SOL    HW142270   5.613   7.850   4.708 -0.5532 -0.1235  0.9977
13244SOL    HW242271   5.750   7.887   4.759 -0.2052 -1.8593  1.3599
13245SOL     OW42272   2.923   7.086   2.113  0.8668  0.2793  0.3324
13245SOL    HW142273   2.994   7.071   2.176  1.4103 -2.5910 -0.9021
13245SOL    HW242274   2.843   7.066   2.161  1.3249 -2.5986 -0.0529
13246SOL     OW42275   8.408   2.422   7.281 -0.3005 -0.0101  0.3893
13246SOL    HW142276   8.375   2.365   7.350 -1.4034 -0.8163 -0.7611
13246SOL    HW242277   8.345   2.493   7.276 -0.0248  0.2407  0.4617
13247SOL     OW42278   6.133   3.612   2.615 -0.0747 -0.0063 -0.1480
13247SOL    HW142279   6.228   3.614   2.606 -0.1860  1.6827 -1.1045
13247SOL    HW242280   6.110   3.520   2.600  1.5012 -0.6812  1.3812
13248SOL     OW42281  10.049   1.632  10.077 -0.3186 -0.0353  0.1783
13248SOL    HW142282   9.993   1.564  10.113  1.7911 -1.4025  0.9519
13248SOL    HW242283  10.132   1.622  10.123  0.6628  1.7721 -1.1273
13249SOL     OW42284   9.611  10.091   3.309 -0.1927  0.2243 -0.2590
13249SOL    HW142285   9.693  10.069   3.266 -1.8371 -2.1452 -2.3855
13249SOL    HW242286   9.580  10.169   3.264  0.2390  0.3242 -0.3797
13250SOL     OW42287   6.190   9.119   8.895  0.0430 -0.1355 -0.2300
13250SOL    HW142288   6.229   9.097   8.980 -0.2752  0.7145  0.1452
13250SOL    HW242289   6.106   9.160   8.918 -0.7191 -1.2522 -1.0039
13251SOL     OW42290   2.249   8.556   4.961  0.6815 -0.0836  0.4516
13251SOL    HW142291   2.341   8.573   4.978  1.1469 -0.9845 -1.1259
13251SOL    HW242292   2.235   8.581   4.870 -1.1365  2.0095  1.2422
13252SOL     OW42293   1.864   6.391   0.326  0.2138  0.4255 -0.0264
13252SOL    HW142294   1.951   6.351   0.335  0.1058  0.1417 -0.2265
13252SOL    HW242295   1.829   6.351   0.246 -0.7043 -0.5865  0.8680
13253SOL     OW42296   2.197  10.082   5.462  0.0579  0.3434 -0.6865
13253SOL    HW142297   2.253  10.007   5.485  0.2747  0.5534 -0.5368
13253SOL    HW242298   2.258  10.155   5.452 -0.6069  1.5916  3.6578
13254SOL     OW42299   8.280   6.594  10.022 -0.0052 -0.5994 -0.7027
13254SOL    HW142300   8.288   6.639   9.938  0.1495  0.1505 -0.2920
13254SOL    HW242301   8.369   6.564  10.043  0.2062  0.3787 -0.1726
13255SOL     OW42302   6.506   7.991   9.393 -0.6390 -0.6334  0.0956
13255SOL    HW142303   6.589   7.952   9.366 -0.1314 -0.0655  0.7853
13255SOL    HW242304   6.457   8.004   9.312  0.6150  0.5065 -0.4919
13256SOL     OW42305   3.348   3.884   5.976  0.4071 -0.2081  0.5961
13256SOL    HW142306   3.432   3.874   5.931  0.3056  2.8393 -0.3932
13256SOL    HW242307   3.284   3.851   5.913  0.6110  0.3348  0.0963
13257SOL     OW42308   4.839  10.040   0.719 -0.2416  0.2053 -0.4758
13257SOL    HW142309   4.785   9.999   0.652  0.1730 -1.1976  0.0224
13257SOL    HW242310   4.917   9.985   0.724  0.7539  1.5942 -0.4349
13258SOL     OW42311   1.562   4.461   3.971 -0.2927  0.5085 -0.0441
13258SOL    HW142312   1.510   4.538   3.997  1.9494  1.9645  0.2617
13258SOL    HW242313   1.570   4.410   4.051 -0.8434  0.5029  0.0133
13259SOL     OW42314   3.728  10.011   2.605  0.2414  0.1409  0.4130
13259SOL    HW142315   3.786   9.973   2.538  0.9971 -0.8030  1.5916
13259SOL    HW242316   3.689   9.936   2.648 -2.1324  0.7769 -0.5809
13260SOL     OW42317   6.082   3.972   2.563 -0.1739 -0.8081  0.1536
13260SOL    HW142318   6.131   3.925   2.630 -0.0037 -2.2409 -0.9343
13260SOL    HW242319   6.141   3.975   2.488 -0.5023  0.4260 -0.0640
13261SOL     OW42320   8.836   5.829   8.600  0.1900 -0.5680 -0.4923
13261SOL    HW142321   8.801   5.909   8.561 -0.2242 -0.9283 -0.8650
13261SOL    HW242322   8.913   5.808   8.546 -0.5150 -1.1940 -1.2755
13262SOL     OW42323   5.986   9.977   6.639 -0.1519 -0.4367 -0.3668
13262SOL    HW142324   5.964   9.884   6.630 -1.0988 -0.1850 -0.7195
13262SOL    HW242325   5.925  10.021   6.580  0.2603  0.4163 -0.1553
13263SOL     OW42326   7.906   3.021   7.323  0.1460  0.4344 -0.1227
13263SOL    HW142327   7.888   3.080   7.249 -0.5888 -0.6421 -0.8159
13263SOL    HW242328   7.847   3.051   7.392  0.2811  0.9557 -0.2328
13264SOL     OW42329   7.367   0.575   9.714  0.0045  0.6387 -0.2320
13264SOL    HW142330   7.377   0.637   9.786  0.8533  1.0655 -0.6955
13264SOL    HW242331   7.421   0.500   9.738  0.5975  0.9449 -0.5920
13265SOL     OW42332   9.230   5.773   5.775 -0.2097 -0.3082 -0.2554
13265SOL    HW142333   9.219   5.866   5.754 -2.8139 -0.9687 -2.0561
13265SOL    HW242334   9.218   5.728   5.691  1.6343 -2.2655  0.4859
13266SOL     OW42335   7.559   0.769   0.378  0.2652  0.4045  0.3789
13266SOL    HW142336   7.486   0.741   0.323  0.6437  0.5659 -0.2141
13266SOL    HW242337   7.635   0.723   0.342  0.7234  1.4341  0.0199
13267SOL     OW42338   7.982   1.917   6.901 -0.6422  0.2885 -0.1790
13267SOL    HW142339   8.024   1.865   6.833 -0.5237 -0.2747  0.3239
13267SOL    HW242340   7.962   1.855   6.970  1.1888  1.2105  1.2312
13268SOL     OW42341   7.125   6.850   8.861 -0.2364  0.1048  0.3943
13268SOL    HW142342   7.106   6.921   8.800  0.1779  1.4589  1.8296
13268SOL    HW242343   7.219   6.858   8.878 -0.0936 -1.0695  0.2336
13269SOL     OW42344   6.244   9.912   4.622 -0.0640 -0.4074  0.3649
13269SOL    HW142345   6.297   9.841   4.659  0.5889  0.3296  0.8481
13269SOL    HW242346   6.273   9.991   4.668 -2.6371 -0.2191  1.6998
13270SOL     OW42347   9.480   8.319   4.475  0.0725  0.2165  0.1180
13270SOL    HW142348   9.471   8.415   4.470 -0.1564  0.1939  0.0842
13270SOL    HW242349   9.564   8.306   4.520  1.1041  0.4416 -1.6683
13271SOL     OW42350   7.548   4.928   5.495 -0.2314 -0.2573  0.0796
13271SOL    HW142351   7.528   4.863   5.562 -0.2688 -0.0675  0.2496
13271SOL    HW242352   7.558   4.876   5.415  1.5128 -0.6787  0.5432
13272SOL     OW42353   7.455   5.500   7.016  0.1590 -0.0481 -0.1844
13272SOL    HW142354   7.420   5.574   6.968  0.5678 -0.6987 -1.5033
13272SOL    HW242355   7.443   5.425   6.957  0.2299 -0.9441  0.9113
13273SOL     OW42356   8.971   9.028   6.113  0.3354  0.2865 -0.3132
13273SOL    HW142357   8.985   9.122   6.103 -0.3594  0.5143  0.6775
13273SOL    HW242358   8.903   9.021   6.181  0.2645 -0.9211 -0.4870
13274SOL     OW42359   1.892   0.650   6.441 -0.2377  0.2266  0.2079
13274SOL    HW142360   1.840   0.646   6.521 -0.6655  0.1670 -0.0693
13274SOL    HW242361   1.906   0.744   6.427 -0.7276  0.2689 -0.0075
13275SOL     OW42362   5.648   6.406   7.404  0.9998 -0.0223 -0.2697
13275SOL    HW142363   5.622   6.452   7.484 -1.5831 -0.1847 -0.9685
13275SOL    HW242364   5.740   6.383   7.419  0.5125 -0.2947  2.7625
13276SOL     OW42365   8.198   0.154   8.582  0.0701 -0.0202 -0.0816
13276SOL    HW142366   8.282   0.194   8.607  0.3856 -1.6761  1.6600
13276SOL    HW242367   8.174   0.102   8.658 -2.5684  0.4354 -0.5797
13277SOL     OW42368   8.718   4.804   8.058 -0.0049  0.3008  0.3079
13277SOL    HW142369   8.782   4.825   8.126  0.3617  1.7513 -0.4548
13277SOL    HW242370   8.648   4.868   8.071  0.1980  0.7697 -0.8349
13278SOL     OW42371   7.669   1.282   1.008 -0.2308 -0.0203  0.1043
13278SOL    HW142372   7.661   1.201   1.059 -0.2723 -0.9404 -1.3135
13278SOL    HW242373   7.709   1.345   1.068  1.5587 -1.6477  0.6794
13279SOL     OW42374   2.502   5.334   2.040 -0.0085 -0.0502 -0.4857
13279SOL    HW142375   2.468   5.409   2.088  1.2414  1.2061 -1.5154
13279SOL    HW242376   2.555   5.286   2.104  0.0646  0.5435 -0.0956
13280SOL     OW42377   4.323   7.315   5.368  0.1122  0.1938  0.3355
13280SOL    HW142378   4.360   7.379   5.430 -0.9641 -1.2296  2.5063
13280SOL    HW242379   4.282   7.250   5.424 -0.8616 -1.1580 -1.9318
13281SOL     OW42380   5.564   0.727   9.065  0.5297 -0.1506  0.4772
13281SOL    HW142381   5.552   0.639   9.028 -0.1715  0.3406 -0.4952
13281SOL    HW242382   5.533   0.720   9.155 -0.9743 -0.5347 -0.0518
13282SOL     OW42383   2.980   0.427   3.320 -0.6470  0.2864  0.4677
13282SOL    HW142384   2.926   0.448   3.245 -0.2021 -2.3397 -0.6609
13282SOL    HW242385   2.968   0.501   3.380 -0.7675  2.5660 -2.2695
13283SOL     OW42386   0.545   2.331   2.336 -0.4945 -0.5934  0.1158
13283SOL    HW142387   0.533   2.363   2.425  0.8052 -1.5666  0.6571
13283SOL    HW242388   0.480   2.262   2.326  0.4788 -1.6487  0.9153
13284SOL     OW42389  10.136   1.939   9.018  0.3064  0.4080 -0.7349
13284SOL    HW142390  10.191   1.986   9.080 -0.6747  1.0694 -0.3443
13284SOL    HW242391  10.197   1.903   8.954  1.1781  1.2096 -0.3705
13285SOL     OW42392   1.247   4.983   1.649 -0.2264  0.1768  0.0609
13285SOL    HW142393   1.338   4.997   1.674  0.3424 -1.7927 -0.8192
13285SOL    HW242394   1.244   4.892   1.619 -2.7154 -0.1027  1.0642
13286SOL     OW42395   4.100   8.695  10.037  0.2644  0.5460 -0.1205
13286SOL    HW142396   4.136   8.619  10.082  0.0321  0.4141 -0.1555
13286SOL    HW242397   4.011   8.702  10.071  0.2426  0.7214 -0.2170
13287SOL     OW42398   6.067   1.106   5.577  0.0615  0.4786  0.1505
13287SOL    HW142399   6.085   1.024   5.623 -1.6337  0.2156  0.3819
13287SOL    HW242400   6.071   1.083   5.484 -0.2073  0.1799  0.2126
13288SOL     OW42401   9.902   1.520   5.440 -0.5558 -0.3658  0.3906
13288SOL    HW142402   9.924   1.524   5.347  1.0949 -0.7661  0.7474
13288SOL    HW242403   9.822   1.572   5.448 -1.1763 -0.9948 -1.3822
13289SOL     OW42404   6.532   8.286   5.230  0.7952 -0.5149 -0.6188
13289SOL    HW142405   6.447   8.330   5.226  1.1150  0.1926  0.2497
13289SOL    HW242406   6.550   8.262   5.139  0.2470  0.4403 -0.9860
13290SOL     OW42407   7.727   6.094   6.475 -0.3652 -0.2616 -0.1036
13290SOL    HW142408   7.716   6.125   6.565  0.0997  0.2320 -0.2142
13290SOL    HW242409   7.638   6.084   6.442 -0.5179  0.6427  0.0403
13291SOL     OW42410   5.198   3.913   0.425  0.6202  0.7200 -0.2276
13291SOL    HW142411   5.225   3.825   0.452  2.7958  1.6362  0.6955
13291SOL    HW242412   5.126   3.935   0.483  0.5540 -0.1726  0.0303
13292SOL     OW42413   1.834   2.159   0.460 -0.0634 -0.1059  0.3797
13292SOL    HW142414   1.881   2.239   0.485  0.8608 -0.7358  0.6816
13292SOL    HW242415   1.769   2.147   0.529  1.2589 -0.8243  1.5292
13293SOL     OW42416   2.416   5.245   2.423 -0.4234 -0.2722  0.3590
13293SOL    HW142417   2.486   5.308   2.442 -0.7989 -0.1203  1.2853
13293SOL    HW242418   2.431   5.218   2.332  0.4433  0.2574  0.3424
13294SOL     OW42419   4.774   6.594   7.048 -0.2506  0.3024 -0.2544
13294SOL    HW142420   4.842   6.632   7.102 -2.2687 -0.7394  3.1953
13294SOL    HW242421   4.700   6.654   7.055 -1.3730 -1.0831  0.2084
13295SOL     OW42422   3.929   6.088  10.031  0.2812  0.1511  0.0601
13295SOL    HW142423   3.971   6.158  10.081 -0.3558  0.0335  0.7744
13295SOL    HW242424   3.907   6.022  10.097  0.9517 -0.7611 -0.6164
13296SOL     OW42425   4.294   7.765   6.496  0.1888  0.3905 -0.2194
13296SOL    HW142426   4.238   7.818   6.440 -2.3031  0.6123  2.3707
13296SOL    HW242427   4.350   7.828   6.541  1.1639  0.3216 -1.2983
13297SOL     OW42428   1.709   4.868   9.067 -0.4724  0.2690 -0.3988
13297SOL    HW142429   1.793   4.853   9.111 -0.9253  1.1105  0.7660
13297SOL    HW242430   1.719   4.953   9.026 -1.1409  0.8845  0.6880
13298SOL     OW42431   9.687   1.178   4.088  0.7051  0.1144  0.4807
13298SOL    HW142432   9.777   1.180   4.121  0.5113  1.0117  0.9667
13298SOL    HW242433   9.633   1.191   4.166  0.2408  2.5150 -0.1940
13299SOL     OW42434   4.983   1.307   6.276  0.1962 -0.3430 -0.0641
13299SOL    HW142435   4.985   1.402   6.265  0.1476 -0.3243  0.0818
13299SOL    HW242436   4.916   1.277   6.215 -1.1516 -0.0838  1.2505
13300SOL     OW42437   3.203   4.083   9.630 -0.2044  0.0227  0.0613
13300SOL    HW142438   3.281   4.075   9.684  0.2935  1.4222 -0.4226
13300SOL    HW242439   3.207   4.008   9.571  0.4494 -0.2449  0.4339
13301SOL     OW42440   7.278   8.352   6.336  0.1237 -0.3030  0.6835
13301SOL    HW142441   7.365   8.386   6.314 -0.4879  0.1734 -1.1290
13301SOL    HW242442   7.226   8.368   6.257 -0.9433 -2.8734  0.8105
13302SOL     OW42443   6.827   0.250   1.708  0.5150  0.2368 -0.2224
13302SOL    HW142444   6.736   0.249   1.739  0.4573  2.3126 -0.2690
13302SOL    HW242445   6.878   0.274   1.785  0.8017  1.1014 -0.6713
13303SOL     OW42446   7.982   3.244   8.865 -0.0037  0.0092  0.2516
13303SOL    HW142447   7.924   3.229   8.791  0.4080 -0.0927 -0.0514
13303SOL    HW242448   8.052   3.300   8.830  0.4472 -0.4358  0.4400
13304SOL     OW42449   4.933   1.830   7.449  0.3044  0.7615  0.0881
13304SOL    HW142450   5.025   1.834   7.477  0.7650 -2.2805 -0.7022
13304SOL    HW242451   4.938   1.835   7.353 -0.5205  2.4026  0.1245
13305SOL     OW42452   8.981   0.799   0.886 -0.2181  0.9467  0.0256
13305SOL    HW142453   9.026   0.883   0.900 -1.1470  1.2711  1.1729
13305SOL    HW242454   8.986   0.785   0.792  3.0823  0.5095  0.1842
13306SOL     OW42455  10.095   7.901   3.353 -0.2819  0.2051 -0.0486
13306SOL    HW142456  10.044   7.849   3.290  0.1534 -0.0651 -0.1885
13306SOL    HW242457  10.169   7.934   3.301  0.7247 -1.0014  0.5969
13307SOL     OW42458   2.202   6.130   6.249  0.0980  0.1633 -0.7305
13307SOL    HW142459   2.195   6.200   6.185 -0.3528  0.7177 -0.0676
13307SOL    HW242460   2.240   6.171   6.326 -1.0019 -0.1308 -0.0300
13308SOL     OW42461   9.019   2.973   3.531  0.0118 -0.7722 -0.1641
13308SOL    HW142462   9.012   2.930   3.446 -0.4100  0.9877 -1.0514
13308SOL    HW242463   9.085   3.041   3.518 -0.7636  0.1548  0.6272
13309SOL     OW42464   2.432   0.845  10.144 -0.1500  0.3633 -0.4810
13309SOL    HW142465   2.361   0.808  10.092  0.1834  0.2783 -0.8805
13309SOL    HW242466   2.479   0.769  10.179 -1.8943  0.3965  2.0765
13310SOL     OW42467   5.867   6.125   2.025 -0.0942  0.5878  0.1166
13310SOL    HW142468   5.890   6.142   2.117  0.2041 -0.3037  0.2156
13310SOL    HW242469   5.794   6.063   2.031 -0.7641  1.3273 -0.2397
13311SOL     OW42470   4.817   8.314   3.582 -0.8152 -0.1871  0.3525
13311SOL    HW142471   4.852   8.275   3.502 -0.8570  0.8654 -0.1909
13311SOL    HW242472   4.893   8.355   3.624 -0.9050 -0.2034  0.5307
13312SOL     OW42473   3.731   2.887   2.215 -0.1704 -0.3268  0.3009
13312SOL    HW142474   3.706   2.952   2.149 -1.2577  1.0729  2.0628
13312SOL    HW242475   3.782   2.937   2.279  1.8265 -1.8927  0.0065
13313SOL     OW42476   8.576   3.834   9.933  0.9300  0.4863  0.3486
13313SOL    HW142477   8.528   3.761   9.972  0.6080 -0.4930 -1.7905
13313SOL    HW242478   8.664   3.827   9.970  1.4088 -2.0865 -1.1466
13314SOL     OW42479   0.824   9.506   6.462  0.1350 -0.1682  0.0675
13314SOL    HW142480   0.759   9.440   6.437  0.4732 -1.0259  1.3730
13314SOL    HW242481   0.774   9.586   6.476 -0.2699 -0.1012 -1.6475
13315SOL     OW42482   7.813   7.814   9.063  0.2283  0.0330  0.0065
13315SOL    HW142483   7.900   7.803   9.025  0.1684  0.7378 -0.3396
13315SOL    HW242484   7.757   7.757   9.011  0.4490 -0.2834  0.1121
13316SOL     OW42485   9.280   4.316   4.252  0.0775 -0.1078  0.6268
13316SOL    HW142486   9.270   4.289   4.161  1.3063  1.6024 -0.0403
13316SOL    HW242487   9.263   4.237   4.303 -1.3581 -0.9047 -1.0474
13317SOL     OW42488   9.689   9.776   1.054  0.0412  0.1996 -0.1130
13317SOL    HW142489   9.719   9.862   1.025 -0.0306  0.6729  1.1701
13317SOL    HW242490   9.685   9.724   0.975 -0.3328  1.5116 -0.9740
13318SOL     OW42491   8.647   8.157   6.710  0.1081  0.3230  0.9985
13318SOL    HW142492   8.738   8.151   6.742  0.1513  0.4297  0.8962
13318SOL    HW242493   8.594   8.125   6.783  0.0787  2.2969  1.8895
13319SOL     OW42494   7.249   9.163   1.807  0.1505 -0.6085  0.3907
13319SOL    HW142495   7.268   9.161   1.713  0.3396  0.4897  0.3960
13319SOL    HW242496   7.303   9.093   1.844 -0.0669 -1.1728 -0.3461
13320SOL     OW42497   8.572  10.077   4.055 -0.7429  0.7443 -0.1627
13320SOL    HW142498   8.606  10.032   4.133 -1.1155 -0.9825 -0.9838
13320SOL    HW242499   8.566  10.169   4.082 -1.1553  0.1327  1.9573
13321SOL     OW42500   8.607   5.543   7.408  0.3001 -0.0197 -0.1502
13321SOL    HW142501   8.701   5.521   7.408  0.3031 -0.0570 -1.2485
13321SOL    HW242502   8.587   5.562   7.499  1.1829 -0.8725  0.2389
13322SOL     OW42503   9.943   9.946   2.895  0.1754 -0.5779  0.3672
13322SOL    HW142504  10.005   9.942   2.823 -0.5930 -0.3317 -0.3194
13322SOL    HW242505   9.887  10.021   2.874  0.0617 -0.4019  1.3076
13323SOL     OW42506   3.624   2.059   9.918  0.3798 -0.2923 -0.0545
13323SOL    HW142507   3.703   2.082   9.870 -0.9890  1.9936 -1.2915
13323SOL    HW242508   3.590   1.981   9.873  1.2012 -0.4766 -0.3560
13324SOL     OW42509   8.362   4.317   4.349 -0.2515  0.6662  0.0889
13324SOL    HW142510   8.452   4.286   4.344 -0.5668 -0.1822 -0.3066
13324SOL    HW242511   8.321   4.289   4.267 -1.4727 -0.8847  1.1930
13325SOL     OW42512   0.698   6.568  10.063 -0.5438  0.0827 -0.1467
13325SOL    HW142513   0.628   6.625  10.031 -0.7562 -0.8433 -1.3585
13325SOL    HW242514   0.734   6.527   9.984  0.4587 -0.5002  0.5905
13326SOL     OW42515   0.842   4.115   8.001 -0.1378 -0.7300  0.3586
13326SOL    HW142516   0.919   4.075   7.960  0.1790  0.1346  0.1179
13326SOL    HW242517   0.821   4.190   7.946 -0.4844 -0.3126  1.0512
13327SOL     OW42518   6.185   3.192   7.818  0.3389  0.2155 -0.5163
13327SOL    HW142519   6.220   3.250   7.886 -0.7225  2.2386 -1.6369
13327SOL    HW242520   6.092   3.185   7.837 -0.0400  1.0876 -1.9159
13328SOL     OW42521   7.789   2.154   5.049  0.3776 -0.6091  0.1912
13328SOL    HW142522   7.741   2.203   5.115 -0.8443  0.3983 -1.3874
13328SOL    HW242523   7.874   2.199   5.043  0.3426 -0.4583  0.7808
13329SOL     OW42524   1.108   8.093   1.323  0.3815 -0.8590  0.1762
13329SOL    HW142525   1.075   8.089   1.412 -0.2954 -0.4397 -0.0524
13329SOL    HW242526   1.047   8.151   1.277  1.4773  0.0078 -0.2315
13330SOL     OW42527   1.192   9.806   5.680  0.3526  0.2895  0.5519
13330SOL    HW142528   1.213   9.846   5.595 -0.8767  0.3535  0.2588
13330SOL    HW242529   1.151   9.877   5.730 -1.0585 -0.3494  0.3409
13331SOL     OW42530   4.895   2.695   4.695  1.2769  0.3738  0.8608
13331SOL    HW142531   4.896   2.601   4.715  0.2466  0.2600  0.4168
13331SOL    HW242532   4.985   2.724   4.711  1.9829 -1.0049 -0.4346
13332SOL     OW42533   7.951   6.069   3.736  0.2319  0.9157 -0.2301
13332SOL    HW142534   7.923   6.158   3.758  0.3790  0.6516  1.0625
13332SOL    HW242535   7.875   6.014   3.757  0.3197  0.6738 -0.5343
13333SOL     OW42536   8.846   1.542   6.620  0.2981  0.4261  0.1168
13333SOL    HW142537   8.759   1.560   6.656  0.2586  0.3744  0.0501
13333SOL    HW242538   8.904   1.602   6.667  0.3459 -0.0827  0.7124
13334SOL     OW42539   4.922   7.854   2.639 -0.0915  0.2352  0.4535
13334SOL    HW142540   4.830   7.860   2.612 -0.6755 -0.6392  2.1859
13334SOL    HW242541   4.963   7.801   2.571 -0.9805  0.2042 -0.0711
13335SOL     OW42542   6.380   0.852   9.157  0.1900  0.1167  0.1344
13335SOL    HW142543   6.338   0.766   9.154  0.3672  0.0359 -0.0833
13335SOL    HW242544   6.344   0.894   9.235 -0.0507 -0.0752  0.1265
13336SOL     OW42545   8.420   2.182   5.133 -0.2531  0.1031  0.7465
13336SOL    HW142546   8.467   2.131   5.067  0.6788  0.9119  0.7732
13336SOL    HW242547   8.404   2.120   5.204  0.4359 -0.2836  0.5706
13337SOL     OW42548   1.560   1.688   5.663 -0.0508 -0.3369 -0.4590
13337SOL    HW142549   1.552   1.747   5.588 -0.3861 -0.6547 -0.6693
13337SOL    HW242550   1.492   1.622   5.650 -0.2655 -0.2590  0.2460
13338SOL     OW42551   9.946   3.916   2.340 -0.3872 -0.0404  0.5095
13338SOL    HW142552   9.866   3.864   2.344 -0.8799  0.6042 -0.8636
13338SOL    HW242553  10.014   3.854   2.313 -0.7690 -0.1993 -0.0977
13339SOL     OW42554   3.163   5.670   5.154 -0.4441 -0.3050 -0.3290
13339SOL    HW142555   3.111   5.751   5.160 -1.3465 -0.8081 -1.1840
13339SOL    HW242556   3.204   5.675   5.068  0.6205 -0.0998  0.1851
13340SOL     OW42557   2.617   7.134   6.472 -0.3492 -0.1569  0.2198
13340SOL    HW142558   2.610   7.056   6.417 -1.2890  1.0927 -1.4547
13340SOL    HW242559   2.539   7.130   6.529 -0.9162  0.0730 -0.5378
13341SOL     OW42560   2.671   2.678   8.496  0.1009  0.3830 -0.2990
13341SOL    HW142561   2.656   2.757   8.444  0.9694  0.1223 -0.9602
13341SOL    HW242562   2.764   2.683   8.519 -0.3304  0.6210  1.4486
13342SOL     OW42563   2.808   0.493   4.231  0.0177  0.1008  0.9732
13342SOL    HW142564   2.886   0.548   4.234  0.8493 -1.0620  0.9424
13342SOL    HW242565   2.774   0.494   4.320  0.8323 -0.4797  1.2901
13343SOL     OW42566   9.998   9.182   1.649 -0.3709  0.2167  0.2165
13343SOL    HW142567   9.960   9.180   1.736 -0.4876 -0.2945  0.1531
13343SOL    HW242568   9.925   9.204   1.591 -0.4692 -0.2735  0.1520
13344SOL     OW42569   5.829   0.643   6.241  0.5947 -0.3508 -0.8931
13344SOL    HW142570   5.904   0.702   6.229 -1.0275  2.1939  1.0936
13344SOL    HW242571   5.776   0.654   6.162  1.2422 -0.6006 -1.3692
13345SOL     OW42572   4.297   4.814   7.528 -0.5389  0.0603 -0.4591
13345SOL    HW142573   4.377   4.815   7.580 -1.9419  0.0360  1.7549
13345SOL    HW242574   4.308   4.739   7.469  0.2600 -1.1137  1.1393
13346SOL     OW42575   3.588   0.221   2.164 -0.1615 -0.1891 -0.7247
13346SOL    HW142576   3.511   0.174   2.196 -0.4452 -0.1896 -1.4032
13346SOL    HW242577   3.577   0.222   2.069  0.5455  0.0384 -0.8021
13347SOL     OW42578   8.898   8.676   3.201 -0.1212 -1.2888  0.6164
13347SOL    HW142579   8.932   8.759   3.169 -1.4593 -0.5323  1.1227
13347SOL    HW242580   8.821   8.659   3.147  0.8670 -2.8657 -0.3595
13348SOL     OW42581   6.345   5.164   9.925 -0.2038  0.2891  0.3839
13348SOL    HW142582   6.380   5.219   9.855 -0.1103  0.2168  0.3757
13348SOL    HW242583   6.354   5.218  10.004  0.3159  0.1085  0.4505
13349SOL     OW42584   5.121   7.105   9.600 -0.0765 -0.3473 -0.7812
13349SOL    HW142585   5.076   7.133   9.679 -0.7919  1.5354 -1.8219
13349SOL    HW242586   5.157   7.019   9.622 -1.1456 -0.3105  1.2297
13350SOL     OW42587   8.987   7.740   8.869 -0.2558 -0.2078  0.6201
13350SOL    HW142588   9.006   7.833   8.877  0.1884 -0.2375 -0.0535
13350SOL    HW242589   9.068   7.697   8.895 -0.4007 -0.4020  0.7527
13351SOL     OW42590   2.543   5.311  10.122 -0.2794 -0.1456 -0.0997
13351SOL    HW142591   2.592   5.229  10.123 -0.3918 -0.2023  1.0107
13351SOL    HW242592   2.498   5.311  10.037 -2.8629 -2.7814  1.1787
13352SOL     OW42593   1.099   1.817   6.634  0.1205  0.6856 -0.0543
13352SOL    HW142594   1.184   1.851   6.661 -0.4387  0.5974  1.8948
13352SOL    HW242595   1.063   1.777   6.713 -1.6489  0.5334 -0.9160
13353SOL     OW42596   5.610   7.187   3.740 -0.3345  0.4701  0.1755
13353SOL    HW142597   5.649   7.179   3.653  0.9115  0.8741  0.6835
13353SOL    HW242598   5.524   7.145   3.732 -0.8679  1.8763 -1.6419
13354SOL     OW42599   7.000   8.476   5.435  0.0916  0.1039 -0.0172
13354SOL    HW142600   6.909   8.472   5.405  0.0098  0.7444  0.1399
13354SOL    HW242601   7.046   8.410   5.383 -0.1898  0.7253 -1.0628
13355SOL     OW42602   3.010   0.468   4.540 -0.0709  0.2924 -0.0869
13355SOL    HW142603   2.954   0.445   4.614  1.9859 -0.3914  1.3119
13355SOL    HW242604   2.987   0.405   4.471  1.1121 -2.0111  1.5562
13356SOL     OW42605   6.569   4.030   0.871  0.1228 -0.1818  0.1727
13356SOL    HW142606   6.552   4.009   0.963 -1.4413  0.4762  0.0468
13356SOL    HW242607   6.664   4.037   0.865  0.2040  0.2950  1.8595
13357SOL     OW42608   6.325   7.869   3.186 -0.6109 -0.6260 -0.3762
13357SOL    HW142609   6.265   7.914   3.246 -0.1523  0.7477 -0.9172
13357SOL    HW242610   6.279   7.871   3.102 -0.5614 -1.1218 -0.4130
13358SOL     OW42611  10.097   9.603   3.134  0.0205 -0.0648 -0.3973
13358SOL    HW142612  10.061   9.599   3.222 -1.5285  1.9294 -0.9155
13358SOL    HW242613  10.068   9.522   3.092  0.8803 -1.0798  0.9527
13359SOL     OW42614   2.640   2.144   4.287  0.0671 -0.4648  0.8622
13359SOL    HW142615   2.608   2.150   4.377  0.8386 -2.5829  1.2965
13359SOL    HW242616   2.676   2.231   4.269 -1.8492  0.5754  1.9015
13360SOL     OW42617   9.023   0.775   6.522 -0.0615 -0.7684  0.8475
13360SOL    HW142618   9.027   0.744   6.431 -1.9779 -0.0982  0.5041
13360SOL    HW242619   9.102   0.741   6.562  0.2804 -2.0041 -0.7951
13361SOL     OW42620   5.864   5.843   6.758  0.0420 -0.1679 -0.1982
13361SOL    HW142621   5.863   5.923   6.704 -1.8314 -0.3459 -0.4598
13361SOL    HW242622   5.864   5.875   6.848  1.0008  0.1188 -0.2893
13362SOL     OW42623   6.075   8.176   1.459 -0.4929  0.3659 -0.0268
13362SOL    HW142624   6.008   8.133   1.513 -0.5689 -0.6263 -0.8801
13362SOL    HW242625   6.035   8.183   1.372 -0.3910  1.9905  0.0457
13363SOL     OW42626   6.770   5.634   8.727  0.4840  0.9382 -0.1319
13363SOL    HW142627   6.756   5.590   8.643 -4.2051  0.8150  0.5808
13363SOL    HW242628   6.762   5.727   8.706 -1.3793  0.8831  0.2033
13364SOL     OW42629   8.588   1.435   6.295  0.7115 -0.5217 -0.6216
13364SOL    HW142630   8.661   1.373   6.288  0.0482 -1.0740 -2.6789
13364SOL    HW242631   8.517   1.395   6.246 -0.4693  0.7888 -0.0042
13365SOL     OW42632   8.166   1.386   6.352 -0.1771 -0.5354  0.6749
13365SOL    HW142633   8.180   1.319   6.418  2.3240 -0.5030  0.2309
13365SOL    HW242634   8.103   1.347   6.291 -0.1915 -1.7379  1.4477
13366SOL     OW42635   5.151   7.221   3.553  0.2426 -0.6785  0.8822
13366SOL    HW142636   5.078   7.171   3.591 -0.3899 -0.2432  0.2611
13366SOL    HW242637   5.188   7.161   3.488 -0.5621 -0.3318  0.0862
13367SOL     OW42638   6.371   5.734   9.005  0.1901  0.4162 -0.1951
13367SOL    HW142639   6.459   5.721   9.040  0.0370 -0.4653 -0.1223
13367SOL    HW242640   6.329   5.649   9.014 -0.6828  0.8411 -0.2039
13368SOL     OW42641   2.780   5.175   2.804  0.0867 -0.2748 -0.2147
13368SOL    HW142642   2.757   5.268   2.802  0.4728 -0.1964 -1.0256
13368SOL    HW242643   2.770   5.146   2.713  0.0358 -1.0102  0.0239
13369SOL     OW42644   8.534   6.419   7.398 -0.1565  0.3792 -0.2915
13369SOL    HW142645   8.463   6.474   7.431  1.8238  1.7375  1.9838
13369SOL    HW242646   8.521   6.335   7.441 -0.4178  0.6062  0.0776
13370SOL     OW42647   9.448   9.041   5.627 -0.4665  0.2233  0.2537
13370SOL    HW142648   9.420   8.954   5.656  0.8333 -0.1446  0.4531
13370SOL    HW242649   9.421   9.100   5.698 -2.1085  0.1244 -0.2667
13371SOL     OW42650   5.413   7.413   2.970  0.3436  0.1521  0.3124
13371SOL    HW142651   5.331   7.387   2.927  1.7913 -1.8430 -1.3655
13371SOL    HW242652   5.401   7.388   3.062 -0.8362 -0.3178  0.0417
13372SOL     OW42653   4.287   6.070   8.306 -0.0337 -0.4787 -0.0732
13372SOL    HW142654   4.351   6.130   8.267 -0.2042  1.2385  2.1653
13372SOL    HW242655   4.334   6.028   8.378 -0.5785 -1.4299 -0.2568
13373SOL     OW42656   3.638   1.426   3.445 -0.0569  0.2868 -0.0530
13373SOL    HW142657   3.696   1.350   3.457 -0.2857  0.1033 -0.1001
13373SOL    HW242658   3.692   1.490   3.399  0.8002  0.9624  1.8412
13374SOL     OW42659   8.788   0.936   5.814 -0.0682  0.5746  0.5917
13374SOL    HW142660   8.761   1.013   5.863  0.3898  0.6606  0.7194
13374SOL    HW242661   8.722   0.926   5.746 -1.5117 -0.3652  2.0761
13375SOL     OW42662   2.557   5.122   0.881  0.3879 -0.0525 -0.1137
13375SOL    HW142663   2.490   5.126   0.812 -1.5270  0.5630  1.7317
13375SOL    HW242664   2.608   5.044   0.861 -0.0736  0.1704 -2.2761
13376SOL     OW42665   5.155   9.344   2.065 -0.5941 -0.3443  0.4587
13376SOL    HW142666   5.173   9.328   1.973  0.8911  5.7943 -0.5300
13376SOL    HW242667   5.232   9.311   2.111  0.0769 -0.5908 -0.8181
13377SOL     OW42668   4.796   0.259   6.306  0.6761 -0.2761 -0.0350
13377SOL    HW142669   4.709   0.248   6.343  1.5707 -1.6796  1.7396
13377SOL    HW242670   4.789   0.224   6.217  0.1629 -3.2883  1.1455
13378SOL     OW42671   3.638   2.460   3.329 -0.8044  0.8059 -0.4837
13378SOL    HW142672   3.707   2.502   3.279 -1.4414  0.7042 -1.4574
13378SOL    HW242673   3.626   2.517   3.406  1.0925  0.2403  0.2612
13379SOL     OW42674   4.258   9.926   9.370 -0.1380 -1.0885  0.6618
13379SOL    HW142675   4.278   9.970   9.452 -1.0180 -0.1565  0.3746
13379SOL    HW242676   4.332   9.866   9.357  0.9177  0.0735  1.1989
13380SOL     OW42677   1.606   8.480   7.696  0.4682 -0.2276  0.3492
13380SOL    HW142678   1.573   8.425   7.767  1.3887 -0.3941  0.6568
13380SOL    HW242679   1.559   8.562   7.705 -0.7197 -0.8572  0.0636
13381SOL     OW42680   9.961   8.663   0.845 -0.6130  0.6837  0.1480
13381SOL    HW142681   9.890   8.722   0.822 -0.5661  0.1989 -1.2585
13381SOL    HW242682   9.924   8.607   0.914 -2.2436 -0.8477 -1.9279
13382SOL     OW42683   3.276   0.369   2.354 -0.2305 -0.5176 -0.3767
13382SOL    HW142684   3.321   0.356   2.437 -0.9758 -1.6772 -0.1497
13382SOL    HW242685   3.201   0.424   2.375 -0.3676 -0.7344 -0.3012
13383SOL     OW42686   7.544   3.991   5.592 -0.0974  0.5093  0.0091
13383SOL    HW142687   7.520   3.899   5.584 -1.1120  0.9751 -2.7168
13383SOL    HW242688   7.638   3.994   5.572  0.3478 -0.1254  1.8760
13384SOL     OW42689  10.165   3.802   0.062  0.0307  0.0298  0.2278
13384SOL    HW142690  10.219   3.750   0.003  1.4038  1.0154  0.5693
13384SOL    HW242691  10.106   3.739   0.103 -0.0541 -0.8511 -1.2265
13385SOL     OW42692   9.975   9.005   4.776 -0.1818 -0.4992 -0.4039
13385SOL    HW142693  10.040   8.960   4.830 -0.4145 -0.1374  0.1924
13385SOL    HW242694   9.924   9.057   4.839  0.1073  0.6154 -1.0732
13386SOL     OW42695   0.854   4.104   6.216  0.2628  0.2940  0.4336
13386SOL    HW142696   0.937   4.146   6.240 -1.2058  2.5465  1.8501
13386SOL    HW242697   0.878   4.038   6.152  3.3378 -0.0789  1.8522
13387SOL     OW42698   4.475   6.712   3.617 -0.6142  0.7519 -0.4237
13387SOL    HW142699   4.398   6.676   3.662  1.4053 -1.2739  1.6075
13387SOL    HW242700   4.484   6.658   3.539 -0.0695 -0.4279  0.4293
13388SOL     OW42701   2.236   5.986   9.561  0.3441  0.1762 -0.2273
13388SOL    HW142702   2.309   5.963   9.618 -1.4255 -0.6249  1.7765
13388SOL    HW242703   2.166   5.926   9.587 -1.3593  1.6445 -1.3667
13389SOL     OW42704   8.468   8.316   6.596  0.5924 -0.3777 -0.3453
13389SOL    HW142705   8.532   8.263   6.644 -0.6518 -1.0884  0.5642
13389SOL    HW242706   8.430   8.374   6.662  1.0221  0.7495 -1.0814
13390SOL     OW42707   9.345   9.600   2.371 -0.1360  0.1893  0.2285
13390SOL    HW142708   9.386   9.687   2.365  0.2199 -0.0452 -0.8022
13390SOL    HW242709   9.263   9.616   2.417  0.1466  0.9983  0.4689
13391SOL     OW42710   4.792   6.675   4.648  0.1037 -0.4239  0.2585
13391SOL    HW142711   4.767   6.750   4.594 -0.1584 -0.1295  0.7837
13391SOL    HW242712   4.885   6.687   4.664  0.2059 -0.5699 -0.2162
13392SOL     OW42713   9.240   0.069   9.922 -0.6819 -0.4488  0.1135
13392SOL    HW142714   9.214   0.152   9.962 -1.0745 -0.5382  0.0448
13392SOL    HW242715   9.335   0.076   9.914 -0.6650 -0.1721  0.4850
13393SOL     OW42716   2.610   9.129   2.886 -0.5143  0.4866  0.3281
13393SOL    HW142717   2.661   9.122   2.966  0.7328  0.2127 -0.4720
13393SOL    HW242718   2.672   9.107   2.816 -1.5937  0.6576 -0.7029
13394SOL     OW42719   4.062   4.541   4.445  0.1294  0.1644 -0.2774
13394SOL    HW142720   4.145   4.589   4.445  0.5141 -0.4762  0.2483
13394SOL    HW242721   4.039   4.533   4.538 -1.3568  1.7253 -0.4915
13395SOL     OW42722   1.373   9.069   9.360 -0.2691  0.1115 -0.2843
13395SOL    HW142723   1.290   9.034   9.329 -1.1236  2.0215 -0.2463
13395SOL    HW242724   1.427   8.992   9.375 -2.1299 -1.1913 -0.0128
13396SOL     OW42725  10.165   6.676   5.154  0.3938  0.6437  0.0379
13396SOL    HW142726  10.244   6.692   5.206  0.2932  1.9310 -0.1980
13396SOL    HW242727  10.097   6.657   5.219  0.8662 -0.3924  0.2457
13397SOL     OW42728   8.794   9.145   0.520 -0.1441 -0.4179 -0.3173
13397SOL    HW142729   8.889   9.145   0.522 -0.1524  0.3305  0.5133
13397SOL    HW242730   8.770   9.233   0.491 -0.5858 -0.3579  0.2152
13398SOL     OW42731   8.927   1.361   4.629 -0.8756 -0.1314  0.1415
13398SOL    HW142732   8.933   1.453   4.601  1.4113 -0.0986  0.6155
13398SOL    HW242733   8.908   1.366   4.722  2.8571 -0.0156  0.9798
13399SOL     OW42734   2.726   4.717   3.937 -0.4228  0.2814 -0.3721
13399SOL    HW142735   2.775   4.772   3.998  0.4759 -0.5286 -0.3461
13399SOL    HW242736   2.648   4.690   3.986 -0.3755  0.7246 -0.0504
13400SOL     OW42737   2.415   3.932   1.352  0.2344 -0.3553 -0.0345
13400SOL    HW142738   2.352   3.868   1.387  0.7897 -0.6106  0.5010
13400SOL    HW242739   2.487   3.932   1.415  1.1792 -0.7088 -1.1001
13401SOL     OW42740   8.111   1.237   6.110  0.0643 -0.4210 -0.2974
13401SOL    HW142741   8.069   1.155   6.138 -0.8520  0.4076  0.8003
13401SOL    HW242742   8.173   1.210   6.042 -1.4571 -1.8012 -1.1566
13402SOL     OW42743   1.623   9.587   1.373 -0.3936  0.0329 -0.2943
13402SOL    HW142744   1.529   9.571   1.384 -0.2139  0.3968  2.0613
13402SOL    HW242745   1.628   9.674   1.335 -0.9609  1.2950  2.4456
13403SOL     OW42746   6.186   7.056   1.102  0.0645 -0.2919 -0.9288
13403SOL    HW142747   6.098   7.024   1.082  0.0700 -1.2901  0.5892
13403SOL    HW242748   6.194   7.138   1.052 -1.4192 -0.6131 -1.7063
13404SOL     OW42749   8.374   4.036   6.879 -0.5437  0.6919 -0.1789
13404SOL    HW142750   8.427   4.006   6.953  1.0851 -0.7661 -1.9025
13404SOL    HW242751   8.313   3.963   6.863 -2.5677  2.0164  1.2614
13405SOL     OW42752   9.087   9.168   9.033  0.1713 -0.9034 -0.5594
13405SOL    HW142753   9.148   9.238   9.056 -0.8779 -0.2195  0.2034
13405SOL    HW242754   9.039   9.202   8.957  0.6284 -1.3713 -1.0584
13406SOL     OW42755   2.049   8.308   0.500  0.0597  0.2542 -0.1928
13406SOL    HW142756   2.132   8.268   0.528  0.5339  0.4411 -1.2967
13406SOL    HW242757   1.981   8.252   0.539  0.6676  1.0802  2.1702
13407SOL     OW42758   5.401   3.847   6.769  0.0652 -0.8259 -0.1278
13407SOL    HW142759   5.470   3.906   6.740  0.6833 -0.8671  1.2659
13407SOL    HW242760   5.356   3.821   6.688  1.4043 -0.4701 -0.9893
13408SOL     OW42761   7.895   4.804   2.563 -0.1878  0.5180 -0.0872
13408SOL    HW142762   7.891   4.806   2.659 -1.5378 -1.5171 -0.0615
13408SOL    HW242763   7.963   4.740   2.543 -2.2894 -1.7000 -0.4280
13409SOL     OW42764   1.458   2.718   7.018 -0.5251  0.3006 -0.4247
13409SOL    HW142765   1.404   2.653   7.062 -0.6076  1.5628  1.3999
13409SOL    HW242766   1.513   2.668   6.959 -0.2065 -1.4865  1.3369
13410SOL     OW42767   0.677   7.552   4.989  0.0225  0.5416 -0.0701
13410SOL    HW142768   0.599   7.607   5.000 -1.9725 -2.1939 -0.0211
13410SOL    HW242769   0.655   7.493   4.917  2.0780 -0.2503 -0.0955
13411SOL     OW42770   5.957   1.075   0.724  0.3578 -0.3882 -0.4222
13411SOL    HW142771   5.920   1.091   0.637  0.6156 -1.2336 -0.6926
13411SOL    HW242772   5.927   1.148   0.777  1.6205  1.0519 -1.6628
13412SOL     OW42773  10.145   9.020   2.754  0.4914  0.4427  0.0518
13412SOL    HW142774  10.117   8.969   2.830  0.5056  0.4981  0.0933
13412SOL    HW242775  10.069   9.075   2.733  1.0264  1.5082  0.9312
13413SOL     OW42776   7.103   8.620   3.665  0.0316  0.3468 -0.0607
13413SOL    HW142777   7.199   8.626   3.664 -0.0901  2.2900 -0.3001
13413SOL    HW242778   7.077   8.663   3.746 -0.7560  1.5060 -0.9310
13414SOL     OW42779   9.838   4.288   2.374 -0.3572 -0.1802  0.3355
13414SOL    HW142780   9.748   4.263   2.396 -0.4217  0.5584  0.9238
13414SOL    HW242781   9.864   4.225   2.306 -1.0304 -0.9119  0.7378
13415SOL     OW42782   7.184   1.636   2.112 -0.5836  0.4265  0.5500
13415SOL    HW142783   7.147   1.672   2.031 -0.2842  0.9911  0.6565
13415SOL    HW242784   7.165   1.543   2.108  1.6993 -0.0272 -1.4377
13416SOL     OW42785   7.015   3.575   1.305  0.0406  0.3687 -0.2608
13416SOL    HW142786   7.054   3.585   1.392 -1.7158 -2.5401  0.9359
13416SOL    HW242787   6.939   3.632   1.305 -1.1206 -1.1623  0.8709
13417SOL     OW42788   6.473   8.849   3.631  0.1742 -0.5645  0.2060
13417SOL    HW142789   6.499   8.900   3.555 -1.4433 -0.2493 -0.1458
13417SOL    HW242790   6.524   8.768   3.624 -0.7618 -1.0055 -1.8130
13418SOL     OW42791   1.012   6.786   3.573  0.4821 -0.2405 -0.3779
13418SOL    HW142792   1.104   6.760   3.566  0.4685 -0.5519  0.5623
13418SOL    HW242793   0.965   6.704   3.587  0.6104  0.3214  4.2917
13419SOL     OW42794   5.658   0.375   1.638  0.2280  0.6522 -0.6259
13419SOL    HW142795   5.703   0.292   1.649  0.8031  1.2456  1.9279
13419SOL    HW242796   5.713   0.426   1.579  1.8675  0.6110  0.8408
13420SOL     OW42797   8.030   9.075   2.703 -0.2024 -0.3127 -0.4389
13420SOL    HW142798   8.121   9.078   2.674  0.2512 -0.8739  0.8919
13420SOL    HW242799   8.030   9.121   2.787 -1.2945  0.3479 -0.7863
13421SOL     OW42800   9.094   6.826   5.506  0.5355 -0.0052  0.0317
13421SOL    HW142801   9.164   6.761   5.510  1.2052  0.7605  1.0812
13421SOL    HW242802   9.121   6.894   5.568 -0.9595  0.4690  0.1758
13422SOL     OW42803  10.078   8.181   1.215 -0.5791  0.2029 -0.6871
13422SOL    HW142804  10.051   8.160   1.126 -0.1676 -0.6639 -0.6140
13422SOL    HW242805  10.017   8.250   1.243 -0.0697  1.2027 -1.9869
13423SOL     OW42806   7.820   0.633   9.596 -0.4641  0.0428  0.2996
13423SOL    HW142807   7.801   0.726   9.584 -0.6760  0.0754  0.8669
13423SOL    HW242808   7.913   0.624   9.575 -0.4740  0.3550  0.1164
13424SOL     OW42809   5.915  10.170   3.011 -0.9721 -0.0497 -0.1914
13424SOL    HW142810   5.985  10.116   3.049 -1.2494  0.0808  0.5074
13424SOL    HW242811   5.921  10.154   2.917 -1.0123 -1.2553  0.0031
13425SOL     OW42812   3.496   9.146   5.172 -0.5676 -1.0962 -0.8223
13425SOL    HW142813   3.585   9.172   5.146 -0.3160 -0.5038  0.5738
13425SOL    HW242814   3.442   9.166   5.095 -0.0808  1.9807 -0.4357
13426SOL     OW42815   8.647   4.714   8.788 -0.0022 -0.0466  0.5383
13426SOL    HW142816   8.676   4.680   8.704 -0.3071  1.8209 -0.3447
13426SOL    HW242817   8.571   4.660   8.811 -0.6349  0.1773 -0.9597
13427SOL     OW42818   2.498   6.658   2.453 -0.0799 -0.2475 -0.8452
13427SOL    HW142819   2.482   6.567   2.426  0.8727 -1.0439  1.2019
13427SOL    HW242820   2.591   6.672   2.435  0.0062  0.0007 -0.1872
13428SOL     OW42821   5.208   3.231   4.586  0.5436 -0.8236 -0.1492
13428SOL    HW142822   5.129   3.240   4.640 -1.7809 -0.3686 -3.4646
13428SOL    HW242823   5.199   3.145   4.545  1.3991 -0.4595 -1.1106
13429SOL     OW42824   5.432   5.738   6.422 -0.0363  0.2784 -0.1596
13429SOL    HW142825   5.368   5.667   6.415 -0.1773  0.5192 -1.4098
13429SOL    HW242826   5.516   5.694   6.435 -0.0682 -0.1492 -1.3016
13430SOL     OW42827   5.731   3.025   3.527  0.5184  0.2927 -0.1108
13430SOL    HW142828   5.747   2.965   3.454  1.9874 -1.8455  1.9018
13430SOL    HW242829   5.648   2.997   3.564 -0.4853  1.7041 -1.2196
13431SOL     OW42830   8.842   8.458   8.953 -0.1348 -0.5969 -0.2613
13431SOL    HW142831   8.938   8.452   8.955 -0.1419 -0.7308 -0.3055
13431SOL    HW242832   8.825   8.534   8.898 -0.0522 -0.5738 -0.2566
13432SOL     OW42833   7.659   3.954   7.252  0.5209 -0.1072 -0.0667
13432SOL    HW142834   7.621   3.868   7.267  0.8571 -0.4810 -1.2744
13432SOL    HW242835   7.589   4.016   7.273  0.4945 -0.6466  1.4519
13433SOL     OW42836   1.640   6.521   8.416 -0.1721  0.0334  0.0670
13433SOL    HW142837   1.618   6.526   8.509 -2.4530  1.3551 -0.5053
13433SOL    HW242838   1.728   6.558   8.410  1.0738 -2.4823  2.0323
13434SOL     OW42839   7.947   1.477   0.131  0.6865 -0.1377  0.2483
13434SOL    HW142840   7.955   1.570   0.149  1.2010 -0.0613 -0.3839
13434SOL    HW242841   7.862   1.469   0.087  0.3721 -0.0487  0.8352
13435SOL     OW42842   1.734   0.421   6.203  0.8201  0.1916  0.5210
13435SOL    HW142843   1.710   0.507   6.167  0.6681  0.6704  1.7570
13435SOL    HW242844   1.830   0.421   6.201  0.8086 -0.3633 -1.2084
13436SOL     OW42845   4.382   7.202   5.871 -0.1879 -0.3628 -0.5270
13436SOL    HW142846   4.297   7.164   5.895 -0.0313  0.1153  0.8493
13436SOL    HW242847   4.445   7.132   5.890 -0.3530 -1.0398 -2.4106
13437SOL     OW42848   4.544   2.658   5.611 -0.0645  0.2733 -0.1529
13437SOL    HW142849   4.541   2.754   5.612  1.2538  0.3272 -0.0327
13437SOL    HW242850   4.542   2.635   5.518  1.5037  0.5114 -0.2632
13438SOL     OW42851   7.637   2.649   4.006 -0.2383 -0.1657  0.1414
13438SOL    HW142852   7.553   2.690   3.984  0.1810 -0.0789 -1.3124
13438SOL    HW242853   7.693   2.722   4.033 -0.4872 -0.1741  0.6943
13439SOL     OW42854   4.976   9.486   3.390  0.3407 -0.0388  0.0257
13439SOL    HW142855   4.993   9.416   3.327  0.5892  0.9041 -0.9615
13439SOL    HW242856   4.900   9.455   3.440 -0.3432 -0.4570 -1.2450
13440SOL     OW42857   8.991   5.931   1.732 -0.3110 -0.0987  0.1956
13440SOL    HW142858   8.944   5.927   1.649  0.9627  0.8476 -0.5992
13440SOL    HW242859   8.925   5.915   1.799 -1.0344 -2.6738 -1.0835
13441SOL     OW42860   1.171   3.448   9.944 -0.2667  0.0248  0.3742
13441SOL    HW142861   1.164   3.362   9.986  1.5975  0.0735  0.8385
13441SOL    HW242862   1.095   3.452   9.886 -1.9613 -0.7302  2.4754
13442SOL     OW42863   3.878   9.291   1.563 -0.3279  0.2648 -0.4189
13442SOL    HW142864   3.955   9.346   1.576 -0.0695 -0.3355  0.6166
13442SOL    HW242865   3.912   9.202   1.556 -0.8969  0.0254 -0.2270
13443SOL     OW42866   6.524   0.172   7.739  0.3489  0.1720  0.3324
13443SOL    HW142867   6.548   0.188   7.831  0.4015  2.1874 -0.0239
13443SOL    HW242868   6.436   0.207   7.731  0.4549  0.2552 -0.4643
13444SOL     OW42869   5.098   5.597   6.997 -0.3048 -0.2956 -0.0552
13444SOL    HW142870   5.092   5.578   7.091 -1.9302  0.8487  0.0980
13444SOL    HW242871   5.034   5.667   6.983  1.2562  0.8441 -1.6846
13445SOL     OW42872   8.685   5.063   5.634  0.2594  0.0356 -0.4116
13445SOL    HW142873   8.660   5.081   5.724  0.5065 -0.7504 -0.1850
13445SOL    HW242874   8.615   5.008   5.600  0.7106 -0.5798 -0.3582
13446SOL     OW42875   1.334   2.030   5.258 -0.1832 -0.0442  0.6248
13446SOL    HW142876   1.327   2.102   5.321 -0.6629  0.8431 -0.4223
13446SOL    HW242877   1.355   1.953   5.311  1.9142  1.1526  1.6162
13447SOL     OW42878   2.214  10.070   6.399  0.1504 -0.2096  0.2072
13447SOL    HW142879   2.119  10.054   6.400 -0.3778  2.6644 -1.0490
13447SOL    HW242880   2.248  10.006   6.337 -1.4016  0.8609 -1.7802
13448SOL     OW42881   9.364   8.106   1.452 -0.6695  0.3153 -0.1079
13448SOL    HW142882   9.458   8.096   1.439 -0.7392 -0.5666  0.0138
13448SOL    HW242883   9.325   8.074   1.371 -0.8584  0.8591 -0.2333
13449SOL     OW42884   7.545   8.751   9.414  0.0373  0.5627 -0.1966
13449SOL    HW142885   7.456   8.754   9.451  0.2671  1.0015  0.3256
13449SOL    HW242886   7.545   8.673   9.359 -0.9699  1.0889 -0.9676
13450SOL     OW42887   8.305   1.311   4.590 -0.3447 -0.4790  0.3255
13450SOL    HW142888   8.271   1.298   4.502 -1.2562  0.3591  0.5281
13450SOL    HW242889   8.388   1.264   4.592 -0.7051 -1.1784 -0.7228
13451SOL     OW42890   1.244   9.429   6.058  0.6527 -0.7749 -0.2539
13451SOL    HW142891   1.223   9.518   6.086  1.9284  0.1397 -2.0951
13451SOL    HW242892   1.165   9.379   6.075 -1.3621  1.5002 -2.5040
13452SOL     OW42893   5.526   5.121   1.993  0.2167  0.0944 -0.3551
13452SOL    HW142894   5.589   5.135   2.063  1.2376  0.0190 -1.2526
13452SOL    HW242895   5.453   5.179   2.014  0.9738  0.8514  0.2048
13453SOL     OW42896   2.182   1.552   7.832 -0.2645 -0.0774  1.0791
13453SOL    HW142897   2.230   1.563   7.750  0.9704 -0.0065  1.8089
13453SOL    HW242898   2.204   1.629   7.884 -1.6449  0.2602  1.2022
13454SOL     OW42899   2.281   7.374   0.145 -0.1527  0.8965 -0.1505
13454SOL    HW142900   2.347   7.412   0.087  1.2711  1.7320  1.9821
13454SOL    HW242901   2.302   7.408   0.231 -1.1858 -1.7564  1.1948
13455SOL     OW42902   9.284   7.857   5.438 -0.9416 -0.8456 -0.1608
13455SOL    HW142903   9.206   7.911   5.429 -0.1024 -0.0789 -3.2520
13455SOL    HW242904   9.260   7.792   5.504 -3.3495  0.7984  0.6805
13456SOL     OW42905   8.735   7.130   5.629  0.2099 -0.1575  0.1633
13456SOL    HW142906   8.795   7.204   5.617  0.6355 -0.2373  1.6766
13456SOL    HW242907   8.677   7.133   5.553  0.2881  1.6850  0.1536
13457SOL     OW42908   5.443   2.480   9.657  0.5143  0.9170 -0.4658
13457SOL    HW142909   5.408   2.527   9.582 -0.8150  0.6517 -0.0362
13457SOL    HW242910   5.466   2.549   9.720 -2.4448  0.9983  0.5940
13458SOL     OW42911   8.072   3.578   0.489 -0.0121  0.6502 -0.0207
13458SOL    HW142912   8.126   3.624   0.553  0.2314  1.5337 -0.8608
13458SOL    HW242913   8.121   3.499   0.469 -0.7231 -0.3127  1.8910
13459SOL     OW42914   7.319   1.370   4.906 -0.5179 -0.2009  0.3639
13459SOL    HW142915   7.280   1.315   4.838  0.0715  1.1835 -1.1329
13459SOL    HW242916   7.245   1.396   4.962 -1.1587 -0.6057 -0.2896
13460SOL     OW42917  10.164   4.121   4.935 -0.5513  0.1349 -0.0351
13460SOL    HW142918  10.239   4.096   4.989 -1.7680  1.9295  2.5990
13460SOL    HW242919  10.088   4.099   4.988 -1.7733  2.4657 -0.7372
13461SOL     OW42920   7.589   2.493   2.958  0.4569  0.0370 -0.2237
13461SOL    HW142921   7.535   2.485   2.880  0.2053 -1.4269  0.1036
13461SOL    HW242922   7.536   2.458   3.029  0.3423  2.1372  0.7928
13462SOL     OW42923   3.259   5.431   4.291  0.7549 -0.9112  0.3891
13462SOL    HW142924   3.253   5.480   4.373  0.1974 -2.1607  1.1084
13462SOL    HW242925   3.310   5.487   4.233  2.0106 -0.4508  1.9059
13463SOL     OW42926   1.094   9.705   1.937 -0.2606  0.1327 -0.4561
13463SOL    HW142927   1.112   9.704   1.843 -1.0391  0.0817 -0.6102
13463SOL    HW242928   1.068   9.795   1.955 -0.9231 -0.0547 -0.4541
13464SOL     OW42929   6.689   5.066   7.807 -0.1545  0.0789 -0.0684
13464SOL    HW142930   6.697   5.018   7.724  0.2835  1.3533 -0.7865
13464SOL    HW242931   6.774   5.109   7.817 -0.2383 -0.0115  1.0153
13465SOL     OW42932   7.454   6.346   6.483 -0.4101 -0.4102 -0.2074
13465SOL    HW142933   7.463   6.251   6.474 -1.2371 -0.3447 -1.7589
13465SOL    HW242934   7.368   6.366   6.447 -0.6040  0.8406  0.8837
13466SOL     OW42935   8.773   9.918   0.967  0.3116 -0.2072 -0.1593
13466SOL    HW142936   8.697   9.886   0.917 -0.5662  1.0953  0.3330
13466SOL    HW242937   8.742   9.924   1.057  0.8279  0.8824 -0.0480
13467SOL     OW42938   3.508   9.213   3.976 -0.0109 -0.0344  0.4373
13467SOL    HW142939   3.583   9.193   4.032  0.2563 -0.1060  0.0526
13467SOL    HW242940   3.443   9.146   3.999  0.0168  0.0639  0.8122
13468SOL     OW42941   2.999   7.644   4.537  0.3094  0.5954  0.4376
13468SOL    HW142942   3.066   7.581   4.512 -0.9538 -0.4745 -0.3556
13468SOL    HW242943   3.024   7.673   4.624  0.6572 -1.3811  1.0191
13469SOL     OW42944   9.841   3.192   5.624  0.3786 -0.2036  0.0117
13469SOL    HW142945   9.804   3.104   5.633 -0.1794 -0.0336 -0.6059
13469SOL    HW242946   9.888   3.190   5.541 -0.1460  0.2616 -0.3000
13470SOL     OW42947   5.715   6.903   4.647 -0.1321 -0.6573  0.6940
13470SOL    HW142948   5.630   6.894   4.604  0.0774 -1.0103  0.3537
13470SOL    HW242949   5.767   6.958   4.589  0.3273 -1.5665  0.2224
13471SOL     OW42950  10.051   2.953   1.005 -0.4661 -0.0719  0.3365
13471SOL    HW142951  10.000   2.906   0.940  1.0702 -0.0248 -0.9196
13471SOL    HW242952   9.986   2.998   1.059 -1.7240  0.1635 -1.3665
13472SOL     OW42953   0.020   2.598   8.068  0.3021  0.6583 -0.4634
13472SOL    HW142954   0.095   2.655   8.051  0.0539  1.0272 -0.3327
13472SOL    HW242955   0.028   2.528   8.004  0.6768  0.7758 -0.5487
13473SOL     OW42956   4.365   7.554   8.479 -0.2432  0.1041  0.3571
13473SOL    HW142957   4.388   7.596   8.396 -1.5392  1.5720  0.7119
13473SOL    HW242958   4.419   7.475   8.482 -0.2510 -0.0297 -1.9274
13474SOL     OW42959   1.948   3.747   8.651  0.3396 -0.0721 -0.6505
13474SOL    HW142960   2.012   3.815   8.673  0.7775 -0.7018  0.0253
13474SOL    HW242961   1.994   3.665   8.668 -0.9237 -0.5236  0.6265
13475SOL     OW42962   5.534   5.564   1.303 -0.3282 -0.1118  0.1370
13475SOL    HW142963   5.456   5.512   1.284  1.0742 -1.7299 -1.3487
13475SOL    HW242964   5.581   5.512   1.369 -0.8993  1.2887  1.6963
13476SOL     OW42965   1.525   7.460   4.050 -0.0521  0.1040 -0.2905
13476SOL    HW142966   1.613   7.460   4.089  0.1121 -1.2850 -0.6273
13476SOL    HW242967   1.501   7.368   4.045 -1.7330  0.4995  0.2212
13477SOL     OW42968   5.168   9.304   5.341  0.5135 -0.4988 -0.6173
13477SOL    HW142969   5.124   9.379   5.381  1.6441  0.1791 -0.6105
13477SOL    HW242970   5.115   9.282   5.265  0.5524  0.7693 -1.0313
13478SOL     OW42971   8.461   6.920   5.271 -0.0199 -0.0054  0.1375
13478SOL    HW142972   8.505   6.934   5.355 -2.3851  1.3912  1.1624
13478SOL    HW242973   8.444   6.826   5.269 -0.2845  0.0067  1.3850
13479SOL     OW42974   3.567   2.175   1.523 -0.3142 -0.2177 -0.4336
13479SOL    HW142975   3.604   2.108   1.465  1.7915  1.0868 -0.6515
13479SOL    HW242976   3.528   2.125   1.595  0.1331 -1.7243 -1.2098
13480SOL     OW42977   5.602   6.132   4.194 -0.6448  0.2761 -1.2343
13480SOL    HW142978   5.580   6.208   4.249 -2.0030  0.3196 -1.8229
13480SOL    HW242979   5.563   6.058   4.241  4.0064 -0.6752  1.4214
13481SOL     OW42980   2.164   2.786   5.178  0.0452 -0.3254 -0.8494
13481SOL    HW142981   2.070   2.804   5.182  0.4817  1.7573  1.5180
13481SOL    HW242982   2.182   2.772   5.085 -2.1704  1.8658 -1.6783
13482SOL     OW42983   9.781   8.049   1.811  0.0328  0.5485 -0.1112
13482SOL    HW142984   9.814   8.086   1.894  0.2585 -1.8699  0.9033
13482SOL    HW242985   9.859   8.014   1.768 -0.1311  1.5382 -1.2596
13483SOL     OW42986   7.033   0.257   4.179  0.3978 -0.0386 -0.2323
13483SOL    HW142987   6.942   0.255   4.208 -0.2395 -0.3442 -2.1880
13483SOL    HW242988   7.050   0.169   4.146  1.2941  0.1198 -0.1986
13484SOL     OW42989   9.692   8.153   1.432  0.0565  0.4277  0.5461
13484SOL    HW142990   9.748   8.076   1.436  0.0719  0.2258 -2.4812
13484SOL    HW242991   9.733   8.210   1.367 -1.2477  1.9156  0.9830
13485SOL     OW42992   0.407   4.589   4.480 -0.0247  0.3183 -0.0106
13485SOL    HW142993   0.367   4.674   4.498 -1.3819 -0.3207  0.1488
13485SOL    HW242994   0.483   4.608   4.426 -1.2108  1.5084 -1.3093
13486SOL     OW42995   3.054   5.874   8.577  0.0236  0.0153 -0.1178
13486SOL    HW142996   3.096   5.946   8.531 -1.5810 -0.2515 -2.0770
13486SOL    HW242997   3.044   5.905   8.667  0.9981  1.5128 -0.5198
13487SOL     OW42998   0.083   1.012   5.912  0.7123 -0.6908  0.4839
13487SOL    HW142999   0.084   1.074   5.984  0.0058  0.3162 -0.3563
13487SOL    HW243000   0.168   1.023   5.869  0.5571 -0.2490  0.2905
13488SOL     OW43001   1.176   6.774  10.195 -0.3549  0.7115  0.4719
13488SOL    HW143002   1.112   6.708  10.167  1.5615 -0.4082 -1.4455
13488SOL    HW243003   1.126   6.854  10.204 -2.2979 -0.4682  0.4344
13489SOL     OW43004   9.154   0.726   5.688 -0.1973 -0.0531 -0.4014
13489SOL    HW143005   9.083   0.666   5.708  0.2558  0.0394  1.5513
13489SOL    HW243006   9.117   0.813   5.704 -0.2604  0.1108 -1.3734
13490SOL     OW43007   3.203   0.371   5.711 -0.2817 -0.2055  0.1888
13490SOL    HW143008   3.109   0.358   5.702  0.0996 -1.2830 -2.9441
13490SOL    HW243009   3.231   0.404   5.625  2.5686 -2.3780  0.2181
13491SOL     OW43010   5.172   8.188   7.143  0.0438 -0.0408 -0.2315
13491SOL    HW143011   5.237   8.122   7.119  0.8751  1.2427 -1.5858
13491SOL    HW243012   5.219   8.271   7.136 -1.5311  0.8400 -0.4467
13492SOL     OW43013   7.366   8.919   4.188 -0.1930  0.6386  0.0535
13492SOL    HW143014   7.273   8.913   4.166 -0.2836  0.9324  0.3515
13492SOL    HW243015   7.380   9.012   4.207  0.5120  0.8777 -1.5267
13493SOL     OW43016   5.045   8.069   1.726 -0.0637  0.0717 -0.0508
13493SOL    HW143017   5.076   7.993   1.775  1.9689  2.3097  2.2935
13493SOL    HW243018   5.003   8.125   1.791 -1.6471  0.9304 -1.7554
13494SOL     OW43019   1.730   7.477   8.896  0.2427 -0.7041  0.1144
13494SOL    HW143020   1.808   7.514   8.936 -0.9407 -0.4742  2.3073
13494SOL    HW243021   1.738   7.383   8.911 -0.2336 -0.6113  0.9990
13495SOL     OW43022   0.764   9.667   7.487  0.2635  0.8483  0.4174
13495SOL    HW143023   0.831   9.706   7.543 -0.8671  1.7282  1.1863
13495SOL    HW243024   0.737   9.739   7.430  0.2120  0.3975 -0.1366
13496SOL     OW43025   3.546   5.981   7.387  0.1702  0.0606 -0.1988
13496SOL    HW143026   3.474   5.977   7.450 -0.2245 -0.1581 -0.6651
13496SOL    HW243027   3.608   6.043   7.426 -0.0773 -0.0649  0.4010
13497SOL     OW43028   3.342   7.113   6.091  0.3033  0.3695 -0.2638
13497SOL    HW143029   3.390   7.092   6.011  0.3822 -2.4315  0.4515
13497SOL    HW243030   3.250   7.117   6.064  0.5392  1.6023 -0.8886
13498SOL     OW43031   6.591  10.122   7.862 -0.3630  0.0738 -0.0896
13498SOL    HW143032   6.539  10.170   7.798  0.4220 -0.8944 -1.4846
13498SOL    HW243033   6.678  10.161   7.859 -0.6993  1.0154  1.5055
13499SOL     OW43034   4.991   8.483   5.301 -0.1924 -0.1803  0.0247
13499SOL    HW143035   5.035   8.399   5.315  2.2212  1.1586  0.8051
13499SOL    HW243036   5.055   8.536   5.253 -0.7594  1.9560  1.5466
13500SOL     OW43037   0.619   4.054   5.959 -0.0404  0.6487  0.4847
13500SOL    HW143038   0.572   3.971   5.972  1.0068 -0.3093 -1.6513
13500SOL    HW243039   0.711   4.027   5.950  0.4626  2.1744  0.9758
13501SOL     OW43040   7.262   5.989   3.099  0.1080  0.0547 -0.2232
13501SOL    HW143041   7.231   6.079   3.108  3.9350  1.4675 -0.1125
13501SOL    HW243042   7.260   5.953   3.187  0.3491  0.7005  0.0498
13502SOL     OW43043   6.349   7.394   3.980  0.1414 -0.1357  0.4355
13502SOL    HW143044   6.290   7.448   4.032 -2.2009 -1.7666 -0.4513
13502SOL    HW243045   6.351   7.436   3.894  0.3691 -0.0141  0.4998
13503SOL     OW43046   9.584   2.084   2.334 -0.1066 -0.1856 -0.1101
13503SOL    HW143047   9.510   2.066   2.391 -0.6244 -0.2093 -0.7835
13503SOL    HW243048   9.606   2.000   2.294  1.6600 -0.6283  1.6889
13504SOL     OW43049   6.139   8.664   2.961  0.0357  0.3943 -0.0884
13504SOL    HW143050   6.223   8.635   2.925 -0.0134 -0.2044  0.2640
13504SOL    HW243051   6.073   8.622   2.906 -0.0353  0.1987  0.1451
13505SOL     OW43052   1.229   5.039   3.575 -0.2674 -0.1466 -0.0795
13505SOL    HW143053   1.167   4.969   3.554 -0.3111  0.0536 -0.6281
13505SOL    HW243054   1.311   4.993   3.594 -0.1075 -0.3156 -1.1319
13506SOL     OW43055   3.853   9.991   7.837 -0.2086 -0.7835 -0.0273
13506SOL    HW143056   3.880  10.073   7.796 -0.6886 -0.1939  0.8171
13506SOL    HW243057   3.863   9.925   7.768  2.9091 -0.5340  0.1229
13507SOL     OW43058   2.828   6.172   2.830  0.4713  0.4024  0.2536
13507SOL    HW143059   2.918   6.160   2.863  0.6030 -0.0833 -0.2817
13507SOL    HW243060   2.839   6.195   2.738  0.0406  0.3271  0.1834
13508SOL     OW43061   9.064   6.701   4.347  0.9496 -0.0014  0.2391
13508SOL    HW143062   9.050   6.791   4.378 -0.7129 -0.3811  0.6593
13508SOL    HW243063   9.007   6.692   4.271 -1.7625 -1.8272  2.3955
13509SOL     OW43064   1.843   9.076   6.956  0.1403 -0.5643 -0.2715
13509SOL    HW143065   1.779   9.113   7.017  1.3190  1.9285 -0.4596
13509SOL    HW243066   1.869   8.992   6.995  1.3715  1.2702  3.0715
13510SOL     OW43067   5.372   5.086   7.652 -1.1716  0.4332  0.0717
13510SOL    HW143068   5.447   5.028   7.639 -0.8325  0.5807  1.3257
13510SOL    HW243069   5.396   5.167   7.607 -1.4674 -0.2261 -1.3218
13511SOL     OW43070   1.155   8.692   3.867  0.3682  0.0037  0.4297
13511SOL    HW143071   1.135   8.753   3.938  0.0215 -0.4985  0.7697
13511SOL    HW243072   1.213   8.741   3.809  0.6208  0.4353  1.0367
13512SOL     OW43073   6.861   9.799   3.740  0.5768 -0.1386 -0.3682
13512SOL    HW143074   6.852   9.892   3.719 -0.1073 -0.2512 -0.5818
13512SOL    HW243075   6.955   9.786   3.748  0.7183  0.4139 -1.0541
13513SOL     OW43076   4.124   5.703   6.617 -0.0144 -0.4506 -0.4115
13513SOL    HW143077   4.149   5.782   6.569  1.4525  0.3671  1.6474
13513SOL    HW243078   4.186   5.636   6.586  2.5703  0.6880  2.0659
13514SOL     OW43079   7.274   7.817   7.404 -0.3135  0.6018 -0.3410
13514SOL    HW143080   7.327   7.744   7.437 -2.0719 -0.3286  0.4907
13514SOL    HW243081   7.338   7.884   7.381  1.1686  0.0633  1.9981
13515SOL     OW43082   5.693   3.304   1.923  0.6261 -0.2858 -0.3294
13515SOL    HW143083   5.689   3.242   1.850  0.7722 -0.4233 -0.2182
13515SOL    HW243084   5.627   3.370   1.901 -1.4011 -1.8630  0.8319
13516SOL     OW43085   5.190   3.039   0.886  0.1634  0.4446  0.2283
13516SOL    HW143086   5.103   3.011   0.856  0.4302  0.1705 -0.3157
13516SOL    HW243087   5.233   2.958   0.914  1.4064  0.0506 -2.5584
13517SOL     OW43088   7.705   6.898   7.142 -0.6635 -0.2282  0.0780
13517SOL    HW143089   7.651   6.823   7.167  0.2236 -0.3803  1.6119
13517SOL    HW243090   7.731   6.938   7.225  1.7001 -0.2560 -0.6172
13518SOL     OW43091   1.005   0.258   3.700 -0.0372 -0.4800 -0.2355
13518SOL    HW143092   1.002   0.228   3.791  1.1823 -1.1922 -0.4287
13518SOL    HW243093   1.064   0.333   3.702  0.0007 -0.5047 -0.4524
13519SOL     OW43094   4.127   5.005   3.785  0.1851  0.1521 -0.2470
13519SOL    HW143095   4.175   5.082   3.816 -0.8029  0.5852  0.2109
13519SOL    HW243096   4.123   4.947   3.862  0.1550  0.0216 -0.3464
13520SOL     OW43097   0.675   4.480   9.802  0.1382 -0.4737  0.5719
13520SOL    HW143098   0.581   4.474   9.819  0.1395 -1.6806  0.1774
13520SOL    HW243099   0.685   4.450   9.712  0.8470  0.1975  0.4216
13521SOL     OW43100   5.341   6.048   2.134  0.1933 -0.1327 -0.1077
13521SOL    HW143101   5.359   6.142   2.132  1.2864 -0.3477 -0.5259
13521SOL    HW243102   5.319   6.030   2.225 -0.5064  0.6182 -0.1244
13522SOL     OW43103   1.599   5.837   7.726 -0.2143 -0.3668 -0.5049
13522SOL    HW143104   1.570   5.789   7.803 -2.9128 -0.8924 -1.7822
13522SOL    HW243105   1.568   5.926   7.740  1.2488  0.0613  0.0255
13523SOL     OW43106   6.247   2.349   6.214 -0.0896 -0.4796  0.2267
13523SOL    HW143107   6.335   2.384   6.198  0.3908 -1.5614  0.4983
13523SOL    HW243108   6.210   2.338   6.126 -0.1328  0.4237  0.1271
13524SOL     OW43109   1.347   4.792   3.574  0.0753 -0.4737  0.0930
13524SOL    HW143110   1.286   4.748   3.515 -1.4601  0.1770  1.1425
13524SOL    HW243111   1.428   4.801   3.524 -0.7311 -1.2704 -1.3698
13525SOL     OW43112   0.543   7.292   2.742  0.0672 -0.4148 -0.3746
13525SOL    HW143113   0.633   7.283   2.773  0.7603 -1.6338 -2.6777
13525SOL    HW243114   0.496   7.327   2.818  1.8779 -2.4464  1.7815
13526SOL     OW43115   1.266   4.308   9.704  0.3694  0.7557 -0.1234
13526SOL    HW143116   1.193   4.261   9.664  0.9709  1.2788 -1.9314
13526SOL    HW243117   1.229   4.352   9.780 -1.1804  0.9195 -0.9493
13527SOL     OW43118   3.584   1.061   5.831  0.3740 -0.3856 -0.2154
13527SOL    HW143119   3.568   1.103   5.747  0.2686  0.0902  0.0423
13527SOL    HW243120   3.498   1.028   5.858  0.9121 -3.0514 -1.6414
13528SOL     OW43121   8.801   2.670   4.410  0.0607 -0.1263  0.1090
13528SOL    HW143122   8.854   2.728   4.355  0.3308 -0.8487 -0.3934
13528SOL    HW243123   8.809   2.584   4.369  0.3028 -0.6892  1.3103
13529SOL     OW43124   0.425   9.696   0.046  0.5232 -0.8065 -0.0524
13529SOL    HW143125   0.459   9.772  -0.003  0.3038 -0.8234 -0.2305
13529SOL    HW243126   0.500   9.665   0.097  0.4388 -0.0570  0.5418
13530SOL     OW43127   8.597   6.646   4.384  0.4884  0.2586 -0.1310
13530SOL    HW143128   8.566   6.610   4.468  2.2224  1.6324  1.1350
13530SOL    HW243129   8.528   6.709   4.359 -0.4940 -0.8387 -0.2224
13531SOL     OW43130   9.678   5.425   2.810 -0.8398 -0.3136 -0.2447
13531SOL    HW143131   9.734   5.349   2.830 -1.1204 -0.3174  0.5252
13531SOL    HW243132   9.725   5.471   2.740 -0.2945 -0.7837 -0.1939
13532SOL     OW43133  10.107   0.998   4.898  0.8020 -0.4668 -0.2048
13532SOL    HW143134  10.175   0.980   4.834 -0.2776 -0.4871 -1.3763
13532SOL    HW243135  10.059   1.073   4.861 -0.0575 -0.7157  0.3948
13533SOL     OW43136   7.576   7.455   4.975  0.0818  0.0699 -0.5794
13533SOL    HW143137   7.561   7.420   4.887 -0.8559  1.2448 -0.9014
13533SOL    HW243138   7.499   7.426   5.025  0.5138 -0.4202 -0.1912
13534SOL     OW43139   7.079   7.132   0.159 -0.2495  0.2266 -0.3446
13534SOL    HW143140   7.130   7.066   0.205 -1.3603 -0.9507 -0.7893
13534SOL    HW243141   7.080   7.208   0.217  1.9086  0.1836 -0.3020
13535SOL     OW43142   2.478   9.644   2.944  0.3513 -0.3813 -0.4151
13535SOL    HW143143   2.445   9.559   2.974 -1.3003 -0.8341 -3.3913
13535SOL    HW243144   2.405   9.704   2.956  0.3993 -0.1106 -1.4089
13536SOL     OW43145   4.840   2.375   3.584  0.1303 -0.2433 -0.2543
13536SOL    HW143146   4.919   2.327   3.558 -0.7351 -0.9377 -1.6746
13536SOL    HW243147   4.815   2.336   3.668  0.3988 -1.1155 -0.5745
13537SOL     OW43148   2.192   8.119   3.401  1.0471  0.0116 -0.2256
13537SOL    HW143149   2.214   8.116   3.308  2.7959 -1.4994  0.1883
13537SOL    HW243150   2.146   8.037   3.417 -0.6244  0.9597 -0.0461
13538SOL     OW43151   2.943   5.096   3.045 -0.1155  0.2938  0.0787
13538SOL    HW143152   2.896   5.090   2.962 -0.8908  1.0517  0.4534
13538SOL    HW243153   3.032   5.122   3.021  0.3046 -1.7699 -0.6846
13539SOL     OW43154   4.642   0.667   9.432 -0.2376 -0.2521  0.5176
13539SOL    HW143155   4.592   0.682   9.351  2.5679 -0.6789 -1.3887
13539SOL    HW243156   4.606   0.587   9.468  1.5292 -2.7706 -2.9424
13540SOL     OW43157   3.868   4.076   2.129  0.1714  0.6258 -0.3562
13540SOL    HW143158   3.957   4.078   2.163 -0.5480  2.2818  1.5045
13540SOL    HW243159   3.814   4.115   2.198 -1.8161  0.9498 -2.0173
13541SOL     OW43160   2.036   7.153   1.911  0.0316  0.2507  0.3822
13541SOL    HW143161   2.020   7.119   1.823 -0.3739  0.5172  0.3504
13541SOL    HW243162   2.074   7.240   1.896 -1.0734  0.7465  0.4818
13542SOL     OW43163   7.614   7.062   5.330 -0.1817  0.9973  0.4984
13542SOL    HW143164   7.599   7.084   5.422  1.1904  0.8923  0.7521
13542SOL    HW243165   7.677   7.127   5.300  1.4513 -0.6267  0.3693
13543SOL     OW43166   3.081   1.960   5.761 -0.4959 -0.7985 -0.3197
13543SOL    HW143167   3.019   2.013   5.812 -1.2701 -0.5404 -1.5042
13543SOL    HW243168   3.143   2.024   5.725 -0.8753 -0.8008 -0.9794
13544SOL     OW43169   2.805   3.926   1.944 -0.2607 -0.0552 -0.1658
13544SOL    HW143170   2.862   3.873   1.999 -0.4373  0.9781  1.0353
13544SOL    HW243171   2.717   3.892   1.961 -0.5229  1.4427  1.5928
13545SOL     OW43172   4.202   0.152   6.037  0.2782  0.1665 -0.3940
13545SOL    HW143173   4.170   0.178   5.950 -0.1427  0.8573 -0.0393
13545SOL    HW243174   4.295   0.132   6.023 -0.0791 -0.9380 -1.2445
13546SOL     OW43175   9.076   4.829   3.502 -0.4750 -0.0709 -0.4866
13546SOL    HW143176   9.117   4.916   3.496  0.0811 -0.3058 -0.1663
13546SOL    HW243177   9.011   4.838   3.572  0.1232 -0.1234  0.0783
13547SOL     OW43178   6.100   2.588   3.735 -0.0286 -0.6721  0.0493
13547SOL    HW143179   6.134   2.536   3.662 -2.5299 -0.6257 -1.1877
13547SOL    HW243180   6.113   2.679   3.706  1.1777 -0.6117  0.7313
13548SOL     OW43181   0.388   0.697   1.700 -0.4251 -0.1241 -0.0592
13548SOL    HW143182   0.380   0.612   1.744  1.7639 -0.5183 -0.3487
13548SOL    HW243183   0.343   0.759   1.757  0.5633 -0.9812  1.6789
13549SOL     OW43184  10.090   1.243   2.209  0.9159  0.6923  0.0729
13549SOL    HW143185  10.037   1.313   2.248  0.2008  0.8569 -1.1512
13549SOL    HW243186  10.108   1.273   2.120  0.1295 -0.9130 -0.6526
13550SOL     OW43187   8.811   7.617   2.176 -0.4123 -0.0221  0.3301
13550SOL    HW143188   8.864   7.578   2.107 -1.1494 -0.3448 -0.0568
13550SOL    HW243189   8.722   7.588   2.158 -0.7445  0.6086  0.9084
13551SOL     OW43190   7.161   7.547   3.915  0.1500 -0.2745 -0.0468
13551SOL    HW143191   7.120   7.631   3.893 -2.1127 -1.4417 -0.3767
13551SOL    HW243192   7.194   7.515   3.831  1.7376  0.6330  0.2078
13552SOL     OW43193   5.863   3.617   0.613 -0.3488 -0.3729 -0.4896
13552SOL    HW143194   5.944   3.662   0.636 -0.8550  0.3840 -0.1655
13552SOL    HW243195   5.841   3.650   0.526 -0.5350 -0.2532 -0.3982
13553SOL     OW43196   7.830   7.277   2.769 -0.7081 -0.3613 -0.0320
13553SOL    HW143197   7.902   7.272   2.832 -0.0095  0.1371 -0.7711
13553SOL    HW243198   7.785   7.359   2.790  0.3937  0.5378 -1.0714
13554SOL     OW43199   4.345   5.099   1.833  0.1482  0.2405 -0.4017
13554SOL    HW143200   4.340   5.054   1.917  1.3188  1.3559  0.2771
13554SOL    HW243201   4.259   5.086   1.793 -0.4074 -0.2858  0.9573
13555SOL     OW43202   4.433   7.519   7.620 -0.2789 -0.3378 -0.1866
13555SOL    HW143203   4.503   7.460   7.593  1.7018  0.9147  2.0554
13555SOL    HW243204   4.417   7.574   7.543  1.3686 -0.4934 -0.6502
13556SOL     OW43205   4.617   7.099   1.852  0.4788  0.7785 -0.0292
13556SOL    HW143206   4.671   7.078   1.928 -0.3275  2.6175  1.0858
13556SOL    HW243207   4.547   7.034   1.854  1.4937 -0.3317 -0.2825
13557SOL     OW43208   5.641   0.367   4.466  0.3158 -0.2900  0.4730
13557SOL    HW143209   5.658   0.280   4.504  0.2212 -0.9811 -1.0311
13557SOL    HW243210   5.547   0.380   4.477  0.4894  0.0523  1.5853
13558SOL     OW43211   5.815   6.101   3.558 -0.0292 -0.2272 -0.1180
13558SOL    HW143212   5.740   6.065   3.605  0.4588  0.0102  0.8624
13558SOL    HW243213   5.823   6.191   3.591  1.1652 -0.5057  0.3695
13559SOL     OW43214   8.630   4.610   4.998 -0.4161  0.1273 -0.1555
13559SOL    HW143215   8.586   4.541   4.949  1.5424 -0.6791 -0.8452
13559SOL    HW243216   8.635   4.577   5.087  0.0830 -0.4317 -0.3837
13560SOL     OW43217   0.629   0.388   1.179 -0.4762  0.7142 -0.3032
13560SOL    HW143218   0.576   0.436   1.242  1.0557 -1.6907  2.9373
13560SOL    HW243219   0.592   0.299   1.180  0.1737  0.4068 -2.1071
13561SOL     OW43220   9.226   7.685   3.027 -0.5638 -0.0131  0.1797
13561SOL    HW143221   9.298   7.716   3.081 -0.1164 -0.0729 -0.3917
13561SOL    HW243222   9.168   7.640   3.089  0.4574 -0.9721  0.4546
13562SOL     OW43223   4.360   2.260   5.535 -0.1252  0.3503 -0.3532
13562SOL    HW143224   4.442   2.218   5.559 -0.0615 -0.9513 -2.6229
13562SOL    HW243225   4.365   2.348   5.572  1.3933 -0.4093  1.2783
13563SOL     OW43226   7.341   5.970   9.879  0.3428 -0.3261 -0.4461
13563SOL    HW143227   7.256   5.927   9.868  0.1512 -0.2367  0.6451
13563SOL    HW243228   7.327   6.059   9.846 -0.2262 -0.0527  0.5215
13564SOL     OW43229   6.541   7.303   5.182 -0.3844  0.3321 -0.4426
13564SOL    HW143230   6.548   7.249   5.103  1.5143 -1.0557  0.6172
13564SOL    HW243231   6.460   7.274   5.224 -0.4088 -0.3121 -0.9226
13565SOL     OW43232   8.308   7.604   7.867  0.8257  0.3487  0.3140
13565SOL    HW143233   8.257   7.535   7.910 -0.9305  1.8785  0.7559
13565SOL    HW243234   8.249   7.641   7.802  2.0965  0.7627 -0.6206
13566SOL     OW43235   6.820   9.770   1.056  0.3974 -0.1181 -0.2006
13566SOL    HW143236   6.801   9.776   1.150 -0.9354  0.9258 -0.5234
13566SOL    HW243237   6.752   9.711   1.022  0.8512 -0.4588 -0.5230
13567SOL     OW43238   4.606   7.832   8.044 -0.0155  0.1795  0.0315
13567SOL    HW143239   4.606   7.780   7.964  1.0109 -1.0825  0.8151
13567SOL    HW243240   4.662   7.907   8.024  2.1799 -1.3467  0.2883
13568SOL     OW43241   1.378   8.516   6.053 -0.0669 -0.1212 -0.1209
13568SOL    HW143242   1.399   8.433   6.011 -1.1759  0.1764 -1.2982
13568SOL    HW243243   1.328   8.564   5.987  0.6722  1.5281  0.5008
13569SOL     OW43244   5.165   4.865   4.763 -0.1386  0.9352  0.4603
13569SOL    HW143245   5.178   4.808   4.688  1.0838  2.1430 -0.2616
13569SOL    HW243246   5.229   4.837   4.827 -1.6847 -0.5970  1.3859
13570SOL     OW43247   9.932   7.093   7.085 -0.3516 -0.3902  0.0671
13570SOL    HW143248   9.933   7.177   7.039  0.9951 -0.5413 -0.2029
13570SOL    HW243249   9.985   7.035   7.031 -1.0862 -1.3640  0.3694
13571SOL     OW43250   1.710   3.779   4.937 -0.3655  0.1757 -0.6684
13571SOL    HW143251   1.641   3.720   4.906  0.7345 -0.4646 -1.9241
13571SOL    HW243252   1.751   3.813   4.858  1.5418 -0.3604  0.0653
13572SOL     OW43253   1.825   1.326   2.880  0.3536  0.4553  0.3120
13572SOL    HW143254   1.766   1.317   2.954 -0.6014  0.8868 -0.3923
13572SOL    HW243255   1.818   1.419   2.855 -0.1575  0.0727 -0.9965
13573SOL     OW43256   8.717   5.273   9.845 -0.2525  0.0573 -0.4497
13573SOL    HW143257   8.649   5.226   9.798 -0.0144  0.4693 -1.2010
13573SOL    HW243258   8.696   5.365   9.834  0.1076  0.1737 -0.2007
13574SOL     OW43259   1.304   9.207   6.862  0.3879 -0.2229  0.1753
13574SOL    HW143260   1.368   9.214   6.933  1.6981 -1.0394 -0.8815
13574SOL    HW243261   1.219   9.221   6.904  1.2057  0.2541  1.7234
13575SOL     OW43262   5.485   9.808   6.092  0.8785 -0.1003  0.0540
13575SOL    HW143263   5.506   9.778   6.180  0.4624  2.2607  0.9955
13575SOL    HW243264   5.538   9.752   6.035  3.6824  0.4735  1.9618
13576SOL     OW43265   2.058   5.544   7.708 -0.5778  0.2338  0.2313
13576SOL    HW143266   2.057   5.525   7.614 -0.3405 -0.1022  0.2937
13576SOL    HW243267   1.988   5.607   7.721 -0.1549  0.8206 -0.2894
13577SOL     OW43268   5.045   0.725   0.124  0.2128 -0.4401  0.0131
13577SOL    HW143269   5.090   0.772   0.194 -2.4787  0.5192  1.1917
13577SOL    HW243270   4.978   0.674   0.170 -1.3916 -0.0202 -1.8099
13578SOL     OW43271   2.126   7.829   8.470 -0.3933  0.2547 -0.6391
13578SOL    HW143272   2.079   7.754   8.432 -1.7191  0.6562  0.1763
13578SOL    HW243273   2.059   7.898   8.477  0.2718  0.7790  0.7171
13579SOL     OW43274   3.074   7.440   8.577  0.0844  0.2534  0.6774
13579SOL    HW143275   3.139   7.504   8.548 -0.1153 -0.0210 -0.3989
13579SOL    HW243276   3.123   7.359   8.588 -0.5241 -0.6908 -2.8996
13580SOL     OW43277   6.703   5.502   4.672 -0.4717  0.2626 -0.0577
13580SOL    HW143278   6.664   5.448   4.603 -0.8374 -0.2429  0.5409
13580SOL    HW243279   6.742   5.439   4.733  1.7256  0.7515 -0.8751
13581SOL     OW43280   9.772   7.231   7.835  0.1411 -0.6150 -0.1747
13581SOL    HW143281   9.853   7.275   7.810 -1.5971  1.7620 -1.8862
13581SOL    HW243282   9.730   7.292   7.897 -1.7298 -0.3594 -1.6342
13582SOL     OW43283   5.702   5.865   2.714  0.1045 -0.2275 -0.3372
13582SOL    HW143284   5.660   5.779   2.710 -0.0338 -0.1569 -0.4414
13582SOL    HW243285   5.642   5.919   2.765 -0.3693  0.1125 -1.2396
13583SOL     OW43286   7.813   9.173   6.643 -0.0886  0.1144 -0.0260
13583SOL    HW143287   7.897   9.204   6.611 -0.8755  1.4430 -0.8263
13583SOL    HW243288   7.784   9.239   6.705 -0.5179 -0.3723  0.3007
13584SOL     OW43289   4.308   1.708   2.004 -0.6795  0.0312  0.1494
13584SOL    HW143290   4.275   1.718   1.915 -0.9948 -0.5902  0.1894
13584SOL    HW243291   4.336   1.616   2.008 -1.0728 -0.0606  0.8198
13585SOL     OW43292   6.758   9.438   4.650  0.0174  0.1077 -0.7704
13585SOL    HW143293   6.683   9.426   4.592 -1.0803  1.1392  0.3913
13585SOL    HW243294   6.744   9.524   4.689  1.2873 -0.1251  0.2341
13586SOL     OW43295   3.845   6.751   0.038 -0.1722  0.3697 -0.1623
13586SOL    HW143296   3.923   6.763   0.092  0.1882  2.7359 -1.1515
13586SOL    HW243297   3.781   6.812   0.073 -0.1145  1.5466 -2.0517
13587SOL     OW43298   7.017   3.213   8.683 -0.4291  0.0307  0.7562
13587SOL    HW143299   7.103   3.249   8.663 -0.9936  1.9106  1.6067
13587SOL    HW243300   6.963   3.239   8.607  0.0960 -2.4726 -0.5152
13588SOL     OW43301   4.860   4.978   4.591 -0.0089  0.0545 -0.7536
13588SOL    HW143302   4.831   4.906   4.535 -0.6519 -0.9302  0.8097
13588SOL    HW243303   4.881   4.936   4.675  0.2910  1.5827 -0.0495
13589SOL     OW43304   7.823   1.328   9.347 -0.5217 -0.6961 -0.9465
13589SOL    HW143305   7.878   1.294   9.277  0.7334 -0.4308 -0.1145
13589SOL    HW243306   7.885   1.368   9.409 -1.6303 -0.6031  0.1250
13590SOL     OW43307   1.377   9.616   1.710 -0.3420  0.2212 -0.3818
13590SOL    HW143308   1.297   9.633   1.660 -0.1101  0.1996 -0.7645
13590SOL    HW243309   1.433   9.568   1.649 -0.2643 -0.2776  0.0733
13591SOL     OW43310   8.393   0.001   1.328  0.3285 -0.2102 -0.3152
13591SOL    HW143311   8.369  -0.092   1.324  0.0138 -0.1371 -0.1330
13591SOL    HW243312   8.471   0.008   1.273 -0.6697 -0.2580 -1.7980
13592SOL     OW43313   4.533   5.611   0.231 -0.5634 -0.1182  0.1518
13592SOL    HW143314   4.528   5.692   0.180 -2.2759 -1.6692 -2.2627
13592SOL    HW243315   4.453   5.611   0.283 -0.8979 -0.5986 -0.3665
13593SOL     OW43316   8.114   4.798   9.594 -0.5484  0.0764 -0.3436
13593SOL    HW143317   8.114   4.752   9.678  0.3199  0.0793 -0.3377
13593SOL    HW243318   8.205   4.796   9.566 -0.7125  0.7365 -0.9295
13594SOL     OW43319   5.203   8.786   0.915  0.2639  0.1310 -0.4281
13594SOL    HW143320   5.290   8.799   0.953  0.4134 -0.3779 -0.6051
13594SOL    HW243321   5.216   8.722   0.845 -0.0032  1.0634 -1.3641
13595SOL     OW43322   0.114   9.498   5.494  0.5199 -0.1437  0.1694
13595SOL    HW143323   0.162   9.426   5.533  0.2794  0.2923  1.3039
13595SOL    HW243324   0.032   9.502   5.544 -0.4134 -0.4739 -1.3087
13596SOL     OW43325   7.688   1.740   7.535  0.1850  0.3423  0.2107
13596SOL    HW143326   7.691   1.813   7.598 -0.1532 -1.9397  2.9802
13596SOL    HW243327   7.749   1.675   7.571  1.6844 -0.1622 -3.0487
13597SOL     OW43328   8.582  10.091   0.253 -0.0184  0.6273  0.2393
13597SOL    HW143329   8.627  10.006   0.257 -1.7341 -0.3847 -1.2424
13597SOL    HW243330   8.490  10.069   0.243 -0.5041  2.6764 -0.0077
13598SOL     OW43331   1.604   4.372   5.805  0.3782  0.1731 -0.3532
13598SOL    HW143332   1.572   4.392   5.717  2.0740  1.3060 -0.7350
13598SOL    HW243333   1.619   4.277   5.805 -2.4600 -0.3225 -0.3006
13599SOL     OW43334   8.511   8.327   9.530 -0.0277  0.5318 -0.2882
13599SOL    HW143335   8.457   8.277   9.593  2.4301 -0.1169  1.3931
13599SOL    HW243336   8.454   8.339   9.454 -2.0265 -1.4595  0.8161
13600SOL     OW43337   4.083   0.184   1.831  0.4141  0.2971  0.2924
13600SOL    HW143338   4.109   0.222   1.747  0.6043 -1.3083 -0.3940
13600SOL    HW243339   4.052   0.096   1.809  1.2444 -0.4453  2.0000
13601SOL     OW43340   5.374   7.829   2.790 -0.2183 -0.6256  0.1261
13601SOL    HW143341   5.452   7.781   2.819 -0.8043 -2.0127 -0.5252
13601SOL    HW243342   5.388   7.842   2.696 -0.4148 -0.1778  0.1590
13602SOL     OW43343   6.874   5.910   5.877 -0.0386  0.1005 -0.0223
13602SOL    HW143344   6.967   5.890   5.876 -0.1658 -0.7385  1.9337
13602SOL    HW243345   6.842   5.873   5.959 -2.5100 -1.4868 -1.6078
13603SOL     OW43346   3.355   0.732   7.330  0.3366  0.0647  0.7517
13603SOL    HW143347   3.384   0.820   7.352  0.6698  0.0891  0.2223
13603SOL    HW243348   3.436   0.681   7.323  0.4386  0.6005 -2.8072
13604SOL     OW43349   2.269   6.076   9.278  0.0807  0.2477 -0.5206
13604SOL    HW143350   2.254   6.026   9.358  1.3508 -1.6603 -1.4673
13604SOL    HW243351   2.304   6.160   9.309  0.4960 -0.4434  0.9115
13605SOL     OW43352   6.454   5.944   1.772 -0.1359 -0.5674  0.0372
13605SOL    HW143353   6.504   6.025   1.761 -0.8429 -0.1981 -0.5639
13605SOL    HW243354   6.519   5.874   1.765  0.5226 -0.0466  0.8383
13606SOL     OW43355   7.399   3.358   7.459 -0.4804  0.2192 -0.5145
13606SOL    HW143356   7.355   3.371   7.542 -1.2223  0.3912 -0.9263
13606SOL    HW243357   7.330   3.368   7.393  0.2171  0.7337 -1.1850
13607SOL     OW43358   8.571   8.018   2.977 -0.0603 -0.9877  0.3258
13607SOL    HW143359   8.520   7.937   2.983 -2.1107  0.2048 -0.2751
13607SOL    HW243360   8.580   8.048   3.068 -2.5011 -0.0117  0.2849
13608SOL     OW43361   3.672   4.014   3.328 -0.2406  0.1821 -0.6308
13608SOL    HW143362   3.749   3.957   3.325 -0.5752 -0.2348 -1.3912
13608SOL    HW243363   3.674   4.062   3.246 -1.5192 -0.8031 -1.2594
13609SOL     OW43364   8.588   5.265   0.747 -0.3976  0.0773 -0.4013
13609SOL    HW143365   8.659   5.271   0.683  0.5838 -0.9332  0.5558
13609SOL    HW243366   8.527   5.333   0.721  1.6973  2.0719 -0.3124
13610SOL     OW43367   5.141   6.275   7.683 -0.1730  0.2910  0.3097
13610SOL    HW143368   5.098   6.359   7.666  0.3991  0.7594  1.1436
13610SOL    HW243369   5.094   6.239   7.758 -0.9250 -0.5085 -0.5263
13611SOL     OW43370   7.582   9.383   1.426 -0.2299 -0.1674 -0.0521
13611SOL    HW143371   7.650   9.443   1.395 -1.2202 -1.4552 -5.1800
13611SOL    HW243372   7.509   9.440   1.450  0.6062  0.9388 -0.0910
13612SOL     OW43373   7.588   7.356   4.689 -0.9859 -0.2019  0.1716
13612SOL    HW143374   7.654   7.299   4.649 -0.8681  0.5039 -0.6506
13612SOL    HW243375   7.619   7.445   4.671 -0.8458  0.1294  1.9880
13613SOL     OW43376   9.368   0.828   1.041 -0.2255 -0.3318 -0.5744
13613SOL    HW143377   9.318   0.803   1.119 -0.5928  2.6727  0.1792
13613SOL    HW243378   9.459   0.809   1.064 -0.2254  1.3946  0.9533
13614SOL     OW43379   1.908   4.181   4.528  0.3220 -0.2539  0.2560
13614SOL    HW143380   1.836   4.118   4.524  1.8458 -1.9962 -0.2238
13614SOL    HW243381   1.947   4.167   4.614 -0.5100  1.3774  0.9138
13615SOL     OW43382   7.014   9.916   9.601  0.3682  0.1438  0.2128
13615SOL    HW143383   7.101   9.946   9.627 -0.0048  0.2795  1.3141
13615SOL    HW243384   7.022   9.821   9.596  0.4308  0.1163  0.8505
13616SOL     OW43385   2.241   0.262   8.611  0.4331  0.0901  0.0461
13616SOL    HW143386   2.298   0.285   8.537  0.0027  0.4143 -0.1849
13616SOL    HW243387   2.245   0.166   8.615  0.1050  0.0422 -0.6864
13617SOL     OW43388   1.376   6.129   9.722 -0.0989  0.0419 -0.4508
13617SOL    HW143389   1.369   6.053   9.780 -1.2628 -0.4565 -1.2213
13617SOL    HW243390   1.470   6.145   9.714  0.1307 -0.9297  0.2188
13618SOL     OW43391   6.578   8.743   4.341 -0.0257 -0.6595  0.2546
13618SOL    HW143392   6.636   8.735   4.417  2.2172  1.8763 -1.1097
13618SOL    HW243393   6.567   8.837   4.330 -1.8060 -1.0540 -1.4809
13619SOL     OW43394   2.867   9.482   5.040  0.2942 -0.1853  0.3930
13619SOL    HW143395   2.864   9.460   4.947  0.9056 -1.3396  0.6415
13619SOL    HW243396   2.826   9.407   5.084 -1.7305  1.1875  0.9363
13620SOL     OW43397   1.713   9.772   5.872  0.2809  0.3968 -0.8073
13620SOL    HW143398   1.699   9.866   5.877 -1.3034  0.1506 -0.3489
13620SOL    HW243399   1.780   9.753   5.938  0.0406  1.0910 -0.3709
13621SOL     OW43400   5.988   5.605   3.129 -0.1678 -0.2356 -0.6295
13621SOL    HW143401   6.044   5.681   3.148  0.7657 -0.4185 -2.6000
13621SOL    HW243402   6.047   5.530   3.133 -0.5597 -0.5806 -1.3250
13622SOL     OW43403   0.708   0.676   1.936 -0.1151 -0.1776  0.4914
13622SOL    HW143404   0.620   0.649   1.964  0.3583 -0.5570  1.6410
13622SOL    HW243405   0.713   0.768   1.961 -0.2913 -0.0732  0.1487
13623SOL     OW43406   0.055   1.167   0.713  0.1020 -0.6096  0.0253
13623SOL    HW143407  -0.036   1.140   0.701 -0.1608 -0.4108  1.4612
13623SOL    HW243408   0.071   1.230   0.643 -1.2448  0.2530  0.4709
13624SOL     OW43409   3.875   1.494   4.433  0.1466  0.1225  0.1136
13624SOL    HW143410   3.933   1.535   4.368 -0.3048  1.2607  0.4038
13624SOL    HW243411   3.929   1.488   4.512  0.1114  0.4668  0.1644
13625SOL     OW43412   6.694  10.145   1.553 -0.1183 -0.0340  0.2608
13625SOL    HW143413   6.750  10.222   1.559 -0.7100  0.2607  2.2809
13625SOL    HW243414   6.737  10.089   1.489  1.4006  1.0832  0.2805
13626SOL     OW43415   5.883   8.774   1.636  0.5808 -0.7129  0.4081
13626SOL    HW143416   5.804   8.734   1.674 -0.3741  1.3552  0.6584
13626SOL    HW243417   5.949   8.765   1.704 -0.2913  0.2598  1.4034
13627SOL     OW43418   5.371   8.005   6.016  0.6021  0.2121 -0.8350
13627SOL    HW143419   5.298   8.063   5.996  0.2160 -0.2057 -0.6592
13627SOL    HW243420   5.332   7.917   6.014  1.1638 -0.0315 -1.0363
13628SOL     OW43421   1.069   2.882   3.941 -0.1834  0.0953 -0.1606
13628SOL    HW143422   1.120   2.955   3.976  2.2283 -0.4311 -2.4245
13628SOL    HW243423   0.995   2.924   3.896  0.0465  1.0547  0.3415
13629SOL     OW43424   7.268   4.627   7.404 -0.2389 -0.2745 -0.1957
13629SOL    HW143425   7.209   4.566   7.447  0.1629 -1.3198 -1.1079
13629SOL    HW243426   7.244   4.622   7.311 -1.0232  1.8485 -0.1481
13630SOL     OW43427   1.038   7.761   1.051 -0.4154 -0.0225 -0.2028
13630SOL    HW143428   1.102   7.832   1.065  0.6572 -0.4851 -2.6124
13630SOL    HW243429   0.954   7.802   1.070  0.4766  0.8556  2.1066
13631SOL     OW43430   0.622   5.066   5.791  0.4828  0.1265 -0.6734
13631SOL    HW143431   0.533   5.065   5.825  1.0311 -1.1684  0.7470
13631SOL    HW243432   0.667   5.134   5.842  0.8417 -0.6224  0.0178
13632SOL     OW43433   9.121   7.961   5.877  0.5182  0.4436 -0.5352
13632SOL    HW143434   9.048   8.023   5.887  0.2150 -0.2227  1.7100
13632SOL    HW243435   9.159   7.955   5.965 -0.1825 -3.3909 -0.3871
13633SOL     OW43436   2.582   0.447   6.868 -0.3229  0.5472  0.5200
13633SOL    HW143437   2.669   0.463   6.904  0.2783  1.3932 -1.2550
13633SOL    HW243438   2.527   0.515   6.905 -0.1932  0.1346  1.4859
13634SOL     OW43439   7.241   4.792   9.245  0.6212 -0.2125  0.0346
13634SOL    HW143440   7.219   4.834   9.328  0.0608 -0.6985  0.1312
13634SOL    HW243441   7.224   4.860   9.179  1.3380  0.2658  0.3347
13635SOL     OW43442   0.575   8.097   6.271  0.1679  0.5604 -0.3189
13635SOL    HW143443   0.652   8.126   6.320  0.5131 -1.7977  0.5676
13635SOL    HW243444   0.501   8.124   6.325  0.4958 -0.3080  0.5821
13636SOL     OW43445   2.900   6.768   9.872  0.5309 -0.1576  0.1594
13636SOL    HW143446   2.835   6.825   9.830  0.2314 -1.2353 -0.9002
13636SOL    HW243447   2.969   6.758   9.806  1.0137 -0.2717  0.6830
13637SOL     OW43448   7.708   4.457   2.192 -0.2547  0.0545 -0.4552
13637SOL    HW143449   7.702   4.515   2.267 -0.0681  0.4558 -0.7490
13637SOL    HW243450   7.617   4.431   2.175 -0.4663  1.0754 -0.9522
13638SOL     OW43451   4.177   6.019   3.895  0.3381  0.2816  0.2281
13638SOL    HW143452   4.145   5.992   3.981 -0.0766 -0.5525 -0.1812
13638SOL    HW243453   4.106   5.998   3.835  1.0339 -0.1315 -0.4694
13639SOL     OW43454   6.027   4.490   5.337  0.4095 -0.0852 -0.2214
13639SOL    HW143455   6.106   4.456   5.296  1.3678  0.8940  0.7607
13639SOL    HW243456   6.024   4.582   5.313  0.5696  0.3198  1.2275
13640SOL     OW43457   2.271   4.597   5.587  0.5202  0.5396  0.2068
13640SOL    HW143458   2.232   4.681   5.564  1.8711  0.8896 -0.9054
13640SOL    HW243459   2.247   4.538   5.515 -2.3818 -0.6995  2.1037
13641SOL     OW43460   8.403   4.097   5.934 -0.1664 -0.1150 -0.3554
13641SOL    HW143461   8.396   4.003   5.915 -0.7722  0.2200 -1.8382
13641SOL    HW243462   8.351   4.109   6.013 -1.5657 -0.7354 -1.1631
13642SOL     OW43463   2.349   0.203   7.719  0.5363 -0.2290 -0.4847
13642SOL    HW143464   2.344   0.281   7.775  0.7198 -0.7725  0.3103
13642SOL    HW243465   2.281   0.217   7.653 -0.6901 -0.2317  0.7460
13643SOL     OW43466   1.779   2.789   6.760 -0.4316 -0.3769 -0.3168
13643SOL    HW143467   1.853   2.849   6.752 -1.2177  0.7642  0.6896
13643SOL    HW243468   1.712   2.824   6.701 -0.6016 -0.7352 -0.3415
13644SOL     OW43469   4.750   6.551   8.960  0.0639  0.6205 -0.0350
13644SOL    HW143470   4.746   6.614   8.888 -1.6916  3.2288  2.2624
13644SOL    HW243471   4.693   6.479   8.932  1.8955  0.0770 -2.5704
13645SOL     OW43472   9.897   5.048   9.495  0.9417 -0.0365 -0.2703
13645SOL    HW143473   9.807   5.024   9.515  0.8829  0.8227  0.5325
13645SOL    HW243474   9.949   4.998   9.557  0.9939 -0.1956 -0.4407
13646SOL     OW43475   1.500   8.878   2.473  0.0024  0.4023  0.3169
13646SOL    HW143476   1.474   8.960   2.432  2.0752  1.1657  0.4743
13646SOL    HW243477   1.419   8.828   2.480 -1.0388  1.8376 -1.1091
13647SOL     OW43478   7.508   6.618   5.459  0.6706  0.5346  0.4014
13647SOL    HW143479   7.559   6.617   5.539  1.2622  0.1736  0.0209
13647SOL    HW243480   7.426   6.575   5.482  1.3802 -0.8004  0.4544
13648SOL     OW43481   4.583   5.360   4.527 -0.0340 -0.4049  0.3281
13648SOL    HW143482   4.582   5.266   4.511  2.1831 -0.7633  2.0021
13648SOL    HW243483   4.661   5.391   4.481 -0.1284  0.4114  0.7120
13649SOL     OW43484   9.654   9.162   6.823  0.1561 -0.6602 -0.1298
13649SOL    HW143485   9.590   9.136   6.890  1.1060 -0.2893  0.9548
13649SOL    HW243486   9.634   9.254   6.805  1.7376  0.1320  1.8572
13650SOL     OW43487   1.757   5.594   4.437  0.6365  0.6261  0.0444
13650SOL    HW143488   1.662   5.581   4.446  0.0027  3.1003 -2.4633
13650SOL    HW243489   1.782   5.640   4.518 -0.7602  2.0326 -0.2865
13651SOL     OW43490   0.401   2.028   2.013 -0.1063  0.8242  0.1638
13651SOL    HW143491   0.390   2.103   2.072  0.8269  1.9270 -1.0358
13651SOL    HW243492   0.478   2.050   1.961 -0.4357 -0.5188 -0.9063
13652SOL     OW43493   6.543   3.995   3.077 -0.0419  0.1969  0.6282
13652SOL    HW143494   6.620   3.967   3.027 -1.4452 -1.6806 -0.5630
13652SOL    HW243495   6.533   4.088   3.055  0.9881  0.0719 -0.4114
13653SOL     OW43496   4.148   2.915   6.301 -0.2814 -0.2751 -0.1854
13653SOL    HW143497   4.224   2.972   6.285 -0.0623 -0.1658  1.1932
13653SOL    HW243498   4.092   2.966   6.360 -1.4182 -0.3814 -1.1527
13654SOL     OW43499   5.911   2.424   8.502  0.4545 -0.3337 -0.1331
13654SOL    HW143500   5.835   2.366   8.511 -0.0460  0.4086  0.5663
13654SOL    HW243501   5.875   2.503   8.462  0.3303  1.0157  2.5375
13655SOL     OW43502   9.739   7.324   5.029  0.4527  0.3391  0.5897
13655SOL    HW143503   9.741   7.389   4.959 -0.9780  0.4495  0.6467
13655SOL    HW243504   9.727   7.240   4.984 -0.1829  0.3795  0.6863
13656SOL     OW43505   7.683   2.549   8.130  0.0088  0.6549  0.1730
13656SOL    HW143506   7.741   2.527   8.057  0.4975 -0.7207  0.9634
13656SOL    HW243507   7.613   2.600   8.090  0.7724  0.7320 -1.1053
13657SOL     OW43508   5.804   5.046   9.453  0.6998  0.4379  0.1008
13657SOL    HW143509   5.854   5.117   9.495 -1.4105  1.3328  1.1805
13657SOL    HW243510   5.723   5.088   9.424 -0.1881 -1.3495 -0.0421
13658SOL     OW43511   0.536   8.821   1.482  0.0359 -0.1044 -0.0759
13658SOL    HW143512   0.631   8.820   1.475 -0.0031  0.7795 -0.7608
13658SOL    HW243513   0.516   8.757   1.551  1.1308 -0.1006  0.2429
13659SOL     OW43514   2.256   7.337   4.776  0.5095  0.0229  0.3724
13659SOL    HW143515   2.217   7.382   4.851  2.3978  2.4078 -0.0419
13659SOL    HW243516   2.211   7.374   4.700  1.0054  0.0720  0.1057
13660SOL     OW43517   3.311   3.884   4.474 -0.5981  0.1631  0.0023
13660SOL    HW143518   3.339   3.822   4.542  2.1044  3.8934  2.5015
13660SOL    HW243519   3.343   3.846   4.392 -0.3303 -2.4475  1.2616
13661SOL     OW43520   4.483   0.530   1.676  0.3479  0.0641  0.3255
13661SOL    HW143521   4.472   0.598   1.743  0.0586 -0.7795  1.1454
13661SOL    HW243522   4.404   0.536   1.623 -0.2520 -0.4424  1.1473
13662SOL     OW43523   0.068   8.454   5.753 -0.3510 -0.7697  0.1433
13662SOL    HW143524  -0.020   8.418   5.768 -0.3964 -0.7739 -0.1233
13662SOL    HW243525   0.085   8.508   5.830 -0.1229 -1.6743  0.7354
13663SOL     OW43526   5.441   5.816   7.968  0.3840  0.0373  0.1372
13663SOL    HW143527   5.400   5.841   8.051 -0.2177 -0.2243 -0.0804
13663SOL    HW243528   5.459   5.722   7.978  0.4554  0.0390  0.0259
13664SOL     OW43529   8.028   8.805   0.696 -0.0579  0.2450 -0.0244
13664SOL    HW143530   8.003   8.814   0.788 -0.2604  0.4412 -0.0958
13664SOL    HW243531   7.969   8.865   0.650 -1.4426 -1.4566 -0.5186
13665SOL     OW43532   7.900   9.709   4.589  0.1158  0.6785 -0.1004
13665SOL    HW143533   7.851   9.756   4.522 -0.7707  0.4332  0.3752
13665SOL    HW243534   7.850   9.723   4.670  1.9429  2.2059  0.8251
13666SOL     OW43535   2.185   1.793   1.188 -0.2870  0.4700 -0.3799
13666SOL    HW143536   2.095   1.766   1.173  0.3782 -2.0942  0.0657
13666SOL    HW243537   2.184   1.832   1.275 -0.6649 -1.0223  0.2953
13667SOL     OW43538   8.752   1.062   6.904 -0.7089  0.1428 -0.0121
13667SOL    HW143539   8.676   1.119   6.891 -1.0011 -0.8989 -3.3880
13667SOL    HW243540   8.721   0.996   6.966 -1.1304  2.2066  2.0528
13668SOL     OW43541   1.769   8.032   4.574  0.3472  0.1621 -0.1392
13668SOL    HW143542   1.817   8.074   4.503  0.8622 -0.8906 -0.4160
13668SOL    HW243543   1.813   7.948   4.587 -1.2224 -0.6881 -0.1843
13669SOL     OW43544   9.375   7.757   2.382  0.0620 -0.2670 -0.1354
13669SOL    HW143545   9.341   7.839   2.420 -1.2290 -1.3797  1.1556
13669SOL    HW243546   9.345   7.758   2.292 -2.4877 -0.6828  0.6775
13670SOL     OW43547   7.355   1.857   1.922  0.3767  0.3793  0.0077
13670SOL    HW143548   7.260   1.848   1.920  0.3129  0.9833  0.1776
13670SOL    HW243549   7.372   1.917   1.995  0.8156  1.1478 -0.7225
13671SOL     OW43550   7.431   0.038   6.404  0.0469 -0.4736  0.1476
13671SOL    HW143551   7.523   0.013   6.411  0.2961  0.6494  1.0221
13671SOL    HW243552   7.383  -0.045   6.405  1.0769 -1.1020 -1.0083
13672SOL     OW43553   2.667   7.167   2.864 -0.0363  0.2416  0.5664
13672SOL    HW143554   2.680   7.124   2.780 -0.0859 -0.5955  0.9783
13672SOL    HW243555   2.728   7.241   2.863  1.5164 -1.0009  0.6549
13673SOL     OW43556   1.801   3.853   0.566 -0.0813  0.2153 -0.5949
13673SOL    HW143557   1.897   3.857   0.570 -0.0076 -0.1682 -1.6922
13673SOL    HW243558   1.779   3.764   0.595 -0.0289 -0.0192 -1.2444
13674SOL     OW43559   4.523   9.524   3.807  0.6296 -0.1997  0.0895
13674SOL    HW143560   4.612   9.501   3.835 -0.1528 -1.0909  1.9222
13674SOL    HW243561   4.486   9.571   3.882  0.2369  2.0642 -1.4448
13675SOL     OW43562   4.683   3.746   2.503  0.4791 -0.3230  0.5937
13675SOL    HW143563   4.661   3.661   2.464  0.1619  0.9698 -2.1554
13675SOL    HW243564   4.620   3.756   2.574 -3.3016  0.0734 -2.6120
13676SOL     OW43565   9.632   1.388   6.763  0.7628  0.7608  0.0008
13676SOL    HW143566   9.704   1.369   6.823  2.3605  0.7053 -1.8874
13676SOL    HW243567   9.655   1.341   6.683 -1.0304  1.3246 -0.8579
13677SOL     OW43568   2.026   8.709   3.517  0.0438  0.5411 -0.0630
13677SOL    HW143569   1.945   8.667   3.545 -0.1591  0.3237 -0.9712
13677SOL    HW243570   2.074   8.725   3.598 -0.4538 -0.2581  0.3922
13678SOL     OW43571   5.828   1.116   3.894  0.6192 -0.0827  0.5015
13678SOL    HW143572   5.804   1.185   3.955 -1.7739  0.3750 -0.9014
13678SOL    HW243573   5.921   1.131   3.877  0.0761  3.0211 -0.0148
13679SOL     OW43574   3.485   4.045   6.139 -0.0921  0.4250 -0.1470
13679SOL    HW143575   3.567   4.050   6.090 -0.0348 -0.8580 -0.1857
13679SOL    HW243576   3.427   3.993   6.083  0.0107 -1.1478  1.1871
13680SOL     OW43577   0.134   3.987   0.198  0.3064  0.4975 -0.2052
13680SOL    HW143578   0.088   4.050   0.253 -0.9706  0.4144 -1.1673
13680SOL    HW243579   0.065   3.941   0.151  1.3936  1.1605 -2.5193
13681SOL     OW43580   1.555   3.894   7.847 -0.7447  0.2286 -0.0658
13681SOL    HW143581   1.631   3.838   7.861  0.0002  1.2146 -0.1453
13681SOL    HW243582   1.587   3.983   7.860 -1.8124  0.6759 -0.3977
13682SOL     OW43583   2.669   0.246   2.509 -0.0592 -0.1889  0.1150
13682SOL    HW143584   2.682   0.282   2.597 -0.1704 -0.6612  0.3235
13682SOL    HW243585   2.714   0.308   2.451  1.9626 -1.0680  0.7020
13683SOL     OW43586  10.007   2.579   7.572  0.0764 -0.1704  0.0649
13683SOL    HW143587  10.000   2.566   7.667 -2.3728  1.3910  0.1435
13683SOL    HW243588  10.052   2.664   7.563  0.1608 -0.2399 -0.1809
13684SOL     OW43589   7.495   8.980   0.274 -0.5738 -0.1628 -0.8164
13684SOL    HW143590   7.409   9.007   0.242 -1.1356 -1.6558 -0.5988
13684SOL    HW243591   7.532   8.929   0.202  0.7328  1.6224 -1.4647
13685SOL     OW43592   8.953   2.685   6.421 -0.3801  0.2962  0.0859
13685SOL    HW143593   9.046   2.664   6.419 -0.4521  0.0340 -0.9436
13685SOL    HW243594   8.913   2.616   6.473  0.2199  1.3679  2.0490
13686SOL     OW43595   0.846   6.252   0.001 -0.1036  0.2456  0.6660
13686SOL    HW143596   0.776   6.257  -0.064 -0.1896 -0.6772  0.6776
13686SOL    HW243597   0.840   6.334   0.050  0.2225  1.1476 -0.7453
13687SOL     OW43598   1.590   9.727   8.119 -0.3531 -0.2889 -0.0629
13687SOL    HW143599   1.497   9.738   8.138  0.2157  1.1212  2.0088
13687SOL    HW243600   1.631   9.717   8.204  1.7686  2.1897 -0.7325
13688SOL     OW43601   0.597   9.930   4.047  0.1217  0.1399 -0.4205
13688SOL    HW143602   0.633   9.863   4.105  1.5786  1.5330  0.3121
13688SOL    HW243603   0.655   9.928   3.971  1.4764  2.0338  0.5354
13689SOL     OW43604   1.478   2.232   2.173  0.3783  0.0114  0.1500
13689SOL    HW143605   1.465   2.256   2.081 -1.0694 -2.4952 -0.3515
13689SOL    HW243606   1.556   2.176   2.173 -0.7096 -1.5433  0.1264
13690SOL     OW43607   8.262   3.967   1.964  0.4557  0.1278 -0.3384
13690SOL    HW143608   8.171   3.938   1.968  0.6368 -0.4891 -0.5862
13690SOL    HW243609   8.283   3.969   1.871  0.4990  0.9059 -0.3183
13691SOL     OW43610  10.106   8.983   0.829 -0.0479 -0.0527  0.0251
13691SOL    HW143611  10.179   9.011   0.774  0.5574  0.3673  1.0237
13691SOL    HW243612  10.095   8.890   0.810 -0.0706  0.1612 -1.0487
13692SOL     OW43613   9.097   3.179   7.727  0.3003 -0.3189 -0.2880
13692SOL    HW143614   9.018   3.152   7.775  0.7863 -0.6313  0.3506
13692SOL    HW243615   9.165   3.122   7.761  0.7811 -0.1219 -0.9228
13693SOL     OW43616   1.761   1.173   5.322 -0.2494 -0.2322  0.4932
13693SOL    HW143617   1.760   1.101   5.258  0.6593  0.7599 -0.6530
13693SOL    HW243618   1.850   1.173   5.356 -0.1123  0.6483  0.1448
13694SOL     OW43619   8.433   0.265   8.674 -0.7690 -0.3291  0.3136
13694SOL    HW143620   8.477   0.276   8.590  0.7532 -2.1774  0.8128
13694SOL    HW243621   8.503   0.273   8.739 -1.7460  0.0363  1.3312
13695SOL     OW43622   0.008   4.074   4.106  0.4546 -0.6844 -0.4679
13695SOL    HW143623  -0.081   4.109   4.113  0.1564 -1.3584 -0.9806
13695SOL    HW243624   0.030   4.081   4.013  0.6859 -1.1481 -0.4499
13696SOL     OW43625   1.968   6.516   2.430  0.2264  0.3289  0.3953
13696SOL    HW143626   2.023   6.591   2.451  0.7353  0.1796 -0.3977
13696SOL    HW243627   1.983   6.454   2.501  1.0676  0.2996  0.1953
13697SOL     OW43628   9.242   3.435   1.965  0.1145 -0.0001 -0.2200
13697SOL    HW143629   9.254   3.522   2.004 -0.0532 -0.1778  0.2268
13697SOL    HW243630   9.314   3.383   2.000  0.2526 -0.0269 -0.5395
13698SOL     OW43631   1.903   8.744   9.579 -0.0842 -0.2300 -0.6947
13698SOL    HW143632   1.944   8.686   9.515 -1.3421  0.6992 -2.3837
13698SOL    HW243633   1.889   8.826   9.531 -0.1516  0.8185  1.0739
13699SOL     OW43634   1.615   1.731   2.499  0.3065 -0.7459 -0.0696
13699SOL    HW143635   1.686   1.670   2.523  0.6441 -0.5128 -0.4693
13699SOL    HW243636   1.587   1.702   2.412 -1.3216 -1.9595  0.8312
13700SOL     OW43637   4.299  10.081   6.765 -0.5028  0.2633 -0.5406
13700SOL    HW143638   4.246  10.161   6.762 -2.5384 -1.0738 -0.9938
13700SOL    HW243639   4.294  10.045   6.677 -0.0244 -0.6236 -0.2133
13701SOL     OW43640   5.338   5.219   5.519  0.3600 -0.4035  0.0690
13701SOL    HW143641   5.433   5.219   5.504  0.6612  2.1003  1.6407
13701SOL    HW243642   5.308   5.302   5.482 -1.1981 -1.0883 -0.2436
13702SOL     OW43643   1.107   6.253   7.380  0.0800  0.0012 -0.1691
13702SOL    HW143644   1.174   6.289   7.322  0.4346  0.6648  0.6309
13702SOL    HW243645   1.076   6.329   7.430  2.0659 -1.0286  2.7826
13703SOL     OW43646   5.010   5.182   7.375 -0.3560  0.6224 -0.1217
13703SOL    HW143647   5.087   5.150   7.327 -0.8849 -1.3654  0.3254
13703SOL    HW243648   5.035   5.176   7.467 -0.8561  0.4754  0.0020
13704SOL     OW43649   8.257   3.989   9.968  0.4427  0.2668  0.2748
13704SOL    HW143650   8.303   4.010  10.049  3.0165  2.7028 -1.7104
13704SOL    HW243651   8.281   3.899   9.949 -0.4285 -0.4230  2.3469
13705SOL     OW43652   3.063   0.584   8.479 -0.1786 -0.1449  0.5198
13705SOL    HW143653   3.040   0.493   8.497 -2.0654 -0.0033 -0.9930
13705SOL    HW243654   3.020   0.634   8.548  1.0385 -0.3914  1.4797
13706SOL     OW43655   8.807   4.090   5.802 -0.4696 -0.5951  1.1987
13706SOL    HW143656   8.803   4.086   5.707 -1.2881 -0.1531  1.2071
13706SOL    HW243657   8.733   4.146   5.827 -0.0193 -0.3737  2.0681
13707SOL     OW43658   6.717   0.774   2.527  0.2948 -0.6592  0.0942
13707SOL    HW143659   6.722   0.854   2.475  1.1470 -1.0802 -0.4801
13707SOL    HW243660   6.798   0.773   2.578 -0.0818 -0.7503  0.6987
13708SOL     OW43661   2.608   4.925   9.157  0.2284  0.3025 -0.2992
13708SOL    HW143662   2.680   4.867   9.179 -0.3630 -0.2995  0.0574
13708SOL    HW243663   2.532   4.867   9.148 -0.6369  1.1567  1.3016
13709SOL     OW43664   8.121   0.256   3.451  0.2752 -0.0086  0.3655
13709SOL    HW143665   8.061   0.271   3.378 -0.2105 -0.6384  0.6323
13709SOL    HW243666   8.128   0.161   3.457  0.7181  0.0491  0.8143
13710SOL     OW43667   2.447   2.983   8.499  0.0266 -0.5070 -0.1297
13710SOL    HW143668   2.498   2.969   8.579  0.3543  0.2162 -0.2097
13710SOL    HW243669   2.507   2.966   8.428  0.0760  0.0414 -0.2233
13711SOL     OW43670  10.119   4.444   8.077 -0.0033 -0.0859 -0.4130
13711SOL    HW143671  10.123   4.461   7.983 -0.1035  0.6211 -0.2919
13711SOL    HW243672  10.185   4.376   8.092  1.0957  0.8879 -0.7624
13712SOL     OW43673   4.195   7.261   2.632  0.6110  0.2702  0.0064
13712SOL    HW143674   4.233   7.193   2.687  1.7453 -0.7347 -1.9650
13712SOL    HW243675   4.159   7.325   2.694  3.4827  0.1216  1.8989
13713SOL     OW43676   1.867   2.038   7.753 -0.3485  0.0262 -0.4756
13713SOL    HW143677   1.827   2.122   7.777 -2.7271 -0.2966 -3.1687
13713SOL    HW243678   1.957   2.061   7.730 -1.2777  2.0450 -2.2405
13714SOL     OW43679   5.701   1.380   8.430 -0.4669 -0.0003  0.4372
13714SOL    HW143680   5.751   1.327   8.369  0.0714 -0.4637  1.2725
13714SOL    HW243681   5.768   1.428   8.480 -0.9064  0.4926  0.5581
13715SOL     OW43682   9.076   0.686   4.394 -0.6515 -0.1043 -0.1203
13715SOL    HW143683   9.161   0.697   4.438 -1.4812 -1.4460  1.8996
13715SOL    HW243684   9.099   0.665   4.303  1.1748 -0.0048  0.2889
13716SOL     OW43685   5.833   6.496   2.896 -0.2965  0.9942 -0.7316
13716SOL    HW143686   5.831   6.448   2.978 -0.3995 -2.5423 -2.7345
13716SOL    HW243687   5.881   6.577   2.917 -2.0478  1.1366  3.2259
13717SOL     OW43688   6.736   5.891   7.817  0.6074 -0.4363 -0.7335
13717SOL    HW143689   6.682   5.814   7.801 -2.1392  1.2228  0.2501
13717SOL    HW243690   6.765   5.882   7.908  0.2836 -0.2942 -0.6179
13718SOL     OW43691   2.865   5.450   6.975  0.1144 -0.6671  0.4851
13718SOL    HW143692   2.869   5.356   6.993  0.2691 -1.2093 -2.1459
13718SOL    HW243693   2.912   5.490   7.047  0.6974 -2.6747  1.2614
13719SOL     OW43694   8.019   6.278   8.851 -0.2227  0.0448  0.7341
13719SOL    HW143695   8.078   6.317   8.786 -1.9584  0.4749 -0.6093
13719SOL    HW243696   8.077   6.256   8.924  1.4074  1.7102  0.0166
13720SOL     OW43697   3.835   6.178   8.676  0.4235 -0.1252 -0.0696
13720SOL    HW143698   3.867   6.160   8.765  0.6249 -0.3010 -0.1768
13720SOL    HW243699   3.913   6.208   8.629 -0.1558  2.3836  0.4615
13721SOL     OW43700  10.033   6.560   6.489  0.7003 -0.1022  0.1017
13721SOL    HW143701  10.016   6.538   6.581  0.0931  2.9626  0.7495
13721SOL    HW243702   9.947   6.557   6.448  0.8888 -0.8331 -0.2493
13722SOL     OW43703   0.707   6.239   3.133  0.5579 -0.1852 -0.9061
13722SOL    HW143704   0.672   6.327   3.117  1.8839  0.2787 -1.3115
13722SOL    HW243705   0.652   6.204   3.202  1.4739  1.8723  0.9424
13723SOL     OW43706   2.913   7.556   3.191 -0.0571  0.6083 -0.2940
13723SOL    HW143707   2.836   7.539   3.245  0.6658 -2.4775 -0.0928
13723SOL    HW243708   2.950   7.636   3.226 -2.3630  1.3735  0.5293
13724SOL     OW43709   7.641   9.220   9.747 -0.3516 -0.5138  0.0326
13724SOL    HW143710   7.703   9.292   9.741 -2.7517  1.6427  0.1653
13724SOL    HW243711   7.688   9.150   9.792  1.9942  0.9885 -0.0443
13725SOL     OW43712   4.257   7.590   0.588  0.4851  0.2346  0.2464
13725SOL    HW143713   4.208   7.550   0.660  0.8495  1.3382  1.1238
13725SOL    HW243714   4.225   7.546   0.510  0.6160 -1.4897  1.1516
13726SOL     OW43715   9.780   1.862   7.425  0.1330 -0.0503 -0.6909
13726SOL    HW143716   9.786   1.946   7.470 -1.1640  0.3794 -1.2866
13726SOL    HW243717   9.859   1.858   7.371 -0.5218  1.4650 -1.7911
13727SOL     OW43718   1.585   2.230   4.480  0.0897  0.1872  0.0667
13727SOL    HW143719   1.623   2.215   4.394  0.1680  0.4348  0.0563
13727SOL    HW243720   1.569   2.143   4.515  0.9334  0.0718  0.1871
13728SOL     OW43721   3.389   5.234   7.593 -0.5058 -0.2976  0.0374
13728SOL    HW143722   3.413   5.206   7.504  0.4045  3.0526 -0.8289
13728SOL    HW243723   3.294   5.244   7.589 -0.4046  0.3801 -0.7223
13729SOL     OW43724   9.491   8.466   3.830 -0.1256 -0.2490  0.1311
13729SOL    HW143725   9.519   8.386   3.786  0.3400  0.8006 -1.5117
13729SOL    HW243726   9.564   8.487   3.889  0.0969 -0.5824 -0.0212
13730SOL     OW43727   6.981   1.180   1.751  0.2244 -0.1371  0.0085
13730SOL    HW143728   6.945   1.093   1.764 -0.1012 -0.0565 -0.3345
13730SOL    HW243729   6.912   1.240   1.779  1.0465  0.0081  1.7743
13731SOL     OW43730   4.892   3.636   4.501  0.2659  0.0519  0.0462
13731SOL    HW143731   4.822   3.581   4.466  1.3288 -1.4170  0.1491
13731SOL    HW243732   4.890   3.620   4.596  0.5659  0.1984  0.0774
13732SOL     OW43733   8.341   1.735   9.361  0.3028  0.2727 -0.2936
13732SOL    HW143734   8.333   1.672   9.432 -1.3418  0.7148 -0.0685
13732SOL    HW243735   8.300   1.692   9.286  1.0316  0.2562 -0.6883
13733SOL     OW43736   8.810   6.951   5.115 -0.3082  0.0153 -0.2501
13733SOL    HW143737   8.821   6.970   5.208 -0.6652  0.0424 -0.2135
13733SOL    HW243738   8.718   6.967   5.097 -0.1647  0.3796 -0.6969
13734SOL     OW43739   9.705   1.000   6.700  0.7489  0.5930 -0.3181
13734SOL    HW143740   9.643   1.041   6.640  0.5822  0.6710 -0.0953
13734SOL    HW243741   9.787   0.997   6.652  0.0571 -1.4762 -1.3975
13735SOL     OW43742   3.671   7.254   3.567 -0.6259  0.1877 -0.1877
13735SOL    HW143743   3.684   7.210   3.651 -2.4370 -0.2587 -0.1146
13735SOL    HW243744   3.711   7.341   3.579 -2.1094  0.6519  1.6198
13736SOL     OW43745   8.013   9.816   8.291 -0.3320 -0.2194 -0.6263
13736SOL    HW143746   8.106   9.838   8.286 -0.8696  2.2564 -0.3089
13736SOL    HW243747   7.969   9.885   8.242 -1.9753 -1.6020 -1.1163
13737SOL     OW43748   5.699   1.336  10.099  0.7867 -0.0582 -0.2521
13737SOL    HW143749   5.627   1.350  10.161  0.0509  1.6777 -1.4590
13737SOL    HW243750   5.778   1.339  10.153  0.3070  3.4765  0.4100
13738SOL     OW43751  10.088   1.318   8.315 -0.1525 -0.3083 -0.3716
13738SOL    HW143752  10.086   1.402   8.359 -2.2090 -0.0868 -0.8567
13738SOL    HW243753  10.081   1.339   8.222  1.0915 -0.9374 -0.6239
13739SOL     OW43754   2.075   1.935   7.220 -0.1877 -0.1855 -0.0712
13739SOL    HW143755   2.103   1.844   7.214  0.9752  0.2123 -0.7883
13739SOL    HW243756   2.153   1.986   7.198 -0.6780  1.0004  0.8805
13740SOL     OW43757   2.931   0.813   5.115 -0.2280 -0.4303 -0.6207
13740SOL    HW143758   2.904   0.881   5.053  1.6587  1.6448  0.7444
13740SOL    HW243759   3.026   0.821   5.120 -0.2450 -1.2040  1.7715
13741SOL     OW43760   2.363   8.178   4.086 -0.3605  0.0154  0.9984
13741SOL    HW143761   2.318   8.194   4.004  0.0956 -1.5394  0.4142
13741SOL    HW243762   2.295   8.146   4.145 -0.2197 -1.4819  0.3829
13742SOL     OW43763   9.453   6.154   4.804  0.1427  0.1044  0.3897
13742SOL    HW143764   9.422   6.208   4.731 -0.6061 -0.2502  0.4441
13742SOL    HW243765   9.374   6.121   4.845  0.5818 -0.3295  0.8941
13743SOL     OW43766   8.194   3.481   4.880  0.0980  0.6125  0.1963
13743SOL    HW143767   8.250   3.405   4.861 -0.4122  0.4703 -0.7862
13743SOL    HW243768   8.245   3.556   4.849  0.8552  0.7427  1.7011
13744SOL     OW43769   3.776   7.710   1.886  0.3492 -0.1661 -0.1735
13744SOL    HW143770   3.778   7.655   1.807  1.8376  1.2909 -1.1923
13744SOL    HW243771   3.691   7.693   1.925  0.6158 -2.8967 -0.6670
13745SOL     OW43772   1.742   1.499   8.194 -0.3607 -0.3117 -0.5323
13745SOL    HW143773   1.830   1.499   8.156 -0.8851 -1.4482 -1.7797
13745SOL    HW243774   1.754   1.460   8.281  0.3494 -0.5913 -0.7457
13746SOL     OW43775   2.698   1.766   7.648 -0.3144 -0.3074 -0.1428
13746SOL    HW143776   2.630   1.714   7.605  0.7475 -1.2960 -0.6432
13746SOL    HW243777   2.656   1.851   7.664 -1.2998 -0.5249 -1.4701
13747SOL     OW43778   7.284   9.431   9.564 -0.2873 -0.0085  0.1815
13747SOL    HW143779   7.324   9.359   9.514 -0.1504 -0.0736  0.3844
13747SOL    HW243780   7.358   9.474   9.608 -0.6722 -1.5129  2.3673
13748SOL     OW43781   9.273   1.448   2.668  0.3010 -0.7479 -0.0074
13748SOL    HW143782   9.337   1.458   2.738  1.6218 -1.5839 -1.0623
13748SOL    HW243783   9.310   1.497   2.595 -1.4797  0.8231  0.1286
13749SOL     OW43784   9.970   7.648   0.862 -0.3010 -0.0871  0.1699
13749SOL    HW143785   9.942   7.708   0.793  1.2662  1.6195  0.9670
13749SOL    HW243786   9.894   7.638   0.919 -1.3324 -0.8298 -1.3284
13750SOL     OW43787   1.015   8.911   7.074  0.8200 -0.3874 -0.4115
13750SOL    HW143788   0.988   8.974   7.141  0.2635 -1.8018  0.7254
13750SOL    HW243789   1.016   8.962   6.993 -4.5628 -0.0209 -0.4199
13751SOL     OW43790   1.580   1.789   5.134  0.4097 -0.3787  0.1026
13751SOL    HW143791   1.540   1.722   5.190  1.9688 -2.1886 -0.8556
13751SOL    HW243792   1.672   1.762   5.128  0.9530  1.5912 -0.7201
13752SOL     OW43793   1.588   0.904   7.554 -0.0346  0.0154 -0.4582
13752SOL    HW143794   1.506   0.914   7.602 -0.4255  0.0984 -1.1303
13752SOL    HW243795   1.579   0.820   7.509  0.7968 -0.6013  0.4982
13753SOL     OW43796   3.355   0.328   3.019  0.7324  0.4511  0.1929
13753SOL    HW143797   3.330   0.372   2.937 -1.3885 -2.1649 -0.6592
13753SOL    HW243798   3.296   0.366   3.085 -1.7029 -1.6475 -0.7089
13754SOL     OW43799   1.849   6.847   4.749 -0.0718 -0.1356 -0.3180
13754SOL    HW143800   1.799   6.777   4.790 -0.6228  1.2113  1.3650
13754SOL    HW243801   1.917   6.869   4.814  1.0779 -0.1799 -1.4841
13755SOL     OW43802   1.856  10.007   0.004 -0.0702  0.1997 -0.6449
13755SOL    HW143803   1.822  10.095   0.022 -0.4027 -0.1390  0.4061
13755SOL    HW243804   1.815   9.951   0.070  2.5956 -0.2289  0.7256
13756SOL     OW43805   8.189   5.593   9.957  0.3923 -0.4625  0.2211
13756SOL    HW143806   8.167   5.676  10.001  1.0022 -0.6646  0.9176
13756SOL    HW243807   8.112   5.574   9.904  1.0400  1.5606 -1.5095
13757SOL     OW43808   4.925   8.297   4.024 -0.3293 -0.2445 -0.1565
13757SOL    HW143809   4.926   8.201   4.030 -1.3113 -0.2307  0.1935
13757SOL    HW243810   4.971   8.326   4.103 -1.4914 -0.3918  0.5769
13758SOL     OW43811   8.881   0.899   1.285 -0.6757  0.2786 -0.2680
13758SOL    HW143812   8.847   0.932   1.202 -0.5503 -0.7052 -0.7217
13758SOL    HW243813   8.958   0.847   1.261 -0.8013 -0.2463  0.4251
13759SOL     OW43814   3.610   5.566   4.572  0.7175 -0.2290 -0.0796
13759SOL    HW143815   3.658   5.614   4.505 -0.2772  0.3121 -0.4286
13759SOL    HW243816   3.677   5.528   4.629  1.5349  0.5685 -0.5118
13760SOL     OW43817   8.256   1.361   1.215  0.7901  0.0301 -0.1377
13760SOL    HW143818   8.287   1.451   1.203  0.6294  0.0673 -0.2737
13760SOL    HW243819   8.203   1.344   1.138  0.1909  0.0848  0.2656
13761SOL     OW43820   0.452   4.052   1.406 -0.2536  0.2909  0.4403
13761SOL    HW143821   0.381   4.028   1.467 -0.5402  1.1598  0.4574
13761SOL    HW243822   0.521   4.087   1.463  0.6696 -1.6198  0.5357
13762SOL     OW43823   3.654   9.866   8.331  0.1958  0.3643  0.1314
13762SOL    HW143824   3.670   9.894   8.241 -0.4353  0.2558 -0.0121
13762SOL    HW243825   3.708   9.925   8.384  1.3841 -0.2445 -0.3830
13763SOL     OW43826   3.063   0.509   9.354  0.1089 -0.1102 -1.2123
13763SOL    HW143827   3.091   0.593   9.390 -0.2515  0.2870 -1.8568
13763SOL    HW243828   3.127   0.491   9.285 -0.4567  0.1760 -1.8203
13764SOL     OW43829   2.167   6.946   8.086  0.1421 -0.3765  1.0193
13764SOL    HW143830   2.201   6.881   8.025 -1.0180 -1.0945  1.1153
13764SOL    HW243831   2.115   7.005   8.031 -0.5035 -0.7384  1.2372
13765SOL     OW43832   9.611   6.504   7.415  0.1191 -0.1544  0.1559
13765SOL    HW143833   9.678   6.437   7.400 -0.6554 -1.2514  1.4538
13765SOL    HW243834   9.634   6.541   7.500  0.0108  0.5889 -0.1414
13766SOL     OW43835   1.775   2.876   8.174  0.2597  0.2621  0.2579
13766SOL    HW143836   1.706   2.821   8.137  0.1306  0.7374 -0.2207
13766SOL    HW243837   1.734   2.961   8.186  0.3875  0.1872  1.2325
13767SOL     OW43838   1.054   7.029   0.492 -0.2157 -0.2322 -0.4284
13767SOL    HW143839   1.056   6.944   0.537  1.1506 -0.6613 -1.2576
13767SOL    HW243840   0.992   7.081   0.542 -0.4012 -1.4335  0.6275
13768SOL     OW43841   7.404   5.306   6.223  0.4013 -0.1454  0.5696
13768SOL    HW143842   7.398   5.309   6.319 -1.8427  0.3593  0.4423
13768SOL    HW243843   7.321   5.344   6.193  0.2837 -2.0124 -1.5684
13769SOL     OW43844   0.406   0.230   0.780  0.1478  0.1218  0.0618
13769SOL    HW143845   0.472   0.233   0.711  0.2603 -1.4803  0.0906
13769SOL    HW243846   0.428   0.304   0.838  1.4197  0.0744 -0.3625
13770SOL     OW43847   3.688   0.318   9.687  0.2099 -0.6925  0.4442
13770SOL    HW143848   3.616   0.381   9.699 -0.8245 -1.9207  0.7351
13770SOL    HW243849   3.760   0.355   9.738  0.4426  1.5547 -1.4282
13771SOL     OW43850   9.561   7.755   6.284  0.4209  0.1405  0.0897
13771SOL    HW143851   9.502   7.683   6.307 -1.3663  0.7998 -2.1589
13771SOL    HW243852   9.566   7.752   6.189  0.3945  2.8917 -0.0462
13772SOL     OW43853   3.277   6.451   5.984  0.1676  0.0568  0.3033
13772SOL    HW143854   3.203   6.395   6.009 -0.8371  0.1467 -2.3495
13772SOL    HW243855   3.286   6.439   5.890  1.8581  2.0913  0.1655
13773SOL     OW43856   0.127   5.273   0.711  0.0047 -0.2873  0.9475
13773SOL    HW143857   0.056   5.268   0.647  0.7122 -0.4769  0.1534
13773SOL    HW243858   0.146   5.366   0.719  0.4707 -0.3066  0.2241
13774SOL     OW43859   1.013   1.922   1.059  0.0352 -0.0040  0.1370
13774SOL    HW143860   0.937   1.946   1.007 -1.3856 -0.4113  1.9644
13774SOL    HW243861   1.034   1.832   1.032  0.5319  0.4800 -1.1104
13775SOL     OW43862   0.201   6.096   3.294  0.1870  0.0368 -0.0666
13775SOL    HW143863   0.238   6.017   3.334 -1.8695 -0.3071  1.2077
13775SOL    HW243864   0.192   6.073   3.201 -1.1918 -1.5480  0.4370
13776SOL     OW43865   6.292   7.882   8.288 -0.0279  0.2382 -0.1670
13776SOL    HW143866   6.205   7.862   8.322  0.0879 -0.0260 -0.0252
13776SOL    HW243867   6.349   7.878   8.365  0.1519  0.1384 -0.3059
13777SOL     OW43868   3.894   1.445   8.615  0.2999 -0.0066  0.1721
13777SOL    HW143869   3.938   1.485   8.690  0.4545 -1.9234  1.1210
13777SOL    HW243870   3.966   1.418   8.557  0.2424 -0.0738  0.1308
13778SOL     OW43871   1.856   0.282   9.483 -0.0520 -0.0497  0.2206
13778SOL    HW143872   1.932   0.315   9.532  0.4674  1.3137 -1.4541
13778SOL    HW243873   1.882   0.195   9.455  1.2112  0.6713 -0.9312
13779SOL     OW43874   7.752   9.408  10.062 -0.1468 -0.3040  0.0298
13779SOL    HW143875   7.760   9.503  10.050 -1.2356 -0.4131 -1.6814
13779SOL    HW243876   7.833   9.373  10.026  0.3161 -0.0281  0.7823
13780SOL     OW43877   5.692   0.239   6.401 -0.2304  0.3991  0.0258
13780SOL    HW143878   5.609   0.277   6.371 -1.2770  0.1687  2.4944
13780SOL    HW243879   5.750   0.315   6.410 -1.0225  0.9157  0.8997
13781SOL     OW43880   3.510   2.090   5.435  0.2658  0.3694 -0.4118
13781SOL    HW143881   3.537   2.034   5.508  0.4099 -1.3949 -1.7891
13781SOL    HW243882   3.469   2.029   5.372  0.3853  1.8191 -1.9141
13782SOL     OW43883   1.803   4.909   3.091 -0.3695 -0.1411  0.2789
13782SOL    HW143884   1.894   4.883   3.077 -0.3851  0.4165 -0.8973
13782SOL    HW243885   1.755   4.826   3.093 -0.0028 -0.3783 -0.4176
13783SOL     OW43886   8.957   0.073   0.105  0.2397  0.1151  0.0514
13783SOL    HW143887   8.994   0.156   0.077 -2.1209  1.3421  0.4643
13783SOL    HW243888   8.998   0.056   0.190  0.8927  0.7310 -0.1360
13784SOL     OW43889   5.942  10.144   9.282 -0.2577 -0.0765  0.4051
13784SOL    HW143890   5.963  10.224   9.330 -1.7359 -1.4690  3.5106
13784SOL    HW243891   6.020  10.090   9.291  0.4070  0.6258 -0.9482
13785SOL     OW43892   1.580   1.136   1.818 -0.1863 -0.0588 -0.1534
13785SOL    HW143893   1.633   1.093   1.885  0.5369 -1.3000 -1.5206
13785SOL    HW243894   1.492   1.104   1.833  0.2488 -1.5599 -0.7990
13786SOL     OW43895   9.795   9.886   9.324 -0.3428 -0.7371 -0.1982
13786SOL    HW143896   9.760   9.867   9.411 -0.9524  0.9810 -0.0381
13786SOL    HW243897   9.823   9.978   9.330 -0.0705 -0.7146 -1.7106
13787SOL     OW43898   6.914   2.852   3.830  0.1998 -0.2898  0.5433
13787SOL    HW143899   6.883   2.898   3.752  1.8859  1.8614  1.0901
13787SOL    HW243900   6.865   2.770   3.831 -1.1148  0.4321 -1.8059
13788SOL     OW43901   4.385   6.549   0.574  0.3043  0.4701  0.0797
13788SOL    HW143902   4.433   6.467   0.565  0.6336  0.5990  0.6355
13788SOL    HW243903   4.377   6.583   0.485 -0.1314 -0.3343 -0.1858
13789SOL     OW43904   5.802   0.003   2.216  0.3285 -0.4350 -0.3407
13789SOL    HW143905   5.803   0.081   2.271  0.7016  1.5861 -3.1460
13789SOL    HW243906   5.892  -0.007   2.186 -0.2336 -0.3637 -2.1196
13790SOL     OW43907   3.911  10.149   1.790  0.7103  0.0093  0.4917
13790SOL    HW143908   3.971  10.075   1.785 -0.8986 -1.2747 -1.1017
13790SOL    HW243909   3.862  10.136   1.871  0.5662 -0.5867  0.3106
13791SOL     OW43910   8.496   5.090   9.780 -0.0600 -0.1452  0.3057
13791SOL    HW143911   8.553   5.014   9.794  0.0601  0.0961  1.1207
13791SOL    HW243912   8.408   5.053   9.774  0.1286 -0.4779 -0.5638
13792SOL     OW43913   0.601   7.473   6.482 -0.1086 -0.6787 -0.5372
13792SOL    HW143914   0.556   7.492   6.565  0.6622  0.1504 -0.3128
13792SOL    HW243915   0.692   7.496   6.498  0.2629 -1.6513 -1.2456
13793SOL     OW43916   6.012   2.952   5.518 -0.2189  0.4460 -0.1298
13793SOL    HW143917   6.018   3.048   5.517  0.4112  0.4021 -0.5484
13793SOL    HW243918   6.092   2.924   5.562  0.1624  0.0668 -1.0647
13794SOL     OW43919   4.031   0.595   2.841 -0.3282 -0.5764 -0.3674
13794SOL    HW143920   4.017   0.511   2.798  0.3373 -0.0134 -1.7338
13794SOL    HW243921   4.125   0.610   2.835 -0.3433 -0.1020  0.5515
13795SOL     OW43922   1.533   2.445   3.090  0.4362 -0.3059  0.1416
13795SOL    HW143923   1.490   2.388   3.025 -1.6528 -0.2265  1.4279
13795SOL    HW243924   1.615   2.471   3.047 -1.9410  1.6993 -3.5026
13796SOL     OW43925   0.036   9.899   8.609 -0.3101 -0.3153  0.7627
13796SOL    HW143926   0.062   9.941   8.527 -0.7440 -2.4804 -0.5102
13796SOL    HW243927   0.067   9.959   8.677  3.3593 -0.2593 -0.8446
13797SOL     OW43928   4.280   8.205   6.758 -0.8411  0.0170  0.3063
13797SOL    HW143929   4.281   8.109   6.763  1.1378 -0.0916 -1.2251
13797SOL    HW243930   4.211   8.225   6.695 -0.8067 -0.4630  0.1063
13798SOL     OW43931   2.045   2.240   4.383  0.4203  0.4210  0.2334
13798SOL    HW143932   2.001   2.318   4.416 -0.2428 -0.4241  1.4056
13798SOL    HW243933   2.073   2.193   4.462  0.1284 -0.9082 -0.4359
13799SOL     OW43934   2.963   0.595   0.181  0.5487  0.2465 -0.0914
13799SOL    HW143935   3.033   0.627   0.124  3.4661 -0.9714  2.6754
13799SOL    HW243936   2.960   0.658   0.253 -1.6598  0.6087 -0.4455
13800SOL     OW43937   9.228   7.289   9.600  0.4801 -0.4888  0.1481
13800SOL    HW143938   9.146   7.242   9.588  0.6540 -0.7303 -0.1090
13800SOL    HW243939   9.259   7.261   9.686  0.1245 -0.1335  0.3917
13801SOL     OW43940   6.037  10.105   3.399 -0.0076 -0.3747 -0.0620
13801SOL    HW143941   6.075  10.058   3.326  0.4124  0.5678 -0.4560
13801SOL    HW243942   6.105  10.104   3.467  0.2459  0.2063 -0.3027
13802SOL     OW43943   0.048   7.926   0.003  0.9580  0.3971  0.4491
13802SOL    HW143944   0.087   7.949  -0.081  1.0939 -0.7102  0.1953
13802SOL    HW243945   0.093   7.981   0.066  0.9470  1.1430 -0.1896
13803SOL     OW43946   8.701   3.975   4.855  0.0241 -0.1482  0.0264
13803SOL    HW143947   8.650   4.048   4.821 -0.8451 -0.4084  0.7563
13803SOL    HW243948   8.733   3.929   4.777  1.0753  1.3433 -0.4359
13804SOL     OW43949   6.251   8.590   7.263 -0.4463 -0.2372  0.0213
13804SOL    HW143950   6.284   8.677   7.288  1.2689 -0.5712 -1.0389
13804SOL    HW243951   6.175   8.609   7.207 -0.1406  0.5851 -0.1254
13805SOL     OW43952   6.463   9.054   9.782 -0.7495  0.4749  0.0200
13805SOL    HW143953   6.424   9.014   9.860  0.5210 -0.7328  0.0660
13805SOL    HW243954   6.526   8.989   9.751 -1.7563  0.6553 -2.4466
13806SOL     OW43955   6.635   2.125   7.883  0.6041 -0.2397  0.1038
13806SOL    HW143956   6.654   2.187   7.813  0.4626 -1.7985 -1.3572
13806SOL    HW243957   6.549   2.152   7.916  0.9848  0.9309  0.1664
13807SOL     OW43958   7.498   3.465   3.835  0.2159 -0.2227  0.3379
13807SOL    HW143959   7.580   3.429   3.800 -0.3085  1.3125 -2.5838
13807SOL    HW243960   7.524   3.504   3.919  2.6930  1.0434 -0.9522
13808SOL     OW43961   8.063   7.343   8.408  0.1057  0.2396 -0.0939
13808SOL    HW143962   7.982   7.369   8.452 -0.4055  0.7355 -1.3094
13808SOL    HW243963   8.130   7.398   8.449 -0.4026  0.8619 -0.0807
13809SOL     OW43964   6.739   3.571   2.441 -0.1786  0.2423  0.3092
13809SOL    HW143965   6.826   3.554   2.406 -0.1227 -0.2931  0.6978
13809SOL    HW243966   6.682   3.575   2.363  0.2238  0.8297  0.0421
13810SOL     OW43967   0.713   3.602   7.918  0.3057  0.3279 -0.1376
13810SOL    HW143968   0.694   3.694   7.903  1.2522  0.2017 -2.2315
13810SOL    HW243969   0.795   3.602   7.967  1.1599  0.5878 -1.5329
13811SOL     OW43970   8.644   3.414   9.961  0.1182 -0.0518 -0.1677
13811SOL    HW143971   8.642   3.377   9.872 -1.5683 -1.9401  0.6042
13811SOL    HW243972   8.663   3.339  10.017  1.4092  1.1740  1.0641
13812SOL     OW43973   0.425   8.839   6.780  0.3067 -0.3614  0.0875
13812SOL    HW143974   0.376   8.820   6.700  0.5139  0.0059 -0.1271
13812SOL    HW243975   0.459   8.754   6.807  0.3656 -0.4648 -0.3004
13813SOL     OW43976   1.729   6.431   9.941 -0.0706 -0.8478 -0.2025
13813SOL    HW143977   1.745   6.485  10.019  1.9892 -1.7065 -0.0006
13813SOL    HW243978   1.788   6.356   9.952  0.9375 -0.5088 -3.0706
13814SOL     OW43979   4.815   1.235   4.474 -0.2919 -0.1362  0.1648
13814SOL    HW143980   4.751   1.187   4.421  0.1976 -0.2042 -0.3659
13814SOL    HW243981   4.894   1.180   4.471  0.0699  0.3891  0.0808
13815SOL     OW43982   9.294   7.366   7.480  0.0455 -0.0993 -0.0743
13815SOL    HW143983   9.287   7.379   7.386  0.1086  0.2920 -0.0282
13815SOL    HW243984   9.206   7.342   7.508  0.0190 -0.1773 -0.2252
13816SOL     OW43985   5.192   0.736   5.251 -0.3888  0.1718  0.4738
13816SOL    HW143986   5.136   0.665   5.220 -0.0743  0.4996 -0.8553
13816SOL    HW243987   5.133   0.811   5.258  0.0021  0.6710 -1.5066
13817SOL     OW43988   6.144   2.160   1.753  0.8072 -0.1079  0.6371
13817SOL    HW143989   6.060   2.130   1.717  1.6599 -2.1944  0.3565
13817SOL    HW243990   6.119   2.229   1.815 -1.0504 -0.0933 -0.0765
13818SOL     OW43991  10.019   3.728   9.677 -0.1536  0.0109 -0.0529
13818SOL    HW143992  10.114   3.730   9.688 -0.1523  0.4141 -0.1463
13818SOL    HW243993   9.992   3.648   9.722  0.1414  0.2972  0.6386
13819SOL     OW43994   6.847   1.018   4.897  0.0941 -0.2930 -0.0283
13819SOL    HW143995   6.842   0.998   4.990 -0.0649 -0.4324 -0.0663
13819SOL    HW243996   6.759   0.999   4.864 -0.3879  1.5626  0.1480
13820SOL     OW43997   4.713   9.223   7.626  0.0761  0.5033  0.4212
13820SOL    HW143998   4.748   9.305   7.592 -1.9587  1.2415  0.0610
13820SOL    HW243999   4.678   9.245   7.712 -0.1781 -0.0683  0.4634
13821SOL     OW44000   4.893   4.916   1.291  0.4490 -0.5071  0.2612
13821SOL    HW144001   4.970   4.917   1.348  0.7379 -1.1102 -0.1244
13821SOL    HW244002   4.845   4.837   1.316 -0.0439 -0.1373  0.4948
13822SOL     OW44003   2.380   3.132   4.890 -0.0742  0.2349 -0.1957
13822SOL    HW144004   2.393   3.092   4.976 -2.2292 -1.1707 -0.4970
13822SOL    HW244005   2.366   3.225   4.910  0.3770  0.0784  0.8984
13823SOL     OW44006   3.877   0.721   0.190 -0.1534  0.5584  0.2554
13823SOL    HW144007   3.793   0.750   0.225 -1.7976 -0.2650 -2.8681
13823SOL    HW244008   3.881   0.628   0.213 -0.9081  0.1846 -1.1105
13824SOL     OW44009   3.864   1.762   1.702 -0.0269 -0.5399 -0.3554
13824SOL    HW144010   3.800   1.799   1.763  0.8742  0.5673 -0.0646
13824SOL    HW244011   3.907   1.838   1.663  2.1758 -1.2664  0.5871
13825SOL     OW44012   0.937   7.879   7.118  0.1100 -0.4513  0.6890
13825SOL    HW144013   0.923   7.857   7.026 -0.7226 -0.9507  0.9252
13825SOL    HW244014   1.032   7.886   7.127  0.0798  2.3390 -0.8153
13826SOL     OW44015   2.856   4.467   7.544  0.8168  0.1136  0.2899
13826SOL    HW144016   2.855   4.528   7.618  0.5283 -0.3820  0.7008
13826SOL    HW244017   2.876   4.521   7.468 -1.8232  1.1376  0.2708
13827SOL     OW44018   3.628   9.609   9.938  0.1448  0.3555 -0.6727
13827SOL    HW144019   3.635   9.558  10.019 -0.1942 -0.4102 -1.1135
13827SOL    HW244020   3.594   9.694   9.965  2.5076  1.0198  0.3330
13828SOL     OW44021   2.202   9.898   6.836  0.1480  0.4100  0.0300
13828SOL    HW144022   2.154   9.979   6.822 -1.3460 -0.2861  0.9962
13828SOL    HW244023   2.154   9.832   6.787 -0.4325 -0.4656  1.7530
13829SOL     OW44024   4.607   7.577   3.338  0.3625 -0.0448 -0.6447
13829SOL    HW144025   4.598   7.668   3.368  2.8205  0.3022 -0.8763
13829SOL    HW244026   4.521   7.556   3.301 -0.0140  2.4358 -1.2803
13830SOL     OW44027   8.792   9.649   3.237 -0.0608  0.2547 -0.4038
13830SOL    HW144028   8.839   9.731   3.252  0.6623 -0.3009  0.4895
13830SOL    HW244029   8.729   9.644   3.310 -0.1667  0.0622 -0.5069
13831SOL     OW44030   8.138   6.112   3.120 -0.2525 -0.3784  0.1008
13831SOL    HW144031   8.181   6.054   3.057 -0.7291 -0.4721 -0.1422
13831SOL    HW244032   8.194   6.190   3.123  0.8553 -1.2054  1.0839
13832SOL     OW44033   3.375   1.440   3.392  0.6127 -0.0064  1.0077
13832SOL    HW144034   3.467   1.426   3.413  0.7466  0.4817  0.7578
13832SOL    HW244035   3.352   1.368   3.333  1.1339  0.4933  0.1901
13833SOL     OW44036   6.238  10.119   6.957  0.6237  0.5084  0.2337
13833SOL    HW144037   6.232  10.083   6.868 -2.2355 -0.3080  0.7187
13833SOL    HW244038   6.189  10.058   7.011 -0.6948  2.8786  1.8083
13834SOL     OW44039   8.927   6.567   1.487  0.3237 -0.0200  0.0267
13834SOL    HW144040   8.893   6.554   1.398  0.4886 -0.6602  0.0533
13834SOL    HW244041   9.010   6.612   1.475  1.7289 -2.6153 -0.3271
13835SOL     OW44042   9.658   5.704   2.144  0.4764 -0.9052  0.0208
13835SOL    HW144043   9.618   5.705   2.057  1.8016 -0.3681 -0.5869
13835SOL    HW244044   9.752   5.698   2.128  0.6443 -2.3446  1.4460
13836SOL     OW44045   4.356   0.278   3.987  0.1267 -0.2622 -0.0813
13836SOL    HW144046   4.292   0.305   4.053 -1.4439 -2.7016 -0.5535
13836SOL    HW244047   4.352   0.347   3.921 -2.8144 -0.8761 -0.6137
13837SOL     OW44048   6.588   6.663   1.840 -0.2624 -0.0309 -0.2656
13837SOL    HW144049   6.544   6.652   1.924 -1.7928  2.4971 -0.6791
13837SOL    HW244050   6.681   6.652   1.860 -0.7878 -1.6827  1.3271
13838SOL     OW44051   4.580   8.020   1.853  0.2247  0.2991  0.2203
13838SOL    HW144052   4.487   8.028   1.832  0.3882 -0.6713 -0.9310
13838SOL    HW244053   4.605   7.934   1.818  1.5497  0.5610  0.5043
13839SOL     OW44054   4.895   6.112   3.104  0.7644 -0.4445  0.4620
13839SOL    HW144055   4.890   6.045   3.036 -3.1972  0.7375 -0.5781
13839SOL    HW244056   4.873   6.065   3.185 -0.2174 -0.7809  0.0095
13840SOL     OW44057   2.184   8.792   7.612  0.1779 -0.1323  0.0918
13840SOL    HW144058   2.092   8.816   7.624  0.1449  0.1648 -0.7117
13840SOL    HW244059   2.232   8.857   7.663 -0.1145 -1.2323  1.8052
13841SOL     OW44060   1.044   8.739   0.896 -0.4359 -0.1237  0.4214
13841SOL    HW144061   0.996   8.822   0.892  0.6374  0.5907  1.7576
13841SOL    HW244062   1.113   8.755   0.960  1.1369 -1.3512 -0.9101
13842SOL     OW44063   7.409   6.966   0.325  0.1157  0.2486  0.8914
13842SOL    HW144064   7.378   6.928   0.243  0.9093  1.2975  0.0899
13842SOL    HW244065   7.361   6.919   0.393 -0.3433 -0.8255 -0.1616
13843SOL     OW44066   0.161   5.516   0.182 -0.3218  0.0901  0.4320
13843SOL    HW144067   0.084   5.556   0.223 -0.8313  1.7255 -2.0355
13843SOL    HW244068   0.202   5.588   0.134  0.3935 -1.7200 -1.7268
13844SOL     OW44069   6.105   7.483   5.097  0.1574 -0.3255 -0.0317
13844SOL    HW144070   6.059   7.455   5.176  0.7646  0.2533  0.5302
13844SOL    HW244071   6.057   7.561   5.067  0.9549  0.4668  0.7336
13845SOL     OW44072   5.429   1.003   8.481 -0.2315 -0.4306  0.0688
13845SOL    HW144073   5.480   1.065   8.535 -0.6044 -0.0345 -0.0338
13845SOL    HW244074   5.357   1.055   8.446 -0.8071 -1.0322  0.3438
13846SOL     OW44075   1.870   6.855   9.303  0.1812  0.3525  0.9569
13846SOL    HW144076   1.883   6.786   9.368 -0.8645 -0.1302  0.6492
13846SOL    HW244077   1.802   6.911   9.341  0.7389  0.9969  1.0223
13847SOL     OW44078   9.807   2.037   1.697 -0.0010 -0.3350  0.1198
13847SOL    HW144079   9.845   1.949   1.698  1.3420  0.2331  1.2264
13847SOL    HW244080   9.803   2.062   1.789 -0.3260  0.7988 -0.1959
13848SOL     OW44081   6.863   6.752   5.367 -0.4184  0.2749 -0.0185
13848SOL    HW144082   6.807   6.815   5.413 -2.0137 -1.1508  0.0209
13848SOL    HW244083   6.850   6.670   5.414  1.3288 -0.1845 -0.3290
13849SOL     OW44084   1.601   8.291   5.585 -0.3914  0.2690 -0.4103
13849SOL    HW144085   1.533   8.357   5.576  0.4982  1.3054  0.3569
13849SOL    HW244086   1.675   8.337   5.625  0.4358 -1.0533 -0.3687
13850SOL     OW44087   7.383  10.180  10.086 -0.2340  0.0979  0.0896
13850SOL    HW144088   7.444  10.169  10.013 -0.1849 -0.9690  0.2905
13850SOL    HW244089   7.386  10.274  10.105  0.1992  0.2963 -0.8918
13851SOL     OW44090   9.644   6.166   1.914  0.3282 -0.2646  0.0999
13851SOL    HW144091   9.582   6.239   1.910 -0.8250 -1.2304  0.3521
13851SOL    HW244092   9.656   6.139   1.823  0.0366 -0.3727  0.0956
13852SOL     OW44093   1.252   3.697   9.353  0.3417 -0.3043 -0.3011
13852SOL    HW144094   1.297   3.778   9.332 -0.0108 -0.2787 -0.9600
13852SOL    HW244095   1.278   3.678   9.443 -2.1992  2.3059  1.0764
13853SOL     OW44096   3.612   6.390   9.753  0.3069  0.4323  0.1939
13853SOL    HW144097   3.675   6.328   9.716 -2.1717 -2.4144  0.5198
13853SOL    HW244098   3.560   6.419   9.679 -0.4190 -0.1843  0.4498
13854SOL     OW44099   9.005   2.020   6.616 -0.5136  0.4768 -0.3860
13854SOL    HW144100   9.071   2.010   6.548  0.2000  0.9730  0.2247
13854SOL    HW244101   8.925   1.984   6.578 -0.0607  0.5358 -1.3924
13855SOL     OW44102   1.993   5.732   6.557 -0.0003 -0.3282 -0.0070
13855SOL    HW144103   1.928   5.687   6.611  1.2922 -0.6505  1.3190
13855SOL    HW244104   2.063   5.754   6.618  1.9286 -1.5226 -1.7117
13856SOL     OW44105   7.200   4.642   5.395 -0.0612  0.0244 -0.0844
13856SOL    HW144106   7.294   4.642   5.411  0.1768  0.4389 -1.4002
13856SOL    HW244107   7.185   4.566   5.339 -0.6918 -0.7112  1.0574
13857SOL     OW44108   0.848  10.103   2.522  0.2829 -0.6365  0.2048
13857SOL    HW144109   0.790  10.159   2.471 -0.7202 -1.9420 -0.1096
13857SOL    HW244110   0.913  10.072   2.460 -0.4055 -1.5010 -0.0940
13858SOL     OW44111   8.745   4.616   8.524  0.0749 -0.0830  0.2479
13858SOL    HW144112   8.718   4.536   8.479 -0.9236  0.2936  0.1525
13858SOL    HW244113   8.837   4.628   8.501  0.0648 -0.8793 -0.2142
13859SOL     OW44114   1.601   9.207   4.726 -0.5032 -0.2336  0.3674
13859SOL    HW144115   1.603   9.283   4.783 -0.8501 -0.5783  0.8452
13859SOL    HW244116   1.690   9.173   4.727 -0.9429 -1.4204  2.3321
13860SOL     OW44117   7.297   0.651   4.582 -0.5193 -0.7004  0.1626
13860SOL    HW144118   7.344   0.679   4.661 -1.4438 -0.5645  0.6792
13860SOL    HW244119   7.358   0.666   4.510  0.2105 -0.5082  0.8209
13861SOL     OW44120  10.185   9.104   4.953 -0.0077 -0.3301 -0.0744
13861SOL    HW144121  10.128   9.083   5.026  0.1740  0.4954  0.3157
13861SOL    HW244122  10.228   9.021   4.931 -1.7448 -1.0711 -0.7278
13862SOL     OW44123   8.543   0.658   5.928 -0.7661 -0.0230  0.0974
13862SOL    HW144124   8.486   0.630   6.000  0.2122  0.7698  1.1988
13862SOL    HW244125   8.586   0.736   5.960  0.6301 -0.3655 -0.8857
13863SOL     OW44126   0.534   2.497   5.544  0.2189  0.0838 -0.1405
13863SOL    HW144127   0.519   2.403   5.532 -1.0290  0.2667 -0.0366
13863SOL    HW244128   0.548   2.507   5.638  0.8132 -0.0616 -0.2126
13864SOL     OW44129   7.595   6.305   0.136 -0.3575  0.5438 -0.4146
13864SOL    HW144130   7.664   6.358   0.175 -1.1886  0.1748  1.5987
13864SOL    HW244131   7.609   6.217   0.172 -1.8141  0.4463 -0.0611
13865SOL     OW44132   7.793   6.164   4.113 -0.4254  0.3344 -0.1952
13865SOL    HW144133   7.751   6.221   4.178 -1.9363 -0.5580 -0.3841
13865SOL    HW244134   7.829   6.225   4.048 -1.1836  1.1203  0.1153
13866SOL     OW44135   1.318   5.835   1.024 -0.2805 -0.6520  0.3432
13866SOL    HW144136   1.253   5.875   0.966  0.1321 -1.9307 -1.0482
13866SOL    HW244137   1.305   5.878   1.108 -2.4638 -0.3979 -0.0932
13867SOL     OW44138   5.346   1.187   9.034  0.9204  0.6947  0.1581
13867SOL    HW144139   5.407   1.122   9.071 -1.0696 -1.1949  0.2686
13867SOL    HW244140   5.323   1.151   8.948 -1.2690  0.5283  0.7920
13868SOL     OW44141   4.880   5.415   4.014 -0.0223 -0.2156  0.8225
13868SOL    HW144142   4.917   5.402   3.927 -1.2497  1.2504  0.0422
13868SOL    HW244143   4.881   5.328   4.054 -1.8887 -1.4440 -1.6537
13869SOL     OW44144   2.904   6.027   5.046  0.0086 -0.8158  0.8002
13869SOL    HW144145   2.932   5.982   5.126 -1.1498 -0.3549  1.4851
13869SOL    HW244146   2.833   5.972   5.012 -1.3606  0.4170  1.5957
13870SOL     OW44147   6.024   7.351   1.037 -0.0803 -0.0642  0.7273
13870SOL    HW144148   6.033   7.411   0.963  1.1471  1.2650  1.9230
13870SOL    HW244149   5.940   7.308   1.022 -0.4116  1.0463 -0.8180
13871SOL     OW44150   5.548   9.531   2.333  0.5529  0.0682 -0.6700
13871SOL    HW144151   5.483   9.591   2.297 -0.2017 -0.1590  0.2947
13871SOL    HW244152   5.517   9.511   2.421  1.5838 -0.5623 -0.4322
13872SOL     OW44153   6.170   8.840   6.596  0.0170  0.0311  0.5018
13872SOL    HW144154   6.216   8.911   6.641  0.7847  0.2409 -0.6120
13872SOL    HW244155   6.081   8.872   6.584 -0.2153 -0.0490  1.9250
13873SOL     OW44156   9.193   1.277   4.631  0.1294  0.2332  0.3591
13873SOL    HW144157   9.178   1.194   4.588 -0.2070  0.0301  0.8589
13873SOL    HW244158   9.111   1.325   4.622  0.1849  0.3452  0.4375
13874SOL     OW44159   6.626   8.703  10.026 -0.2214  0.5893  0.2724
13874SOL    HW144160   6.667   8.736  10.107 -0.5486 -0.2550  0.7851
13874SOL    HW244161   6.534   8.690  10.049 -0.3434  0.4554 -0.2791
13875SOL     OW44162   5.546   8.873   4.497 -0.1275 -0.7486 -0.6198
13875SOL    HW144163   5.625   8.857   4.445  0.6842 -0.8654  0.6295
13875SOL    HW244164   5.566   8.952   4.547 -0.6037 -1.0669  0.0788
13876SOL     OW44165   8.642   9.422   7.456  0.3163  0.5490  0.4157
13876SOL    HW144166   8.556   9.464   7.461  0.2569  0.1907  3.5712
13876SOL    HW244167   8.683   9.442   7.540  3.0169  0.0322 -0.7325
13877SOL     OW44168   9.652   8.825   4.501  0.6867  0.0636  0.4234
13877SOL    HW144169   9.730   8.787   4.460  0.4071 -1.1709  1.0031
13877SOL    HW244170   9.640   8.909   4.457  0.1668 -1.3904 -2.3104
13878SOL     OW44171   1.943   6.177   8.128  0.1541 -0.5147  0.1245
13878SOL    HW144172   1.902   6.217   8.051 -0.2326  1.1391  1.1579
13878SOL    HW244173   1.919   6.085   8.123  1.9266 -0.8829 -2.8834
13879SOL     OW44174   8.267   0.590   7.614  0.0623 -0.3196 -0.3905
13879SOL    HW144175   8.224   0.624   7.536 -0.3151 -0.2953 -0.1735
13879SOL    HW244176   8.360   0.607   7.599  0.0073 -0.4738 -0.9106
13880SOL     OW44177   9.916   4.465   2.110 -0.6093  0.2769  0.6156
13880SOL    HW144178   9.844   4.527   2.100 -1.8510 -1.3043 -0.5770
13880SOL    HW244179   9.905   4.431   2.199 -1.0416  0.4076  0.6168
13881SOL     OW44180   6.123   4.716   4.005 -0.1074  0.5915 -0.3472
13881SOL    HW144181   6.195   4.709   4.068 -1.2985 -1.5691  0.8467
13881SOL    HW244182   6.050   4.749   4.056 -0.9106 -0.5623 -0.7345
13882SOL     OW44183   6.041   6.759   4.560  0.1393 -0.2351 -0.4003
13882SOL    HW144184   6.051   6.828   4.626 -1.5450  0.5713 -0.9539
13882SOL    HW244185   6.116   6.769   4.502  0.8056  0.0411  0.4964
13883SOL     OW44186   1.138   6.661   4.920 -0.2762  0.2453 -0.4179
13883SOL    HW144187   1.091   6.632   4.999 -0.5599 -0.6637 -0.9158
13883SOL    HW244188   1.113   6.753   4.910  2.6678  1.5273  2.6816
13884SOL     OW44189   6.109   1.809   2.282  0.1830 -0.1721 -0.0216
13884SOL    HW144190   6.129   1.806   2.375 -1.2865  0.5520  0.3267
13884SOL    HW244191   6.106   1.717   2.255 -0.9063 -0.4455  0.9871
13885SOL     OW44192   9.100   9.329   6.715  0.4604 -0.3042 -0.0771
13885SOL    HW144193   9.129   9.238   6.708 -0.9699 -0.7664 -0.2745
13885SOL    HW244194   9.157   9.377   6.655  0.7867 -1.1914 -0.4871
13886SOL     OW44195   7.579   7.353   7.033 -0.0138  0.0030 -0.0196
13886SOL    HW144196   7.660   7.317   7.069  0.3384  1.3282  0.5573
13886SOL    HW244197   7.514   7.284   7.046  1.3846 -1.7198 -2.0288
13887SOL     OW44198   7.986   1.925   3.842  0.3076  0.8000 -0.2748
13887SOL    HW144199   8.001   1.947   3.750 -0.4883  2.8264  0.0423
13887SOL    HW244200   7.925   1.852   3.840 -0.4620  1.4575 -1.3676
13888SOL     OW44201   9.032   7.255   2.295  0.5161 -0.3604  0.1478
13888SOL    HW144202   8.964   7.323   2.296 -0.6728 -1.5324 -0.2927
13888SOL    HW244203   9.048   7.235   2.387  0.8591  0.4765  0.2827
13889SOL     OW44204   1.184   4.727   7.591  0.0704  0.3099 -0.0125
13889SOL    HW144205   1.198   4.707   7.684 -2.4066 -1.5764 -0.0051
13889SOL    HW244206   1.112   4.790   7.590 -1.4493 -1.4039 -0.7311
13890SOL     OW44207   0.949   1.158   1.424  0.2109  0.4350  0.1315
13890SOL    HW144208   1.043   1.146   1.437  0.4056  0.8903 -0.8672
13890SOL    HW244209   0.910   1.075   1.450  0.9052  0.1864  0.3719
13891SOL     OW44210   8.979   6.344   5.911 -1.0806  0.3080  0.0616
13891SOL    HW144211   8.924   6.296   5.849  0.4579 -0.1877 -0.9493
13891SOL    HW244212   9.047   6.384   5.857  0.8870 -0.9668  1.5085
13892SOL     OW44213   9.742   5.316   3.988  0.9577 -0.1919 -0.6248
13892SOL    HW144214   9.695   5.395   4.013  1.0724 -0.2289 -0.2852
13892SOL    HW244215   9.678   5.246   3.997  1.4604 -0.4436  1.2384
13893SOL     OW44216   5.038   0.674   8.251  0.1010  0.1793 -0.1215
13893SOL    HW144217   4.991   0.612   8.307 -1.8986  1.1404 -0.6971
13893SOL    HW244218   5.062   0.746   8.310  1.4704 -0.6053  0.3115
13894SOL     OW44219   7.396   7.282   4.040  0.0945 -0.4258  0.0520
13894SOL    HW144220   7.318   7.233   4.013 -0.0511 -0.8587  1.2498
13894SOL    HW244221   7.470   7.232   4.006 -0.1313 -0.2569 -0.6939
13895SOL     OW44222   9.808   3.408   1.339  0.1217  0.4294 -0.4663
13895SOL    HW144223   9.880   3.349   1.359  1.3707  1.9593 -0.3649
13895SOL    HW244224   9.765   3.369   1.262  1.6711  0.0491 -1.1469
13896SOL     OW44225   1.753   9.779   9.189  0.4456 -0.4422  0.0586
13896SOL    HW144226   1.805   9.849   9.228 -0.5113  0.8120 -0.8729
13896SOL    HW244227   1.662   9.806   9.203  0.0419 -2.0676  0.7065
13897SOL     OW44228   2.965   3.096   1.730  0.1925  0.5863  0.2072
13897SOL    HW144229   3.040   3.153   1.715 -1.2671  1.7431 -3.0538
13897SOL    HW244230   2.987   3.015   1.685 -0.6007  1.0096 -0.9486
13898SOL     OW44231   1.485   3.417   7.144  0.8105 -0.4364  0.1774
13898SOL    HW144232   1.438   3.427   7.061  1.2277  2.1751  0.2337
13898SOL    HW244233   1.529   3.501   7.157  0.7358 -0.8187  3.0478
13899SOL     OW44234   0.825   5.389   1.216  0.7144  0.1013  0.0501
13899SOL    HW144235   0.750   5.448   1.225  0.7320 -0.0965  1.7509
13899SOL    HW244236   0.797   5.308   1.259  1.0400 -0.8076 -1.4306
13900SOL     OW44237   5.688   1.400   1.973  0.2666  0.3622  0.2277
13900SOL    HW144238   5.744   1.443   2.037 -0.1082 -1.2653  1.7157
13900SOL    HW244239   5.706   1.306   1.985 -3.4431 -0.2921  1.4698
13901SOL     OW44240   4.760   8.683   1.849 -0.3550  0.1205  0.1160
13901SOL    HW144241   4.665   8.692   1.841 -0.2242  0.3253 -1.5426
13901SOL    HW244242   4.787   8.761   1.897 -1.0191  0.0557  0.6131
13902SOL     OW44243   4.990   2.282   0.185  0.0414  0.0069 -0.0122
13902SOL    HW144244   4.947   2.321   0.109 -1.3566 -1.0681  0.2237
13902SOL    HW244245   5.076   2.324   0.188 -0.8304  1.8802 -0.7218
13903SOL     OW44246   5.357   1.455   5.585 -0.6704  0.1086  0.1202
13903SOL    HW144247   5.328   1.397   5.514 -1.3084  0.3938  0.1509
13903SOL    HW244248   5.309   1.425   5.662 -0.7064  0.4278  0.2217
13904SOL     OW44249   8.670   7.824   2.216  0.3064  0.0788 -0.4001
13904SOL    HW144250   8.716   7.741   2.225  1.1221  0.6250  0.5294
13904SOL    HW244251   8.725   7.875   2.157  1.3032  1.0081  1.3023
13905SOL     OW44252   5.054   7.483   7.728 -0.5945  0.0691 -0.1075
13905SOL    HW144253   5.099   7.549   7.780 -1.6390  0.3295  0.4786
13905SOL    HW244254   4.989   7.445   7.787 -1.6886  0.2576 -1.1633
13906SOL     OW44255   1.176   6.153   0.141  0.0265 -0.1860  0.0923
13906SOL    HW144256   1.269   6.151   0.120  0.3439 -1.0920  1.5318
13906SOL    HW244257   1.139   6.080   0.093  0.6160 -1.7657  1.9641
13907SOL     OW44258   8.841   2.400   5.522  0.1599 -0.0687  0.6898
13907SOL    HW144259   8.852   2.455   5.444  1.0921 -1.3523 -0.1027
13907SOL    HW244260   8.860   2.459   5.596 -1.0861  1.2460 -0.0260
13908SOL     OW44261   5.154   0.427   7.457  0.5620 -0.0975  0.4004
13908SOL    HW144262   5.087   0.428   7.388  2.4040  1.8202 -1.4412
13908SOL    HW244263   5.112   0.468   7.532  0.2625  3.1099 -1.4061
13909SOL     OW44264   9.712   4.051   8.971  0.0079  0.1667  1.0475
13909SOL    HW144265   9.745   4.088   9.052  2.2435  2.4706 -0.8372
13909SOL    HW244266   9.637   4.106   8.948  0.5925  0.7433  0.5282
13910SOL     OW44267   4.191   6.330   8.840 -0.5774  0.3055 -0.2296
13910SOL    HW144268   4.211   6.244   8.878  0.0567  1.2397  1.5951
13910SOL    HW244269   4.128   6.311   8.770 -0.5950 -1.6208  0.2813
13911SOL     OW44270   2.830   6.787   1.112 -0.3110 -0.2986 -0.5015
13911SOL    HW144271   2.777   6.831   1.046 -0.0017 -0.2221 -0.7011
13911SOL    HW244272   2.814   6.694   1.097  0.5107 -0.3138 -1.3180
13912SOL     OW44273   2.729   1.990   0.429 -0.5053 -0.1491  0.2245
13912SOL    HW144274   2.703   1.904   0.396  1.3828 -1.0089  0.8973
13912SOL    HW244275   2.681   1.999   0.512 -0.8880 -0.4285  0.0375
13913SOL     OW44276   2.844   2.105   2.114  0.8083  0.5561 -0.0320
13913SOL    HW144277   2.840   2.184   2.061  0.1747 -0.3015 -1.2725
13913SOL    HW244278   2.936   2.078   2.111  0.5482 -0.1704 -1.7037
13914SOL     OW44279   6.321   1.646   0.236  0.1561 -0.3709  0.5921
13914SOL    HW144280   6.411   1.676   0.239  0.3663 -0.2183 -3.9400
13914SOL    HW244281   6.272   1.718   0.196 -1.2323 -1.9532 -0.6354
13915SOL     OW44282   5.683  10.134   6.753  0.4601  0.5433 -0.0892
13915SOL    HW144283   5.679  10.167   6.663  3.1873  1.0963 -0.0424
13915SOL    HW244284   5.737  10.054   6.746  0.3810  0.3933  0.9902
13916SOL     OW44285   9.887   2.678   1.176 -0.6234  0.3982 -0.1946
13916SOL    HW144286   9.917   2.686   1.086  0.1986 -1.2516 -0.0980
13916SOL    HW244287   9.957   2.629   1.220 -0.5665  1.9784  1.5732
13917SOL     OW44288   8.747   1.927   1.529  0.0239 -0.1773  0.1012
13917SOL    HW144289   8.691   1.916   1.452 -1.6474 -0.1909  1.2748
13917SOL    HW244290   8.688   1.962   1.596  2.0389  2.4094  0.6023
13918SOL     OW44291   3.318   7.375   6.219 -0.2513 -0.5184 -0.2552
13918SOL    HW144292   3.407   7.392   6.251 -0.7171 -1.3428  1.5967
13918SOL    HW244293   3.326   7.295   6.168  0.6414  1.2065 -2.9365
13919SOL     OW44294   8.779   8.679   8.814 -0.0037  0.2898  0.2247
13919SOL    HW144295   8.828   8.656   8.735  0.4275 -1.9377  1.0960
13919SOL    HW244296   8.692   8.703   8.782  0.6271  0.9597 -1.0467
13920SOL     OW44297   6.276   5.979   7.716 -0.7471 -0.0390  1.0071
13920SOL    HW144298   6.313   6.055   7.761  1.2256 -0.6911  0.5477
13920SOL    HW244299   6.282   6.001   7.623 -0.0062 -0.8353  0.8677
13921SOL     OW44300   7.150   4.264   0.284 -0.1449  0.3041 -0.1050
13921SOL    HW144301   7.234   4.232   0.317 -1.0484  1.1598  3.2225
13921SOL    HW244302   7.165   4.281   0.191  3.0172 -0.6647  0.1884
13922SOL     OW44303   2.416   9.345   9.785  0.1193  0.2819  0.1398
13922SOL    HW144304   2.439   9.419   9.840  2.3777 -0.1579 -0.1597
13922SOL    HW244305   2.331   9.368   9.747 -0.0004  1.9369  1.3742
13923SOL     OW44306   6.970   6.414   0.628 -0.5635 -0.4406 -0.3113
13923SOL    HW144307   6.987   6.401   0.721 -0.6179  0.1595 -0.2136
13923SOL    HW244308   6.875   6.406   0.619 -0.5977 -0.1347 -0.2498
13924SOL     OW44309   9.613   8.043   2.774 -0.6587 -0.3609  0.2019
13924SOL    HW144310   9.619   7.962   2.824  0.5950 -0.3398  0.1021
13924SOL    HW244311   9.695   8.047   2.724  0.0356  1.7709  1.4305
13925SOL     OW44312   0.420   8.868   6.452 -0.8996  0.1003  0.1075
13925SOL    HW144313   0.477   8.944   6.466 -0.0000 -0.5973  0.2496
13925SOL    HW244314   0.341   8.905   6.411  0.6686  0.7530 -2.4956
13926SOL     OW44315   1.629   7.050   2.105  0.2028  0.4271 -0.9456
13926SOL    HW144316   1.599   7.061   2.015  0.3846  1.2111 -0.9129
13926SOL    HW244317   1.590   7.124   2.152 -0.7175 -0.5300 -0.1726
13927SOL     OW44318   3.555   0.474   1.342 -0.3389 -0.2363 -0.2564
13927SOL    HW144319   3.595   0.528   1.411  0.0284  0.1637 -0.7796
13927SOL    HW244320   3.469   0.450   1.377 -0.1024 -0.1449  0.3974
13928SOL     OW44321   3.847   5.792   9.125 -0.3967 -0.1258 -0.0845
13928SOL    HW144322   3.841   5.712   9.179  0.3298 -0.7262 -0.8817
13928SOL    HW244323   3.824   5.763   9.037 -3.3400  1.2021  0.1858
13929SOL     OW44324   3.111   2.892   6.994  0.1433 -0.0496 -0.0287
13929SOL    HW144325   3.082   2.887   6.903  1.1205 -0.8761 -0.3099
13929SOL    HW244326   3.163   2.973   6.999  0.3398 -0.1582 -0.2879
13930SOL     OW44327  10.114   9.581   1.004 -0.0893 -0.2074  0.7960
13930SOL    HW144328  10.079   9.659   0.960 -0.4952 -0.3406  0.8797
13930SOL    HW244329  10.051   9.512   0.985 -0.4259 -0.1940  1.8291
13931SOL     OW44330   8.164   1.760   5.377 -0.0276 -0.1248  0.4580
13931SOL    HW144331   8.162   1.827   5.308 -0.0798  0.9685  1.5163
13931SOL    HW244332   8.097   1.697   5.351  1.1569 -0.6701 -1.4358
13932SOL     OW44333   1.835   1.727   3.337  0.5151  0.0268 -0.2688
13932SOL    HW144334   1.763   1.688   3.388  1.0472  0.5054  0.8722
13932SOL    HW244335   1.805   1.816   3.319  1.1677  0.5104  0.9541
13933SOL     OW44336   0.762   1.941   0.467  0.5445  0.1865 -0.0146
13933SOL    HW144337   0.675   1.973   0.492  1.2321 -0.9723  4.3042
13933SOL    HW244338   0.803   2.015   0.423 -1.1900  2.1538  1.5703
13934SOL     OW44339   0.222   8.168   2.983 -0.2255 -0.1073  0.1647
13934SOL    HW144340   0.275   8.138   2.909 -2.8188 -0.8793 -1.4352
13934SOL    HW244341   0.254   8.257   3.000 -1.6217  1.3471 -4.0068
13935SOL     OW44342   4.775   7.703   0.501  0.0157 -0.5466 -0.4893
13935SOL    HW144343   4.776   7.797   0.483  0.9183 -0.2290  1.1591
13935SOL    HW244344   4.684   7.684   0.523 -0.4779 -0.3675 -2.2305
13936SOL     OW44345  10.129   6.933   6.948 -0.4884  0.0094 -0.1079
13936SOL    HW144346  10.133   6.916   6.854 -1.4109  0.0142 -0.1555
13936SOL    HW244347  10.215   6.907   6.981 -1.1339 -2.8343 -0.5110
13937SOL     OW44348   6.718   4.450   8.312 -0.3289  0.1400 -0.2204
13937SOL    HW144349   6.678   4.507   8.377 -0.0253  0.7908 -0.5897
13937SOL    HW244350   6.807   4.484   8.302  0.6131 -1.8055  1.2070
13938SOL     OW44351   7.262   0.580   0.905  0.2020 -0.1612 -0.0367
13938SOL    HW144352   7.175   0.611   0.877  0.3594  0.4921  0.2010
13938SOL    HW244353   7.307   0.659   0.936  0.9466 -0.4693 -0.3204
13939SOL     OW44354   7.795   5.870   4.155  0.6140  0.0615 -0.0838
13939SOL    HW144355   7.780   5.964   4.140  0.8165  0.2443  0.8228
13939SOL    HW244356   7.890   5.864   4.169  0.6127 -0.2955 -0.2342
13940SOL     OW44357   7.259   6.114   0.710 -0.1025  0.0948 -0.4192
13940SOL    HW144358   7.249   6.024   0.679  0.4341 -0.2157  0.3025
13940SOL    HW244359   7.254   6.167   0.630  2.0752 -0.7662 -1.1606
13941SOL     OW44360   4.094   9.803   7.246 -0.1950  0.2730  0.1752
13941SOL    HW144361   4.049   9.767   7.322  0.9034 -0.7379  0.3603
13941SOL    HW244362   4.155   9.868   7.283 -0.3172  0.4450  0.0753
13942SOL     OW44363   1.458   4.869   5.156 -0.3466  0.2700  0.5263
13942SOL    HW144364   1.460   4.922   5.076  1.0098  0.6602  0.8098
13942SOL    HW244365   1.372   4.825   5.153 -0.6112  0.8359 -0.7717
13943SOL     OW44366   4.993   4.703   4.187 -0.8293 -0.0899 -0.3168
13943SOL    HW144367   5.066   4.671   4.135 -2.6638 -1.7894 -1.9479
13943SOL    HW244368   5.015   4.794   4.206  2.1883 -0.8636  0.1614
13944SOL     OW44369   0.517   8.454   4.662  0.2281  0.3173  0.0445
13944SOL    HW144370   0.502   8.487   4.751  0.1175  1.2371 -0.3116
13944SOL    HW244371   0.591   8.504   4.629  1.0371 -0.8629  0.0437
13945SOL     OW44372   3.590   3.466   5.993  0.0071 -0.4730 -0.1638
13945SOL    HW144373   3.498   3.443   6.001 -0.3667  0.9427 -0.2155
13945SOL    HW244374   3.630   3.430   6.073 -1.2188  1.7621  1.5260
13946SOL     OW44375   1.623   3.253   1.441  0.0820 -0.4291  0.0096
13946SOL    HW144376   1.688   3.216   1.381  0.5192 -1.3530  1.0364
13946SOL    HW244377   1.556   3.185   1.450 -0.8038  0.3385 -0.6741
13947SOL     OW44378   1.321   6.021   4.519 -0.3233 -0.4392  0.3340
13947SOL    HW144379   1.304   6.116   4.512 -0.4603 -0.5311 -0.7208
13947SOL    HW244380   1.344   6.008   4.611 -0.6732  0.5635  0.5804
13948SOL     OW44381  10.022   4.551   8.918 -1.1076  0.5111  0.6812
13948SOL    HW144382  10.075   4.601   8.980 -1.0002 -0.3350  1.2928
13948SOL    HW244383   9.993   4.614   8.853  0.2295  1.0811  0.6372
13949SOL     OW44384   2.926   8.702   7.999 -0.0607 -0.0204  0.2737
13949SOL    HW144385   2.957   8.612   8.013 -1.5813 -0.3503  1.6716
13949SOL    HW244386   2.965   8.753   8.069  1.1374  0.5101 -0.7636
13950SOL     OW44387   8.539   6.334   5.785  0.1537 -0.3817 -0.8931
13950SOL    HW144388   8.473   6.331   5.716 -1.1001  2.4138  0.1216
13950SOL    HW244389   8.591   6.412   5.765  1.4544 -1.0318 -0.1464
13951SOL     OW44390   8.939   1.256   9.642 -0.7508 -0.0214  0.2769
13951SOL    HW144391   9.029   1.245   9.671  0.5118  2.0397 -2.6284
13951SOL    HW244392   8.904   1.167   9.636  1.1005 -0.8433  1.3845
13952SOL     OW44393   8.365   1.082   5.334  0.0398 -0.2981  0.0094
13952SOL    HW144394   8.349   1.175   5.350  1.7591 -0.2907  2.0102
13952SOL    HW244395   8.316   1.037   5.402 -0.0606 -0.7927 -0.3929
13953SOL     OW44396   7.794   9.639   3.754  0.3301  0.2017 -0.4443
13953SOL    HW144397   7.724   9.702   3.734 -0.2034 -0.7704 -1.7062
13953SOL    HW244398   7.859   9.690   3.801  0.0423  1.7726 -1.7033
13954SOL     OW44399  10.149   2.380   4.003 -0.1518  0.1558 -0.8364
13954SOL    HW144400  10.090   2.347   3.935  1.5806 -0.6521 -1.9625
13954SOL    HW244401  10.237   2.363   3.970  0.7389 -0.7259  1.8591
13955SOL     OW44402   0.842   8.804   9.811 -0.2604  0.3261 -0.4973
13955SOL    HW144403   0.899   8.840   9.744 -1.6140 -0.5671 -2.1879
13955SOL    HW244404   0.793   8.735   9.766 -1.4209 -0.0890  1.3362
13956SOL     OW44405   6.034   1.091   4.239 -0.3831  0.3141 -0.2152
13956SOL    HW144406   6.052   0.999   4.217  0.1651  0.6484 -1.1946
13956SOL    HW244407   5.939   1.094   4.253 -0.1320 -0.8115  1.8356
13957SOL     OW44408   6.594   5.082   5.338  1.0523  0.0055 -0.5537
13957SOL    HW144409   6.576   5.176   5.333 -1.1143 -0.3882 -0.4425
13957SOL    HW244410   6.689   5.075   5.327  1.2105  2.1927 -0.6893
13958SOL     OW44411   5.624   2.048   2.373  1.1710 -0.1381 -0.3909
13958SOL    HW144412   5.564   2.114   2.409 -0.2172 -1.0681 -0.9777
13958SOL    HW244413   5.701   2.098   2.348  0.3744  1.1890 -0.2539
13959SOL     OW44414   9.517   6.003  10.091 -0.1018  0.3777 -0.3171
13959SOL    HW144415   9.602   5.992  10.047 -0.2431  1.4374 -0.8706
13959SOL    HW244416   9.523   6.089  10.132 -0.5600  0.0476  0.4301
13960SOL     OW44417   6.439   5.970   4.460 -0.1462 -0.7672 -0.2497
13960SOL    HW144418   6.479   5.913   4.394 -0.4173 -2.6300  1.1537
13960SOL    HW244419   6.514   6.008   4.507  0.0311 -0.5900 -0.6771
13961SOL     OW44420   1.955   5.941   1.623 -0.2834  0.2299 -0.5357
13961SOL    HW144421   1.988   5.976   1.707  0.1451 -0.2002 -0.5245
13961SOL    HW244422   1.918   5.856   1.646 -2.1930  1.0759 -0.4013
13962SOL     OW44423   7.200   0.730   5.029  0.0124  0.7038 -0.6397
13962SOL    HW144424   7.225   0.662   5.092 -0.7091 -0.0165 -1.1303
13962SOL    HW244425   7.186   0.808   5.083  1.9905  0.7831 -0.2010
13963SOL     OW44426  10.086   2.822   9.117  0.1522  0.0786 -0.3583
13963SOL    HW144427  10.169   2.870   9.108 -0.4155  1.6380  2.2088
13963SOL    HW244428  10.021   2.877   9.073 -0.2307  0.9810  1.2833
13964SOL     OW44429   8.480   2.950   1.523  0.1818 -0.2678 -0.1481
13964SOL    HW144430   8.437   3.033   1.501  1.8007 -0.0427 -2.7648
13964SOL    HW244431   8.553   2.975   1.579 -0.0031 -0.0623  0.0015
13965SOL     OW44432   6.347   2.091   9.261  0.1857 -0.8348  0.7405
13965SOL    HW144433   6.318   2.144   9.335 -0.4154 -1.0667  0.6771
13965SOL    HW244434   6.440   2.076   9.276 -0.3306 -2.5125  2.4674
13966SOL     OW44435   6.758   9.668   0.001 -0.1054 -0.5922 -0.3711
13966SOL    HW144436   6.771   9.603  -0.068 -1.1496  0.0729 -1.2091
13966SOL    HW244437   6.823   9.645   0.068 -0.1047 -2.1620 -0.8867
13967SOL     OW44438   9.077   9.486   8.831  0.1546 -0.2862  0.4643
13967SOL    HW144439   9.046   9.555   8.889 -0.8544 -1.0874  0.8828
13967SOL    HW244440   9.050   9.514   8.743 -0.4392 -0.2462  0.6565
13968SOL     OW44441   5.680   8.079   7.231  0.5227 -0.2589  0.5307
13968SOL    HW144442   5.717   8.000   7.270  0.4707 -0.7000 -0.2938
13968SOL    HW244443   5.748   8.110   7.170 -0.6305 -1.3557 -1.3758
13969SOL     OW44444   1.765   7.110   5.360 -0.1433  0.2418 -0.2663
13969SOL    HW144445   1.829   7.102   5.289  1.5611  0.3660  1.2458
13969SOL    HW244446   1.776   7.199   5.393 -1.7083  0.5594 -0.5371
13970SOL     OW44447   2.612   1.251   0.162  0.0649 -0.0721 -0.5656
13970SOL    HW144448   2.545   1.190   0.130 -0.1561 -0.3422  0.3774
13970SOL    HW244449   2.678   1.253   0.093  0.1532 -1.5013 -0.5351
13971SOL     OW44450   2.075   6.851   1.452 -0.2467 -0.5191  0.6251
13971SOL    HW144451   2.070   6.933   1.403  1.9994 -0.8795 -0.2490
13971SOL    HW244452   1.990   6.810   1.440 -0.2001  0.0583 -1.7982
13972SOL     OW44453   2.072   9.005   5.867 -0.2545  0.1303  0.7158
13972SOL    HW144454   2.057   9.020   5.960 -2.0000  2.5777  0.0733
13972SOL    HW244455   1.992   8.963   5.836  0.8356 -1.9182  0.5202
13973SOL     OW44456   8.886   2.494   0.847  0.3382  0.4543 -0.0181
13973SOL    HW144457   8.830   2.429   0.890  0.5658 -0.8653 -1.6688
13973SOL    HW244458   8.927   2.541   0.919 -1.5916  0.3033  1.2216
13974SOL     OW44459   1.201   7.844   7.011  0.4004  0.0818 -0.3592
13974SOL    HW144460   1.192   7.921   6.954 -1.3594 -0.1018 -0.3499
13974SOL    HW244461   1.277   7.864   7.065  1.2620  0.8739 -1.8179
13975SOL     OW44462   4.927   1.807   9.677 -0.3602  0.4627  0.0134
13975SOL    HW144463   4.960   1.730   9.632  0.3337  1.1311 -0.6252
13975SOL    HW244464   4.832   1.802   9.668 -0.2638  0.1560 -0.7917
13976SOL     OW44465   0.594   4.224   4.247  0.2043  0.2593 -0.0474
13976SOL    HW144466   0.518   4.255   4.295  0.1397 -0.5545  0.3892
13976SOL    HW244467   0.647   4.302   4.231 -1.3612  1.0493 -1.5213
13977SOL     OW44468   9.972   0.145   3.620  0.1875  0.1433  0.1420
13977SOL    HW144469  10.027   0.141   3.542  1.0334 -0.9884  0.7806
13977SOL    HW244470   9.901   0.082   3.602  1.7997 -2.0795  1.3321
13978SOL     OW44471   8.798   9.470   8.024 -0.2960  0.5155 -0.5004
13978SOL    HW144472   8.745   9.391   8.031 -0.0170  0.3914  0.2705
13978SOL    HW244473   8.741   9.533   7.980 -1.7464  0.9715  1.9527
13979SOL     OW44474   4.305   0.257   8.599 -0.1431  0.4329 -0.1577
13979SOL    HW144475   4.271   0.173   8.568 -1.5980  1.5774 -1.7384
13979SOL    HW244476   4.288   0.318   8.528  2.1667  1.8025  0.3866
13980SOL     OW44477   9.350   3.870   5.491 -0.5146  0.6057  0.3583
13980SOL    HW144478   9.367   3.915   5.574 -0.7697 -0.3708  0.9574
13980SOL    HW244479   9.387   3.782   5.505  0.6797  0.8655 -1.0616
13981SOL     OW44480   1.952   2.473   2.289  0.6338 -0.8361 -0.2096
13981SOL    HW144481   1.912   2.434   2.366  2.1802 -1.6941  0.1729
13981SOL    HW244482   1.996   2.551   2.321 -0.8351  0.1929 -0.6553
13982SOL     OW44483   7.607   4.586   1.933  0.2410  0.2263  0.1595
13982SOL    HW144484   7.677   4.581   1.868  1.0974  0.2813  1.0696
13982SOL    HW244485   7.639   4.648   1.999 -0.5306  0.0162  0.7401
13983SOL     OW44486   4.376   6.449   3.798  0.1845 -0.1339  0.1774
13983SOL    HW144487   4.328   6.367   3.788  1.0887 -0.5353 -0.8854
13983SOL    HW244488   4.462   6.433   3.760 -0.3003  1.9085 -1.9056
13984SOL     OW44489   1.623   1.217   2.226  0.1703  0.4470 -0.2776
13984SOL    HW144490   1.545   1.267   2.203 -0.4329 -0.5731 -0.4513
13984SOL    HW244491   1.647   1.171   2.146 -0.2640 -0.8715  0.3400
13985SOL     OW44492   7.443   2.968   0.638 -0.1498  0.0991 -0.0922
13985SOL    HW144493   7.384   2.982   0.564  1.1036 -0.9712 -1.3128
13985SOL    HW244494   7.412   2.887   0.678 -0.0558  0.0110 -0.1982
13986SOL     OW44495   9.525   1.682   0.368 -0.2261  0.0347 -0.2183
13986SOL    HW144496   9.608   1.713   0.403 -1.4419  2.8486  0.2756
13986SOL    HW244497   9.508   1.601   0.417  2.4216 -0.8436 -0.6667
13987SOL     OW44498   7.315   7.846   8.433  0.1757 -0.1819  0.1427
13987SOL    HW144499   7.227   7.883   8.429  0.7811  1.1044 -2.6037
13987SOL    HW244500   7.310   7.766   8.380  1.0219  0.8037 -1.4838
13988SOL     OW44501   6.607   7.350   5.699  0.1557 -0.4142  0.0179
13988SOL    HW144502   6.617   7.413   5.628  0.2052 -0.8177 -0.3355
13988SOL    HW244503   6.514   7.354   5.723  0.1010 -0.4093 -0.1956
13989SOL     OW44504   5.933   1.536   9.515  0.0117  0.6698  0.0550
13989SOL    HW144505   5.923   1.492   9.431  0.4529 -1.2729  0.9905
13989SOL    HW244506   6.027   1.535   9.531 -0.2160 -0.6033  1.4027
13990SOL     OW44507   7.076   8.258   6.489  0.7103  0.2417 -0.1469
13990SOL    HW144508   7.111   8.256   6.578  0.7821 -0.4462 -0.1906
13990SOL    HW244509   7.145   8.299   6.437  0.6411  0.7045  0.1271
13991SOL     OW44510   8.755   0.304   3.633  0.3730 -0.8451  0.0707
13991SOL    HW144511   8.668   0.305   3.594  0.8479 -1.5987 -1.0590
13991SOL    HW244512   8.745   0.252   3.712 -0.1046 -1.3505 -0.3158
13992SOL     OW44513   8.746   4.860   5.032 -0.1267 -1.2110 -0.1289
13992SOL    HW144514   8.712   4.770   5.037 -0.0160 -1.1916  1.1283
13992SOL    HW244515   8.726   4.898   5.117  1.5286 -0.6458  0.0256
13993SOL     OW44516   6.994   5.283   4.467 -0.3110 -0.8489 -0.2331
13993SOL    HW144517   7.052   5.345   4.423  1.6819 -2.2191  0.3340
13993SOL    HW244518   6.992   5.312   4.558  0.4076 -1.4240 -0.0233
13994SOL     OW44519   6.039   4.682   2.312  0.1294 -0.4893  0.4471
13994SOL    HW144520   5.966   4.625   2.335  0.2506 -0.7327  0.2326
13994SOL    HW244521   6.017   4.714   2.224  1.7519 -2.9862 -0.9163
13995SOL     OW44522   1.704   5.432   5.687 -0.0116 -0.1780  0.7534
13995SOL    HW144523   1.688   5.364   5.622 -1.1706  0.7269  0.0800
13995SOL    HW244524   1.796   5.456   5.674 -0.3320  0.2689 -0.8266
13996SOL     OW44525   5.366   5.540   6.749  0.0066 -0.3893 -0.4577
13996SOL    HW144526   5.453   5.577   6.734  0.1671 -0.6138 -0.0667
13996SOL    HW244527   5.320   5.608   6.799  0.3673 -0.8022  0.4339
13997SOL     OW44528   5.100   5.124   1.659  0.2470  0.1779  0.2364
13997SOL    HW144529   5.015   5.147   1.622  1.7055  3.0654 -1.5617
13997SOL    HW244530   5.084   5.116   1.753 -1.7323  2.2372  0.1242
13998SOL     OW44531   9.168   6.018   7.060  0.4327 -0.0380  0.2316
13998SOL    HW144532   9.173   6.053   7.149  2.1064  0.9581 -0.2283
13998SOL    HW244533   9.254   6.035   7.023 -0.3040 -0.2719 -1.6477
13999SOL     OW44534   9.116   0.759   5.126 -0.2070  0.3700  0.3261
13999SOL    HW144535   9.023   0.737   5.118 -0.2420  0.0056  1.6796
13999SOL    HW244536   9.118   0.837   5.181  0.2418  0.8902 -0.4117
14000SOL     OW44537   7.455   0.365   9.861 -0.6729 -0.2501 -0.5123
14000SOL    HW144538   7.530   0.319   9.898 -0.9867 -1.1277 -0.9553
14000SOL    HW244539   7.408   0.399   9.937 -0.5999 -0.9296 -0.1582
14001SOL     OW44540   7.128   7.771   6.749 -0.0336  0.2484 -0.3134
14001SOL    HW144541   7.173   7.766   6.665 -1.1957 -3.4232 -0.8371
14001SOL    HW244542   7.195   7.747   6.813  0.6684  2.3622 -0.2090
14002SOL     OW44543   1.402   3.522   9.156  0.6049  0.3050 -0.6572
14002SOL    HW144544   1.370   3.444   9.201  0.2453 -0.8862 -2.9088
14002SOL    HW244545   1.407   3.589   9.224 -1.9112 -0.8635  0.7210
14003SOL     OW44546   5.774   5.477   2.809  0.0976 -0.4810  0.2257
14003SOL    HW144547   5.722   5.538   2.758  1.7334  0.6371 -0.1244
14003SOL    HW244548   5.724   5.465   2.890 -1.2583 -0.3188 -0.5708
14004SOL     OW44549   9.542   4.038   6.077  0.0042  0.1733  0.0235
14004SOL    HW144550   9.637   4.027   6.074 -0.0261 -0.9858  2.4180
14004SOL    HW244551   9.510   3.959   6.122 -2.0873  0.5744 -0.7109
14005SOL     OW44552   7.611   1.565   2.318  0.0108  0.2989  0.5726
14005SOL    HW144553   7.639   1.530   2.233 -0.5855  1.0316  0.0571
14005SOL    HW244554   7.687   1.614   2.350  0.5950 -0.8546  0.9601
14006SOL     OW44555   4.486   4.502   5.456 -0.3364 -0.5267  0.1463
14006SOL    HW144556   4.503   4.596   5.456 -2.7487 -0.0438 -1.3358
14006SOL    HW244557   4.566   4.463   5.420  1.2513  0.7990  2.1336
14007SOL     OW44558   9.493   6.323   4.360 -0.2122  0.2231 -0.2417
14007SOL    HW144559   9.470   6.352   4.448 -0.1441  1.2358 -0.5532
14007SOL    HW244560   9.513   6.230   4.370 -2.1336 -0.1470  0.4644
14008SOL     OW44561   0.097   7.917   0.412  0.3321  0.3792  0.1331
14008SOL    HW144562   0.135   7.978   0.348  0.3703 -0.9388 -1.1149
14008SOL    HW244563   0.138   7.833   0.392 -1.9522 -0.7016 -0.0988
14009SOL     OW44564   0.719   4.755   0.727  0.1655  0.4742 -0.0349
14009SOL    HW144565   0.741   4.666   0.755  0.4586  0.1080 -1.3899
14009SOL    HW244566   0.624   4.756   0.724  0.1564  0.2611  0.1786
14010SOL     OW44567   2.309   1.969  10.118 -0.7611 -0.2542 -0.9631
14010SOL    HW144568   2.363   2.024  10.175 -1.0315  0.5244 -1.4557
14010SOL    HW244569   2.220   1.979  10.152 -1.1660  1.4393 -2.4580
14011SOL     OW44570   2.315   2.551   9.239  0.4678  0.2925 -0.3558
14011SOL    HW144571   2.376   2.609   9.286  0.9084  0.4362 -1.1035
14011SOL    HW244572   2.239   2.544   9.297  0.9320  0.6211  0.2988
14012SOL     OW44573   1.263   1.475   2.697  0.3915 -0.6074  0.2663
14012SOL    HW144574   1.223   1.388   2.701 -0.4786 -0.1603  2.1579
14012SOL    HW244575   1.357   1.459   2.698  0.2363 -1.5301  1.2955
14013SOL     OW44576   5.234   3.104   2.417  0.1490  0.2299  0.7054
14013SOL    HW144577   5.219   3.031   2.477  1.4050  0.7671  1.7052
14013SOL    HW244578   5.151   3.114   2.370 -1.7081  1.3426  4.0653
14014SOL     OW44579   0.151   6.238   9.097 -0.1354 -0.4986 -0.2837
14014SOL    HW144580   0.240   6.272   9.097 -0.3807  0.1588 -1.1676
14014SOL    HW244581   0.156   6.157   9.046 -0.3414  0.3501 -1.6587
14015SOL     OW44582   2.234   7.903   8.173 -0.1864  0.6274 -0.2697
14015SOL    HW144583   2.168   7.946   8.226  1.1751  1.1625  1.0113
14015SOL    HW244584   2.198   7.815   8.155 -1.9470  1.4697 -0.9807
14016SOL     OW44585   4.334   0.797   7.151  0.1571  0.5969  0.4862
14016SOL    HW144586   4.427   0.795   7.132  0.6988  1.4433  2.9112
14016SOL    HW244587   4.300   0.871   7.100  0.3239 -1.1366 -2.2568
14017SOL     OW44588   3.828   2.132   1.307  0.2214 -0.4930  0.3124
14017SOL    HW144589   3.828   2.183   1.388  1.4428 -0.5049  0.3332
14017SOL    HW244590   3.915   2.148   1.270  0.6032 -2.5201  0.2980
14018SOL     OW44591   9.342   7.961   6.753 -0.8720 -0.3473 -0.2138
14018SOL    HW144592   9.378   7.921   6.673 -0.7235  0.1317 -0.3906
14018SOL    HW244593   9.340   8.054   6.733 -0.6369 -0.2083  0.4271
14019SOL     OW44594   7.545   5.715   6.295 -0.0186  0.4778  0.3127
14019SOL    HW144595   7.581   5.702   6.208  0.3243  0.8731  0.3962
14019SOL    HW244596   7.503   5.632   6.316 -0.2526  0.4385 -0.2974
14020SOL     OW44597   4.798   1.165   7.828  0.3427 -0.3804  0.2297
14020SOL    HW144598   4.867   1.225   7.856 -0.2273  0.9210 -1.1216
14020SOL    HW244599   4.835   1.120   7.752  0.6509 -1.5381  1.0527
14021SOL     OW44600   1.698   9.550   1.648 -0.0390 -1.1546  0.5831
14021SOL    HW144601   1.709   9.645   1.661 -0.4357 -1.3560  2.5639
14021SOL    HW244602   1.687   9.540   1.554  0.1257  0.7691  0.3388
14022SOL     OW44603   5.390   7.777   4.632 -0.1515 -0.5293 -0.2623
14022SOL    HW144604   5.432   7.707   4.581 -1.2669 -0.4459 -1.3156
14022SOL    HW244605   5.312   7.737   4.669 -1.0172  0.2703 -1.2112
14023SOL     OW44606   9.966   4.071   3.249 -0.4541 -0.8134 -0.4245
14023SOL    HW144607  10.031   4.141   3.245 -1.3983  0.1490  0.7281
14023SOL    HW244608   9.979   4.030   3.335 -0.5863 -1.3861 -0.6706
14024SOL     OW44609   8.411   5.985   6.717 -0.0366  0.1640  0.1066
14024SOL    HW144610   8.486   5.937   6.751 -0.4655 -1.0365 -0.6150
14024SOL    HW244611   8.404   5.958   6.626 -0.7455  1.0308 -0.1096
14025SOL     OW44612   6.634   8.539   8.530 -0.5087  0.3858 -0.3374
14025SOL    HW144613   6.644   8.610   8.467 -0.1578  0.3187 -0.3611
14025SOL    HW244614   6.554   8.560   8.578 -0.7672  0.4479 -0.7926
14026SOL     OW44615   1.706   7.501   0.535  0.0544 -0.0638  0.0394
14026SOL    HW144616   1.691   7.560   0.461 -0.6151 -0.4918 -0.1711
14026SOL    HW244617   1.673   7.416   0.505 -0.1932 -0.2441  0.8179
14027SOL     OW44618   6.953   9.475   8.541  0.4927 -0.2529  0.7359
14027SOL    HW144619   7.034   9.517   8.570  1.0874 -1.2737  0.5444
14027SOL    HW244620   6.930   9.519   8.459  1.3792 -0.6282  0.2834
14028SOL     OW44621   6.269   2.319   8.721  0.4363 -0.6968 -0.0894
14028SOL    HW144622   6.263   2.261   8.645 -0.0178  0.3701 -0.8804
14028SOL    HW244623   6.270   2.261   8.796  0.6943 -1.7603 -0.9102
14029SOL     OW44624   5.695   9.332   1.516  0.4909  0.4405 -0.3720
14029SOL    HW144625   5.645   9.411   1.539  0.1222  0.0784  0.0672
14029SOL    HW244626   5.667   9.311   1.427  1.6053  1.5974 -1.0320
14030SOL     OW44627   9.798   1.059   9.843 -0.2398 -0.2203  0.2166
14030SOL    HW144628   9.826   1.124   9.778 -1.0765 -0.0996 -0.0247
14030SOL    HW244629   9.869   0.995   9.844  0.4213  0.5003  0.1863
14031SOL     OW44630   0.678   3.336   1.657  0.3721  0.0385  0.3829
14031SOL    HW144631   0.596   3.289   1.672  0.7120 -1.7173 -2.8008
14031SOL    HW244632   0.651   3.426   1.641 -1.0253 -0.6890 -1.4539
14032SOL     OW44633   4.836   7.848   7.007  0.2887  0.4601 -0.1103
14032SOL    HW144634   4.895   7.810   6.943  0.8354  0.5675  0.3280
14032SOL    HW244635   4.749   7.823   6.977  0.5564  0.2539 -0.7258
14033SOL     OW44636   1.391   3.753   8.060  0.3349  0.2196  0.1102
14033SOL    HW144637   1.396   3.832   8.005 -3.4743  0.8449  0.5163
14033SOL    HW244638   1.348   3.688   8.005 -0.7127 -0.1009  1.2721
14034SOL     OW44639   2.584   5.113   8.979 -0.3116  0.1589 -0.0051
14034SOL    HW144640   2.580   5.034   9.032 -1.5862  0.3750  0.2336
14034SOL    HW244641   2.576   5.082   8.889  2.7843 -0.2987 -0.1924
14035SOL     OW44642   9.761   6.142   0.027 -0.0297  0.4630  0.4590
14035SOL    HW144643   9.750   6.237   0.039  3.4228  0.7448  1.8481
14035SOL    HW244644   9.793   6.133  -0.062  0.2689  0.6492  0.5466
14036SOL     OW44645   2.921   5.833   9.453 -0.2786 -0.1761 -0.0657
14036SOL    HW144646   3.006   5.836   9.495 -0.2522 -0.7800 -0.0747
14036SOL    HW244647   2.940   5.818   9.360 -0.4356 -1.7623  0.1400
14037SOL     OW44648   4.287   2.822   3.434 -0.1143  0.9755 -0.1108
14037SOL    HW144649   4.377   2.806   3.404 -1.0692 -0.2309 -2.4468
14037SOL    HW244650   4.270   2.913   3.411 -0.6146  0.2420 -2.8089
14038SOL     OW44651   3.420   5.140   6.797 -0.0653 -0.0884  0.2091
14038SOL    HW144652   3.405   5.154   6.890  0.3840  1.3878  0.0773
14038SOL    HW244653   3.450   5.226   6.765  0.5353 -0.7893 -1.1260
14039SOL     OW44654   1.963   0.934   6.463  0.0788 -0.3588  0.1861
14039SOL    HW144655   1.872   0.952   6.487 -0.4823 -2.0220 -0.5694
14039SOL    HW244656   1.976   0.980   6.380  0.3750  1.0448  1.0048
14040SOL     OW44657   7.490   2.519   4.220  1.0990  0.5269  0.4106
14040SOL    HW144658   7.443   2.602   4.228 -1.0145 -0.4185 -1.8180
14040SOL    HW244659   7.548   2.532   4.145  2.6022  0.7906  1.5772
14041SOL     OW44660   9.973   1.763   1.725 -0.0240 -0.2309  0.2219
14041SOL    HW144661   9.993   1.716   1.644  0.6682  1.6597 -0.7354
14041SOL    HW244662  10.055   1.758   1.776 -0.1620 -0.6137  0.4092
14042SOL     OW44663   0.171   5.054   6.617  0.1706  0.9099 -0.0621
14042SOL    HW144664   0.243   5.037   6.557  0.7171  0.7477  0.6434
14042SOL    HW244665   0.150   5.147   6.603 -0.0386  0.7443 -0.8635
14043SOL     OW44666   4.530   4.336   6.048 -0.1124 -0.0501  0.0470
14043SOL    HW144667   4.516   4.351   5.954  0.3403 -0.7991 -0.1515
14043SOL    HW244668   4.443   4.315   6.082 -0.6308  2.2133  0.1984
14044SOL     OW44669   0.717   4.821   3.718 -0.2217 -0.2410 -0.4569
14044SOL    HW144670   0.727   4.725   3.724  0.5370 -0.1183  0.3946
14044SOL    HW244671   0.806   4.854   3.713 -0.5247  0.3410 -2.5576
14045SOL     OW44672   5.785   7.431   1.496  0.3922  0.0309 -0.7284
14045SOL    HW144673   5.835   7.441   1.415  0.8816  0.0523 -0.4208
14045SOL    HW244674   5.826   7.490   1.558 -1.1660  1.4462 -1.0036
14046SOL     OW44675   7.617  10.123   5.741 -0.4238 -0.2218  0.1005
14046SOL    HW144676   7.532  10.168   5.741 -1.1354 -1.5246  0.7794
14046SOL    HW244677   7.624  10.085   5.828  1.0150  0.1303  0.1492
14047SOL     OW44678   6.537   9.743  10.042  0.3357 -0.1096  0.4571
14047SOL    HW144679   6.574   9.677  10.101 -0.3021 -0.9265 -0.0373
14047SOL    HW244680   6.612   9.781   9.997  0.7000 -0.5933  0.6538
14048SOL     OW44681   8.154   4.301   2.778  0.6235 -0.2697 -0.5148
14048SOL    HW144682   8.088   4.370   2.781  1.8528  0.8705  1.2708
14048SOL    HW244683   8.177   4.293   2.686  0.7214  1.9714 -0.7107
14049SOL     OW44684   5.395   6.193   7.628 -0.6257  0.1585  0.4466
14049SOL    HW144685   5.377   6.229   7.541  1.1414  0.8738  0.3403
14049SOL    HW244686   5.317   6.214   7.680 -1.9301 -0.7921 -1.1101
14050SOL     OW44687   5.436   0.420   1.062 -0.3953  0.1090 -0.6569
14050SOL    HW144688   5.421   0.413   0.968  1.0439  0.2239 -0.9006
14050SOL    HW244689   5.399   0.339   1.098 -1.3853  0.2851 -1.2540
14051SOL     OW44690   5.678  10.187   5.610  0.1041  0.3795  0.2384
14051SOL    HW144691   5.768  10.163   5.631 -0.7271 -1.6226  1.6830
14051SOL    HW244692   5.669  10.168   5.516  0.2153 -2.7910  0.8065
14052SOL     OW44693   8.427   1.091   6.644 -0.0241 -0.1460 -0.0767
14052SOL    HW144694   8.439   1.099   6.738 -2.9464  1.1139  0.2475
14052SOL    HW244695   8.334   1.108   6.630 -0.0505 -2.2295 -3.0008
14053SOL     OW44696   8.985   6.761   7.233  0.0586  0.0538 -0.4640
14053SOL    HW144697   9.061   6.769   7.176 -1.0320  0.8566 -1.8306
14053SOL    HW244698   8.959   6.851   7.252  0.4471 -0.1976  1.3817
14054SOL     OW44699   0.891   5.195   0.353  0.0510 -0.2718  0.3058
14054SOL    HW144700   0.933   5.145   0.283 -2.5181 -0.0084 -1.5334
14054SOL    HW244701   0.816   5.237   0.310 -0.4248  1.5393  2.8003
14055SOL     OW44702   7.702   2.650   0.262 -0.0312 -0.2233  0.9057
14055SOL    HW144703   7.716   2.718   0.196 -4.1169 -0.0741  0.0763
14055SOL    HW244704   7.707   2.568   0.215 -2.7429 -0.1241  0.3429
14056SOL     OW44705   7.375   3.846   4.181  0.1294 -0.3118  0.0251
14056SOL    HW144706   7.356   3.936   4.206  1.7919  0.2461 -0.7048
14056SOL    HW244707   7.296   3.798   4.206 -1.9425  1.8080 -2.1654
14057SOL     OW44708   0.515   7.640   2.165 -0.2850  0.5773  0.1450
14057SOL    HW144709   0.598   7.614   2.124 -0.6066 -0.8524  0.3815
14057SOL    HW244710   0.454   7.649   2.091  0.3782  2.8919 -0.1629
14058SOL     OW44711   9.499   6.074   7.540  0.2494  0.1507 -0.8326
14058SOL    HW144712   9.486   6.150   7.597  2.6227 -0.1417  0.1457
14058SOL    HW244713   9.479   5.999   7.595 -1.6848  0.0150 -1.6778
14059SOL     OW44714   0.383   0.812   4.545  0.4348  0.0959 -0.3493
14059SOL    HW144715   0.436   0.830   4.467  0.4769 -0.8553 -0.5478
14059SOL    HW244716   0.294   0.801   4.511  0.6312 -1.4285 -0.4191
14060SOL     OW44717   6.045   5.948   5.845  0.2113 -0.0773  0.6377
14060SOL    HW144718   5.978   6.014   5.831  0.7013  0.3451  0.2840
14060SOL    HW244719   6.008   5.868   5.809 -0.2793  0.0636  0.8359
14061SOL     OW44720   9.270   7.808   7.556  0.2805 -0.1008 -0.6024
14061SOL    HW144721   9.211   7.884   7.557  1.1956  0.6274 -0.6043
14061SOL    HW244722   9.243   7.757   7.480  0.0300  0.5371 -0.9459
14062SOL     OW44723   5.347   4.103   4.285  0.4882 -0.2929 -0.2093
14062SOL    HW144724   5.338   4.195   4.311 -1.0618 -0.2085 -1.0083
14062SOL    HW244725   5.431   4.076   4.322  1.8449  1.9669 -1.5279
14063SOL     OW44726   0.109   6.511   8.097 -0.2020 -0.1170  0.4577
14063SOL    HW144727   0.094   6.591   8.046  0.5500 -0.4878 -0.3636
14063SOL    HW244728   0.026   6.462   8.090  0.3382 -0.8073 -1.6051
14064SOL     OW44729   0.958   1.452   4.537  0.1430 -0.0232 -0.3296
14064SOL    HW144730   0.946   1.545   4.557 -3.7829 -0.3959 -0.6349
14064SOL    HW244731   0.954   1.448   4.441  1.5198 -0.3889 -0.3818
14065SOL     OW44732   3.229   0.165   8.077  0.8504 -0.0562  0.2216
14065SOL    HW144733   3.316   0.163   8.116  1.4389 -0.1804 -1.0769
14065SOL    HW244734   3.228   0.245   8.023  0.7955 -0.9711 -1.1711
14066SOL     OW44735   8.362   6.642   2.066  0.3915  0.6922  0.5920
14066SOL    HW144736   8.332   6.701   2.135 -0.1085  1.3735 -0.1959
14066SOL    HW244737   8.283   6.600   2.034  0.7950 -0.7613  1.4486
14067SOL     OW44738   4.720   7.686   6.142 -0.4614 -0.6651 -0.0973
14067SOL    HW144739   4.666   7.617   6.105 -0.3637 -1.5862  1.4248
14067SOL    HW244740   4.659   7.758   6.161 -0.5483 -0.2940 -1.7569
14068SOL     OW44741   3.140   0.705   0.754 -0.1834 -0.3020 -0.0276
14068SOL    HW144742   3.052   0.697   0.790 -0.1259  1.5500  0.5806
14068SOL    HW244743   3.197   0.712   0.831  0.4504 -1.0534 -0.4235
14069SOL     OW44744   9.257   6.574   8.439  0.0631 -1.3253  0.6150
14069SOL    HW144745   9.244   6.662   8.473 -0.3645 -0.8860 -0.6535
14069SOL    HW244746   9.208   6.518   8.499 -2.4669 -0.3390 -0.4658
14070SOL     OW44747   9.190   1.766   5.845  0.1996  0.4554 -0.1983
14070SOL    HW144748   9.237   1.847   5.826  0.5728  0.4474  0.7116
14070SOL    HW244749   9.140   1.749   5.765  0.9468  1.0092 -0.7914
14071SOL     OW44750   8.245   4.461   4.551  0.0245  0.1992 -0.8563
14071SOL    HW144751   8.257   4.401   4.478  0.3816  0.2797 -0.8657
14071SOL    HW244752   8.217   4.543   4.511 -2.4412 -0.5266 -0.6850
14072SOL     OW44753   0.376   9.203   1.768 -0.4427  0.5900  0.3824
14072SOL    HW144754   0.330   9.125   1.801 -1.1839  1.1792  0.7592
14072SOL    HW244755   0.316   9.239   1.703  0.7389 -0.2149 -1.1694
14073SOL     OW44756   1.726   0.047   3.822  0.2722 -0.2331 -0.4472
14073SOL    HW144757   1.678   0.093   3.891  0.8241  1.3076 -1.0792
14073SOL    HW244758   1.658   0.014   3.763 -0.1610 -0.8870  0.4004
14074SOL     OW44759   7.300   2.544   6.874 -0.1825  0.4184  0.3979
14074SOL    HW144760   7.363   2.527   6.804  0.3574 -0.7282  1.1533
14074SOL    HW244761   7.339   2.614   6.925  0.3397 -0.0970  0.7005
14075SOL     OW44762   3.230  10.057   9.846  0.2799  0.7796  0.0955
14075SOL    HW144763   3.256   9.978   9.798  2.5548  0.7223  1.3530
14075SOL    HW244764   3.296  10.122   9.823 -0.0911  1.5329  1.1273
14076SOL     OW44765   2.146   3.420   2.451 -0.3690 -0.4998 -0.6143
14076SOL    HW144766   2.176   3.448   2.538 -0.4064 -0.2870 -0.6681
14076SOL    HW244767   2.130   3.326   2.460 -2.9125 -0.0096  0.3454
14077SOL     OW44768   2.864   6.819   6.529 -0.2938  0.5029  0.4204
14077SOL    HW144769   2.813   6.773   6.596  0.1664  0.2094  0.5779
14077SOL    HW244770   2.944   6.846   6.574  0.4521 -0.5368 -0.2387
14078SOL     OW44771   9.147   2.035   5.087 -0.1713  0.4335  0.1615
14078SOL    HW144772   9.078   2.021   5.152 -1.6406  2.4157 -0.9416
14078SOL    HW244773   9.144   1.956   5.032 -0.3906 -0.2524  1.1335
14079SOL     OW44774   9.374   0.440   6.071  0.3241  0.0218  0.1881
14079SOL    HW144775   9.444   0.451   6.007  1.6521 -0.1065  1.6028
14079SOL    HW244776   9.409   0.380   6.136 -1.3811 -0.6466  0.5257
14080SOL     OW44777   6.217   3.924   4.052 -0.0308  0.3411 -0.0944
14080SOL    HW144778   6.181   3.899   3.967 -0.3735  0.1494  0.1052
14080SOL    HW244779   6.153   3.891   4.115  1.2404 -1.3670  0.3534
14081SOL     OW44780   2.731   8.867   5.526  0.1350 -0.0753  0.4222
14081SOL    HW144781   2.732   8.873   5.621 -3.5233  1.0021  0.4492
14081SOL    HW244782   2.819   8.893   5.500  1.0506  0.0650  3.4666
14082SOL     OW44783   4.078   3.989   7.744 -0.3722 -0.5573  0.4290
14082SOL    HW144784   4.147   3.997   7.678  0.6191 -1.2225  1.3924
14082SOL    HW244785   4.054   3.897   7.742 -0.7868 -0.4519  0.5634
14083SOL     OW44786   2.770   0.293   4.772 -0.2753  0.2632 -0.0582
14083SOL    HW144787   2.677   0.270   4.782 -0.4164 -0.8516 -3.3091
14083SOL    HW244788   2.816   0.209   4.782  0.4681  0.9305  2.2937
14084SOL     OW44789   5.382   6.936   8.725 -0.2740 -0.0529 -0.5937
14084SOL    HW144790   5.392   7.029   8.743  2.4521 -0.4996  0.6229
14084SOL    HW244791   5.320   6.905   8.790 -1.7881  1.0357 -1.5017
14085SOL     OW44792   2.259   5.719   1.387  0.0722 -0.2445  0.4094
14085SOL    HW144793   2.206   5.799   1.391  0.2150 -0.0410 -1.5264
14085SOL    HW244794   2.315   5.731   1.310 -0.0254 -2.2851  0.0009
14086SOL     OW44795   8.902   4.871   4.595  0.0908 -0.1557  0.7194
14086SOL    HW144796   8.954   4.835   4.667  0.6487  0.9904  0.9088
14086SOL    HW244797   8.960   4.869   4.520 -0.2250 -0.6152  0.4912
14087SOL     OW44798   2.885   8.975   6.553  0.1396  0.1541  0.0385
14087SOL    HW144799   2.864   9.043   6.489  0.2171  0.6160  0.4986
14087SOL    HW244800   2.801   8.944   6.585  0.0756 -0.7706 -1.0041
14088SOL     OW44801   8.850   1.253   8.495  0.2436  0.1930 -0.2493
14088SOL    HW144802   8.902   1.332   8.487 -0.3197  0.4670 -1.3797
14088SOL    HW244803   8.903   1.185   8.454  0.0863  0.2942 -0.6219
14089SOL     OW44804   3.905   4.227   7.067 -0.4932  0.2158 -0.3743
14089SOL    HW144805   3.854   4.252   7.144 -1.1993  0.9674 -1.0652
14089SOL    HW244806   3.989   4.270   7.080 -0.2118 -0.5911  0.5187
14090SOL     OW44807  10.104   7.648   9.604 -0.0384 -1.1194 -0.8343
14090SOL    HW144808  10.068   7.632   9.691 -0.7408  0.2244 -0.8683
14090SOL    HW244809  10.184   7.699   9.620 -1.1584  0.7533 -1.0558
14091SOL     OW44810   0.100   0.492   6.643  0.1974 -0.3159  0.0571
14091SOL    HW144811   0.021   0.465   6.597  0.1450 -0.0510 -0.0090
14091SOL    HW244812   0.170   0.441   6.603  0.1642 -0.0174 -0.3802
14092SOL     OW44813   5.786   3.807   3.529  0.0455 -0.4045  0.3674
14092SOL    HW144814   5.712   3.790   3.470  0.5021 -0.2847 -0.2503
14092SOL    HW244815   5.840   3.870   3.481  0.6340 -0.6262  0.7385
14093SOL     OW44816   5.325   3.455   1.514 -0.1726 -0.7510  0.3312
14093SOL    HW144817   5.269   3.384   1.484  1.8011 -1.4299 -1.9210
14093SOL    HW244818   5.385   3.471   1.440 -1.0211  3.7350  0.4586
14094SOL     OW44819   1.726   9.827   2.656 -0.0928 -0.2678 -0.1343
14094SOL    HW144820   1.725   9.825   2.561  0.4133  0.3901 -0.1519
14094SOL    HW244821   1.638   9.855   2.681 -0.1669 -0.2608 -0.4028
14095SOL     OW44822   9.790   8.123   4.200  0.5317  0.2449  0.1165
14095SOL    HW144823   9.727   8.083   4.259 -1.6183  0.6698 -1.8059
14095SOL    HW244824   9.793   8.215   4.225  1.1800  0.0095  0.8927
14096SOL     OW44825   9.206   2.366   9.809 -0.4100  0.4362 -0.4886
14096SOL    HW144826   9.231   2.419   9.885  1.0481  0.3324 -0.8869
14096SOL    HW244827   9.163   2.289   9.846  0.5293  0.2619  0.2350
14097SOL     OW44828   9.529   2.654   9.517 -0.1583 -0.5875 -0.1661
14097SOL    HW144829   9.565   2.585   9.573 -0.3215  1.0717  2.0267
14097SOL    HW244830   9.603   2.713   9.502 -0.8279  0.4685  0.6454
14098SOL     OW44831   6.156   7.169   6.434  0.3715 -1.0084 -0.2157
14098SOL    HW144832   6.244   7.184   6.399 -0.3970 -0.3658 -1.9479
14098SOL    HW244833   6.128   7.088   6.393  0.4641 -1.6609  0.9900
14099SOL     OW44834   9.592   2.300   1.320 -0.6013  0.1609  0.4252
14099SOL    HW144835   9.661   2.341   1.269 -0.8132  0.2700  0.2300
14099SOL    HW244836   9.605   2.333   1.409 -0.8000  0.6776  0.2590
14100SOL     OW44837   0.118   4.293   6.526 -0.2212  0.1414  0.3069
14100SOL    HW144838   0.166   4.338   6.456 -0.0707 -0.3259  0.1052
14100SOL    HW244839   0.058   4.235   6.480 -1.0439  0.7864  0.5645
14101SOL     OW44840   8.466   2.448   6.961  0.0437  0.0328  0.2915
14101SOL    HW144841   8.381   2.406   6.975  0.0203 -0.3414 -0.9738
14101SOL    HW244842   8.473   2.510   7.034 -0.9031 -0.5745  0.9240
14102SOL     OW44843   6.753   1.930   3.589 -1.1250  0.5310 -0.0826
14102SOL    HW144844   6.792   1.987   3.523  1.8226 -1.1610  0.0847
14102SOL    HW244845   6.789   1.961   3.672 -0.6800 -0.6049  0.1569
14103SOL     OW44846   5.970   7.315   5.656 -0.0715 -0.6408  0.3192
14103SOL    HW144847   6.026   7.312   5.579  0.0797 -1.2286  0.4510
14103SOL    HW244848   6.031   7.316   5.730 -0.1786  1.4482  0.4118
14104SOL     OW44849  10.196   6.035   4.701  0.6829 -0.6537  0.4059
14104SOL    HW144850  10.255   6.110   4.705  0.7771 -0.2453 -5.1889
14104SOL    HW244851  10.108   6.072   4.711  0.9159 -0.3910  1.6280
14105SOL     OW44852   2.996   4.529   4.765 -0.3075 -0.2296 -0.2718
14105SOL    HW144853   3.018   4.535   4.858  0.3232 -0.1004 -0.4315
14105SOL    HW244854   2.900   4.534   4.763 -0.3276 -0.3439  0.3792
14106SOL     OW44855   8.209   7.466   6.756  0.3474 -0.1378 -0.6079
14106SOL    HW144856   8.184   7.428   6.840  2.3603  0.0445  0.1012
14106SOL    HW244857   8.229   7.390   6.701  1.6429 -0.1999 -0.0660
14107SOL     OW44858   6.978   1.857   6.221 -0.4148 -0.5402 -0.3190
14107SOL    HW144859   6.942   1.907   6.295 -0.1469 -1.6106  0.5512
14107SOL    HW244860   7.051   1.911   6.190  0.7046 -0.9842  1.4493
14108SOL     OW44861   1.871   1.853   4.299 -0.5138  0.4986 -0.3585
14108SOL    HW144862   1.898   1.822   4.212  2.2356  1.7897 -0.0154
14108SOL    HW244863   1.865   1.773   4.351 -0.7543 -0.1536 -1.3631
14109SOL     OW44864   6.479   8.770   6.142 -0.4171  0.0186 -0.2157
14109SOL    HW144865   6.490   8.814   6.057 -1.6816  2.7713  1.0058
14109SOL    HW244866   6.539   8.816   6.201  0.3187 -1.7685  0.4703
14110SOL     OW44867   7.070   8.743   4.219  0.1656  0.3349 -0.2401
14110SOL    HW144868   6.991   8.706   4.180 -0.3529  0.4648  0.6671
14110SOL    HW244869   7.087   8.822   4.169 -0.8409  0.8291  0.1821
14111SOL     OW44870   7.191   4.927   1.223 -0.4746 -0.2425  0.5951
14111SOL    HW144871   7.222   4.841   1.193  0.0206 -0.2219  1.0293
14111SOL    HW244872   7.261   4.958   1.281  0.2358  1.2937 -1.0393
14112SOL     OW44873   5.380   6.315   2.171 -0.0885  0.6631 -0.0789
14112SOL    HW144874   5.354   6.339   2.260  1.2223  0.8003  0.2720
14112SOL    HW244875   5.302   6.331   2.118 -0.2354  2.5712  0.6950
14113SOL     OW44876   6.313   9.709   8.157 -0.0684  0.1836  1.1173
14113SOL    HW144877   6.395   9.659   8.156 -1.9892 -3.3275  3.4200
14113SOL    HW244878   6.291   9.721   8.065  1.3043 -1.9248  0.4572
14114SOL     OW44879   9.650   6.976   4.658  0.2547  0.0392 -0.1610
14114SOL    HW144880   9.746   6.974   4.658  0.2358 -1.1757  0.4921
14114SOL    HW244881   9.624   6.894   4.617 -0.5143 -0.4859  1.3602
14115SOL     OW44882   7.134   7.265   4.601 -0.1192 -0.1047  0.1673
14115SOL    HW144883   7.065   7.232   4.659 -2.7862  2.3295 -1.4828
14115SOL    HW244884   7.106   7.239   4.514  2.5009 -1.4283 -0.3189
14116SOL     OW44885   5.694   0.858   6.479 -0.6123 -0.2359 -0.1245
14116SOL    HW144886   5.616   0.809   6.505  0.4423 -1.0979  1.5174
14116SOL    HW244887   5.715   0.826   6.391 -1.0837 -1.3005  0.1413
14117SOL     OW44888   9.306   0.838   4.507  0.4400  0.0933 -0.0506
14117SOL    HW144889   9.359   0.879   4.575  0.8168 -0.2849 -0.1153
14117SOL    HW244890   9.355   0.852   4.426  0.7711 -0.8303 -0.0187
14118SOL     OW44891   9.500   7.142   0.374  0.5128 -0.1717 -0.4326
14118SOL    HW144892   9.468   7.227   0.344 -0.1937 -0.0920  0.4955
14118SOL    HW244893   9.514   7.155   0.468 -1.0510 -1.4922  0.0071
14119SOL     OW44894   8.792   3.264   0.569 -0.0265 -0.1772  0.0434
14119SOL    HW144895   8.816   3.293   0.481  0.5478  1.5449  0.7509
14119SOL    HW244896   8.805   3.169   0.568 -0.7371 -0.2576 -1.9415
14120SOL     OW44897   9.730   0.014   3.577 -0.3971  0.2268 -0.2177
14120SOL    HW144898   9.643   0.031   3.614 -0.9068  0.9128 -1.7026
14120SOL    HW244899   9.718   0.021   3.483  1.2376  0.1347 -0.4478
14121SOL     OW44900   4.727   6.955   8.221  0.1848 -0.2451 -0.7037
14121SOL    HW144901   4.710   6.948   8.127 -0.3579 -2.4990 -0.4769
14121SOL    HW244902   4.686   7.038   8.246  1.2616  0.9155 -2.6298
14122SOL     OW44903   1.564   2.766   6.228 -0.6197  0.0676 -0.1815
14122SOL    HW144904   1.519   2.691   6.190  0.1932 -0.1503 -0.7285
14122SOL    HW244905   1.631   2.789   6.163 -0.9117  1.3078 -0.0465
14123SOL     OW44906   5.008   8.614   9.320 -0.4275  1.1135 -0.0943
14123SOL    HW144907   4.974   8.543   9.267 -2.1356  1.4803  0.4880
14123SOL    HW244908   5.102   8.595   9.328 -0.6612 -0.4501 -0.8745
14124SOL     OW44909   9.032   6.300   9.563 -0.5472  0.7203  0.3287
14124SOL    HW144910   9.006   6.274   9.651  0.6775 -0.7866  0.2574
14124SOL    HW244911   8.951   6.326   9.521 -1.6178 -1.6793  0.8587
14125SOL     OW44912   2.354   8.993   7.746 -0.4995 -0.5109 -0.1529
14125SOL    HW144913   2.417   8.921   7.753 -0.3594 -0.3715  0.0166
14125SOL    HW244914   2.388   9.061   7.804 -1.3761 -0.8565  0.7917
14126SOL     OW44915  10.037   9.596   6.813  1.0444  0.0380  0.3974
14126SOL    HW144916  10.096   9.667   6.837  1.5063 -0.7599  1.6662
14126SOL    HW244917  10.077   9.517   6.850 -0.3915 -0.6261  0.5731
14127SOL     OW44918   1.600   1.547   7.828 -0.4228  0.2443  0.6801
14127SOL    HW144919   1.606   1.475   7.891  0.5614  0.2390  0.5955
14127SOL    HW244920   1.678   1.537   7.773 -0.6694  0.9329  0.1955
14128SOL     OW44921   5.687   7.913   6.810 -0.1368 -0.2606  0.1922
14128SOL    HW144922   5.711   7.913   6.718  0.6550 -1.0353  0.3954
14128SOL    HW244923   5.596   7.943   6.811 -0.2952 -0.6808 -0.8745
14129SOL     OW44924   8.483   5.468   7.171 -0.2439 -0.1841 -0.2698
14129SOL    HW144925   8.516   5.498   7.255 -1.6093  1.4877 -0.2939
14129SOL    HW244926   8.496   5.373   7.172  1.7054  0.0712  0.9274
14130SOL     OW44927   7.223   1.016   1.958  0.6418  0.4493  0.5148
14130SOL    HW144928   7.226   1.046   2.048  0.5128 -1.3059  1.1312
14130SOL    HW244929   7.148   1.061   1.919 -1.9000 -1.8894  2.4844
14131SOL     OW44930   8.006   5.812   0.810  0.4375 -0.0477 -0.1905
14131SOL    HW144931   8.049   5.897   0.815  0.7641 -0.2127 -0.1314
14131SOL    HW244932   7.967   5.799   0.897 -0.4377  0.4689 -0.5096
14132SOL     OW44933   5.009   4.932   3.925 -0.0665  0.1406 -0.0278
14132SOL    HW144934   5.085   4.948   3.982  0.1318  2.7374 -0.9926
14132SOL    HW244935   5.038   4.861   3.867  0.9528 -0.1513  0.8185
14133SOL     OW44936   2.097   8.714   8.136 -0.5375  0.0342  0.4740
14133SOL    HW144937   2.074   8.622   8.146 -1.2104  0.0761 -0.6975
14133SOL    HW244938   2.022   8.761   8.173 -0.7528  0.1338 -0.0971
14134SOL     OW44939   6.269   7.410   7.635 -0.0878  0.8111  0.6759
14134SOL    HW144940   6.323   7.488   7.620  0.0236  0.3092 -1.7522
14134SOL    HW244941   6.326   7.350   7.684  1.0458  0.9013 -0.5021
14135SOL     OW44942   8.779   8.715   9.368  0.0538 -0.4215  0.0410
14135SOL    HW144943   8.735   8.772   9.306  0.1389 -0.5511 -0.1399
14135SOL    HW244944   8.851   8.677   9.318 -0.1112 -0.8243  0.1057
14136SOL     OW44945   7.589   6.148   8.815 -0.0194  0.3075  0.5740
14136SOL    HW144946   7.512   6.179   8.767 -1.5415  0.1319  2.7876
14136SOL    HW244947   7.659   6.207   8.789 -1.4037  1.7732  0.0561
14137SOL     OW44948   4.927   6.202   3.935  0.5331  0.0481  0.3174
14137SOL    HW144949   4.838   6.222   3.905  0.4814  3.3230  2.3786
14137SOL    HW244950   4.966   6.153   3.862 -1.3096  3.0019 -2.8543
14138SOL     OW44951   5.122   5.592   7.255  0.1773  0.0650 -0.3285
14138SOL    HW144952   5.207   5.572   7.294 -0.5041 -1.0714  0.5934
14138SOL    HW244953   5.104   5.682   7.282 -0.2488 -0.6759  1.9388
14139SOL     OW44954   9.736   3.952   3.198 -0.5426 -0.1302  0.2443
14139SOL    HW144955   9.826   3.983   3.194 -0.8145  0.4883 -1.2728
14139SOL    HW244956   9.691   4.015   3.254 -0.6106  1.0377 -1.0999
14140SOL     OW44957   4.133   0.935   8.857 -0.1925 -0.2286  0.4195
14140SOL    HW144958   4.063   0.899   8.913 -0.0539 -3.3597 -1.2698
14140SOL    HW244959   4.089   0.954   8.774  0.2765  1.1792  0.4858
14141SOL     OW44960   0.112   4.372   1.137 -0.0927 -0.0619  0.3270
14141SOL    HW144961   0.167   4.429   1.083  0.5770 -1.2997 -0.3360
14141SOL    HW244962   0.035   4.425   1.158  0.3823  0.9768 -0.5108
14142SOL     OW44963   3.578   0.931   8.048  0.0509  0.1579  0.3067
14142SOL    HW144964   3.501   0.969   8.005 -0.2307 -0.5332  0.1944
14142SOL    HW244965   3.549   0.916   8.138  0.3369  0.7222  0.4919
14143SOL     OW44966   1.078   4.919   2.883  0.2081 -0.5261  0.3327
14143SOL    HW144967   1.141   4.876   2.825 -0.8848 -2.7525  0.7450
14143SOL    HW244968   0.998   4.926   2.832  0.4275  1.2197  0.2109
14144SOL     OW44969   5.724   1.816   6.793  0.6270 -0.0578 -0.1527
14144SOL    HW144970   5.793   1.877   6.821  1.6178 -1.6585  1.0312
14144SOL    HW244971   5.744   1.798   6.702  0.2280  1.4805 -0.5708
14145SOL     OW44972   6.417   3.563   2.383 -0.0048 -0.2799 -0.2566
14145SOL    HW144973   6.460   3.494   2.332  0.3966 -0.7591  0.7256
14145SOL    HW244974   6.458   3.558   2.470 -0.3494  0.8439 -0.0218
14146SOL     OW44975   5.760   8.328   2.509 -0.1358  0.1239 -0.1896
14146SOL    HW144976   5.764   8.352   2.601 -1.3720 -0.4858  0.0300
14146SOL    HW244977   5.727   8.407   2.465  0.5010  0.4289 -0.1209
14147SOL     OW44978   8.935   4.293   3.343  0.7663  0.2198  0.7078
14147SOL    HW144979   8.860   4.353   3.344 -0.6971 -1.5204 -1.8083
14147SOL    HW244980   8.922   4.238   3.420 -0.2048  0.3301  0.6362
14148SOL     OW44981   1.920   2.046   6.514  0.4938 -0.2276  0.6075
14148SOL    HW144982   1.902   1.988   6.439  0.5428 -0.2093  0.5814
14148SOL    HW244983   2.004   2.086   6.493 -0.0109  0.6065  0.1524
14149SOL     OW44984   2.897   4.347   2.060  0.3290  0.2001  0.7654
14149SOL    HW144985   2.804   4.349   2.039  0.3253  0.7841  0.8260
14149SOL    HW244986   2.904   4.399   2.140  0.2556 -2.5095  2.5798
14150SOL     OW44987   3.218   0.735   1.469  0.2415 -0.3575 -0.2218
14150SOL    HW144988   3.149   0.782   1.516  0.2694 -0.1003 -0.4328
14150SOL    HW244989   3.171   0.677   1.409  0.2043 -0.1323 -0.4147
14151SOL     OW44990   9.519   0.178   3.373  0.0974 -0.2921  0.2234
14151SOL    HW144991   9.524   0.220   3.287  1.8816 -0.3427  0.2805
14151SOL    HW244992   9.431   0.142   3.377 -0.9464  2.0888 -0.4503
14152SOL     OW44993   1.862   0.387   6.504 -0.3715 -0.2108 -0.4899
14152SOL    HW144994   1.776   0.389   6.463 -0.5969  0.2221  0.0102
14152SOL    HW244995   1.917   0.442   6.448  0.0216 -1.8558 -1.7884
14153SOL     OW44996   5.321   1.141   9.539 -0.2331 -0.2308  0.2371
14153SOL    HW144997   5.368   1.211   9.494 -1.6014  1.2814  1.1133
14153SOL    HW244998   5.381   1.112   9.608 -0.1295  0.9009  0.6320
14154SOL     OW44999   9.734   8.181   9.675 -0.0346 -0.1075  0.4835
14154SOL    HW145000   9.807   8.161   9.616 -0.4928 -2.3354  0.6208
14154SOL    HW245001   9.675   8.236   9.623  1.1149  0.6443 -0.0456
14155SOL     OW45002   6.495   4.514   5.555  0.2875 -0.5189 -0.0592
14155SOL    HW145003   6.502   4.605   5.584  0.2794 -0.6724  0.4424
14155SOL    HW245004   6.447   4.470   5.626  0.7376 -1.0196 -0.0632
14156SOL     OW45005   1.379   7.540   1.146  0.1212 -0.4083 -0.6434
14156SOL    HW145006   1.428   7.465   1.179 -0.4352 -0.2974  0.4622
14156SOL    HW245007   1.331   7.506   1.070  1.1807 -0.7444 -1.1596
14157SOL     OW45008   2.334   5.871   8.922 -0.3039  0.3487  0.0615
14157SOL    HW145009   2.311   5.859   9.014  1.3247 -0.6079  0.3664
14157SOL    HW245010   2.250   5.884   8.878 -1.1121  0.6724  1.6507
14158SOL     OW45011   0.451   7.308   3.912  0.0705 -0.3094  0.4785
14158SOL    HW145012   0.404   7.377   3.959 -1.3455 -0.1515 -1.1231
14158SOL    HW245013   0.510   7.270   3.978  1.5985  3.0400  1.1885
14159SOL     OW45014   4.451   1.799   4.057  0.4418 -0.4683  0.1130
14159SOL    HW145015   4.480   1.870   4.000  1.1734 -1.2313 -0.4863
14159SOL    HW245016   4.362   1.780   4.028  0.1740  0.3301  0.4016
14160SOL     OW45017   6.261   1.729   0.539  0.8734  0.3389 -0.1485
14160SOL    HW145018   6.188   1.787   0.562  2.2550  1.3694  1.8015
14160SOL    HW245019   6.267   1.733   0.444 -1.0027  0.9917 -0.2497
14161SOL     OW45020   3.632   1.019   6.297 -0.3423 -0.6249  0.3189
14161SOL    HW145021   3.603   1.090   6.354 -1.5648  0.1376 -1.2439
14161SOL    HW245022   3.617   0.940   6.349 -0.4939  0.1250  1.4355
14162SOL     OW45023   1.828   9.555   9.825  0.2798  0.0281 -0.1584
14162SOL    HW145024   1.888   9.581   9.754  0.9187 -0.2910  0.2638
14162SOL    HW245025   1.775   9.633   9.841 -0.8522 -0.3420 -1.9888
14163SOL     OW45026   4.685   6.672   6.527 -0.3434  0.0612  0.1245
14163SOL    HW145027   4.591   6.657   6.522 -0.8460  2.4300  1.3908
14163SOL    HW245028   4.716   6.607   6.590 -1.4894  0.5491  1.2337
14164SOL     OW45029   4.977   4.329   4.652 -0.1354  0.1023 -0.4711
14164SOL    HW145030   5.031   4.399   4.617 -1.1830  1.7633  1.1092
14164SOL    HW245031   4.945   4.282   4.575  2.8605 -0.4173 -1.4485
14165SOL     OW45032   2.433   0.793   7.978 -0.4035  0.5258  0.2966
14165SOL    HW145033   2.362   0.783   7.915  0.3303  0.1892 -0.4670
14165SOL    HW245034   2.508   0.823   7.927  0.1345  0.4747  1.0385
14166SOL     OW45035   6.658   2.249   4.450 -0.3951  0.7014  0.0473
14166SOL    HW145036   6.732   2.308   4.460  0.4483 -0.2940 -0.3309
14166SOL    HW245037   6.662   2.218   4.360 -0.8074  0.0285  0.2483
14167SOL     OW45038   8.824   0.671   4.526 -0.0963  0.7491 -0.3812
14167SOL    HW145039   8.765   0.693   4.454 -0.0201 -1.2411 -1.0734
14167SOL    HW245040   8.911   0.675   4.488 -0.0680 -0.5393 -0.4823
14168SOL     OW45041   4.924   6.803   1.494 -0.0045  0.2120 -0.0406
14168SOL    HW145042   4.954   6.894   1.502  0.7602 -0.1362  1.2007
14168SOL    HW245043   4.830   6.810   1.475 -0.2999  1.2405  1.6929
14169SOL     OW45044   9.888   4.587   9.401  0.5220 -0.8949 -0.2952
14169SOL    HW145045   9.949   4.659   9.415  0.7468 -1.2071  0.3731
14169SOL    HW245046   9.943   4.517   9.363 -0.2547  0.2518 -3.6577
14170SOL     OW45047   2.723   8.074   9.615 -0.7524  0.2040  0.1181
14170SOL    HW145048   2.751   8.008   9.678 -0.1393 -0.4693 -0.8531
14170SOL    HW245049   2.651   8.033   9.567 -1.2280  0.7203  0.3888
14171SOL     OW45050  10.184   7.635   3.576 -1.0646 -0.1681  0.7127
14171SOL    HW145051  10.101   7.681   3.585 -0.3874  0.9316  1.4092
14171SOL    HW245052  10.199   7.629   3.482  0.2316  3.6134  0.6015
14172SOL     OW45053   5.176   6.672   4.429  0.6148 -0.2754 -0.3045
14172SOL    HW145054   5.123   6.596   4.453  0.8339 -0.5663 -0.7356
14172SOL    HW245055   5.129   6.711   4.354  1.6111 -1.1919 -1.4173
14173SOL     OW45056   3.981   2.690   0.220  0.3677  0.4696 -0.3434
14173SOL    HW145057   4.067   2.694   0.262 -0.1735 -1.4286  1.0526
14173SOL    HW245058   3.924   2.741   0.277  0.2835  0.5917 -0.5362
14174SOL     OW45059   3.819   4.622   3.243 -0.3580  0.4692  0.2315
14174SOL    HW145060   3.835   4.714   3.222  1.5039 -0.0007 -0.5342
14174SOL    HW245061   3.888   4.600   3.306  0.9012 -1.1291 -1.6636
14175SOL     OW45062   7.442   1.235   5.635 -0.4038  0.2526  0.2038
14175SOL    HW145063   7.522   1.287   5.646 -0.0764 -0.0902 -0.5318
14175SOL    HW245064   7.379   1.275   5.695 -0.2504  1.6902 -0.5603
14176SOL     OW45065   1.275   6.413   7.201  0.5604 -0.1945 -0.1177
14176SOL    HW145066   1.217   6.488   7.186  0.4714 -0.3946 -0.8173
14176SOL    HW245067   1.363   6.450   7.196  0.5035 -0.0112  0.2426
14177SOL     OW45068   8.021   6.515   9.131 -0.4655 -0.3864 -0.0748
14177SOL    HW145069   8.050   6.572   9.202  1.9656 -2.6471  0.7801
14177SOL    HW245070   7.934   6.487   9.157 -0.1115 -0.1671  1.3726
14178SOL     OW45071   3.946   5.771  10.100 -0.2175 -0.1389 -0.3878
14178SOL    HW145072   4.001   5.725  10.164 -0.5810  0.1874  0.1653
14178SOL    HW245073   4.007   5.802  10.034  0.1003 -0.9404 -0.4803
14179SOL     OW45074   4.913   1.312   1.461 -0.4536 -0.3775 -0.2460
14179SOL    HW145075   4.907   1.235   1.405 -0.0661 -1.1492  0.7661
14179SOL    HW245076   4.935   1.278   1.548 -1.4537  0.7722  0.4773
14180SOL     OW45077   5.554   4.896   7.625  0.2708 -0.1407 -0.2605
14180SOL    HW145078   5.535   4.807   7.594 -0.9876 -0.2984  0.8841
14180SOL    HW245079   5.619   4.884   7.694 -0.6059 -0.2903  0.5589
14181SOL     OW45080   9.680   6.867   0.303 -0.7023 -0.7644 -0.1693
14181SOL    HW145081   9.643   6.794   0.254  0.0891 -2.3948  1.5747
14181SOL    HW245082   9.605   6.906   0.348 -1.0048 -1.0512 -0.4206
14182SOL     OW45083   0.023   3.067   5.155 -0.5567  0.1775 -0.2489
14182SOL    HW145084  -0.044   3.044   5.090 -0.0853  0.1499 -0.7290
14182SOL    HW245085   0.007   3.160   5.173 -0.8260  0.1304 -0.2414
14183SOL     OW45086   4.748   5.406   4.319  0.0553  0.1393  0.8226
14183SOL    HW145087   4.736   5.422   4.225  0.1276 -1.3859  0.5532
14183SOL    HW245088   4.825   5.458   4.341  0.8240 -0.5247 -0.2435
14184SOL     OW45089   6.235   4.230   0.630  0.0129 -0.3665  0.1090
14184SOL    HW145090   6.229   4.212   0.724 -0.9309  0.9244  0.2984
14184SOL    HW245091   6.151   4.267   0.607  0.8161  0.8504 -0.9186
14185SOL     OW45092   1.615   7.950   0.252  0.3969 -0.2788 -0.2361
14185SOL    HW145093   1.663   7.960   0.335 -0.7525 -0.0102  0.4043
14185SOL    HW245094   1.654   7.873   0.211  1.1255 -0.2850  0.4510
14186SOL     OW45095   3.455   5.255   8.364 -0.6643 -0.1283  0.3192
14186SOL    HW145096   3.459   5.309   8.443 -0.5390  0.0930  0.1650
14186SOL    HW245097   3.542   5.215   8.358  0.3649  2.1984 -1.3197
14187SOL     OW45098   9.378   5.546   0.410 -0.0407  0.3190  0.5383
14187SOL    HW145099   9.466   5.575   0.385 -0.2951 -0.0065 -0.7809
14187SOL    HW245100   9.327   5.627   0.413 -0.7063  0.0995 -2.9564
14188SOL     OW45101   1.099   3.043   8.556  0.3808 -0.0176 -0.1867
14188SOL    HW145102   1.068   3.131   8.576  0.1839  0.2850 -1.7564
14188SOL    HW245103   1.186   3.056   8.517 -0.5091 -0.3226 -2.3839
14189SOL     OW45104   1.085   3.323   8.231 -0.5376 -0.0410  0.5930
14189SOL    HW145105   1.132   3.316   8.147 -0.1626 -2.2353  0.9684
14189SOL    HW245106   0.997   3.292   8.212 -0.8946  0.8999  0.6776
14190SOL     OW45107   8.442   7.410   5.095  0.1047  0.4029 -0.2089
14190SOL    HW145108   8.515   7.349   5.106 -0.2209 -0.5899 -3.0344
14190SOL    HW245109   8.417   7.433   5.184  1.8679 -1.6461  0.8851
14191SOL     OW45110   6.469   8.212   8.753 -0.4225  0.6204 -0.1583
14191SOL    HW145111   6.481   8.218   8.847  0.1079 -2.4703  0.0170
14191SOL    HW245112   6.553   8.239   8.716  0.3144 -0.8437  0.3850
14192SOL     OW45113   4.465   3.282   5.727  0.2075 -0.5792  0.3596
14192SOL    HW145114   4.552   3.247   5.708  0.2730 -0.1499 -0.1526
14192SOL    HW245115   4.480   3.372   5.755 -0.2441  0.4562 -2.4850
14193SOL     OW45116   2.364   3.587   6.975  0.0519 -0.2828 -0.4772
14193SOL    HW145117   2.312   3.659   7.012  0.0156 -0.5973  0.0995
14193SOL    HW245118   2.308   3.549   6.908  0.4974  0.9148 -1.5526
14194SOL     OW45119   1.646   1.746   9.894  0.6450  0.4248  0.3592
14194SOL    HW145120   1.709   1.694   9.845  0.8617  0.9684  0.0564
14194SOL    HW245121   1.573   1.759   9.833 -0.5281 -1.6389  1.2721
14195SOL     OW45122   0.657   8.377   7.777 -0.1817 -0.0746  0.1804
14195SOL    HW145123   0.702   8.448   7.730  0.0814  0.1876  0.8252
14195SOL    HW245124   0.719   8.305   7.777 -0.8939 -0.7258 -1.5075
14196SOL     OW45125   4.329   9.718   4.592 -0.4053  0.5605  0.2888
14196SOL    HW145126   4.380   9.790   4.629 -0.1886  1.5853 -1.8937
14196SOL    HW245127   4.359   9.711   4.501 -0.5797 -2.1524  0.3787
14197SOL     OW45128   4.513   8.741   9.911 -0.2179  0.0293 -0.5209
14197SOL    HW145129   4.496   8.657   9.955  0.7441 -0.1715 -0.5321
14197SOL    HW245130   4.557   8.717   9.830  0.1523  0.5538 -0.4776
14198SOL     OW45131   2.075   6.839   4.231 -0.3367 -0.3716 -0.5836
14198SOL    HW145132   2.136   6.908   4.260  0.2933 -1.8042  1.6056
14198SOL    HW245133   1.994   6.858   4.278  0.5431 -2.4271  1.8457
14199SOL     OW45134   8.925   1.660   1.175 -0.0531  0.2282 -0.1445
14199SOL    HW145135   8.900   1.709   1.097 -0.1662  1.6453  0.7420
14199SOL    HW245136   8.969   1.582   1.143 -2.2833 -0.4398 -1.6728
14200SOL     OW45137   8.378   5.748   7.964 -0.4418 -0.2309  0.5640
14200SOL    HW145138   8.360   5.655   7.972 -1.8233 -0.0958 -0.7148
14200SOL    HW245139   8.424   5.758   7.881 -1.3494  0.3518  0.1162
14201SOL     OW45140   7.042   0.055   6.475 -0.0804 -0.6049  0.2733
14201SOL    HW145141   7.008  -0.034   6.463 -0.0303 -0.3689 -1.7219
14201SOL    HW245142   7.005   0.105   6.402 -0.9881  1.2866  1.9784
14202SOL     OW45143   8.738   6.249   7.603 -0.1405  0.4460  0.2640
14202SOL    HW145144   8.770   6.261   7.514  0.6193  1.5931  0.6693
14202SOL    HW245145   8.659   6.196   7.594  1.3410 -1.6266 -0.8417
14203SOL     OW45146   8.028   0.500   0.830 -0.1658 -0.1116 -0.4525
14203SOL    HW145147   8.099   0.483   0.892  0.2125  0.4037 -0.7422
14203SOL    HW245148   8.060   0.464   0.747  0.5334  1.7255 -1.0153
14204SOL     OW45149   9.172   2.069   7.631 -0.1765 -0.0460  0.3138
14204SOL    HW145150   9.248   2.091   7.685 -0.5984  1.0302  0.4890
14204SOL    HW245151   9.167   1.973   7.634 -0.3092 -0.0082  2.3828
14205SOL     OW45152   2.984   9.058   3.867  0.4802 -0.0657 -0.4454
14205SOL    HW145153   2.982   9.129   3.803  0.3998  0.9367  0.6422
14205SOL    HW245154   2.990   9.103   3.952 -1.6084 -1.3089  0.3902
14206SOL     OW45155   0.305   8.731   8.370  0.2914  0.1183  0.4210
14206SOL    HW145156   0.387   8.684   8.360  1.4952  1.8048  2.1261
14206SOL    HW245157   0.280   8.717   8.461 -2.2383 -1.7825 -0.4859
14207SOL     OW45158   9.906   1.632   4.952 -0.6878  0.1469 -0.2149
14207SOL    HW145159   9.918   1.540   4.974  0.7694  0.1720 -0.8611
14207SOL    HW245160   9.840   1.632   4.882 -0.6373 -0.4149 -0.2610
14208SOL     OW45161   3.556   8.681   4.333  0.0700 -0.4297  0.5737
14208SOL    HW145162   3.475   8.689   4.384  0.2053  1.2926  0.5596
14208SOL    HW245163   3.585   8.591   4.347  0.4093  0.1227  4.0644
14209SOL     OW45164   2.497   0.405   2.740 -0.2373 -0.3106  0.0190
14209SOL    HW145165   2.486   0.500   2.741 -2.3292 -0.5439  1.5765
14209SOL    HW245166   2.583   0.390   2.779 -0.2509  0.9150  0.5281
14210SOL     OW45167   7.334   3.412   0.414 -0.1570  0.0102 -0.0862
14210SOL    HW145168   7.398   3.342   0.431  0.6338  0.2539 -1.8989
14210SOL    HW245169   7.258   3.389   0.467 -0.3294 -2.8226 -1.4611
14211SOL     OW45170   9.259   6.193   6.454  0.1028 -0.3619  0.1543
14211SOL    HW145171   9.296   6.202   6.366 -0.5159  1.1428  0.0285
14211SOL    HW245172   9.176   6.147   6.441 -0.0902  0.0451 -0.0920
14212SOL     OW45173   5.459   2.988   0.194 -0.2622  0.0826  0.1875
14212SOL    HW145174   5.522   2.943   0.138 -0.0680  0.2062  0.3074
14212SOL    HW245175   5.509   3.057   0.237 -0.0018 -1.1168  1.8655
14213SOL     OW45176   2.299   4.350   0.220  0.0882 -0.0631  0.2303
14213SOL    HW145177   2.288   4.429   0.274 -0.1188 -0.4711  0.7902
14213SOL    HW245178   2.332   4.284   0.281  2.0522  0.0977 -0.6233
14214SOL     OW45179   6.181   6.779   2.391  0.0489  0.2884  0.4688
14214SOL    HW145180   6.145   6.843   2.329 -2.6193 -0.5412  1.1074
14214SOL    HW245181   6.274   6.772   2.366 -0.2573  2.2700 -1.4217
14215SOL     OW45182   3.289   1.266  10.169  0.5924 -0.4239  0.8005
14215SOL    HW145183   3.301   1.357  10.197  0.2407 -0.4378  0.9940
14215SOL    HW245184   3.195   1.251  10.176  0.6051 -0.6908  0.4135
14216SOL     OW45185   7.744   2.251   3.071  0.4042  0.0716 -0.3042
14216SOL    HW145186   7.715   2.338   3.042 -1.8007 -0.6751 -0.4053
14216SOL    HW245187   7.818   2.269   3.129  1.8746  1.8517 -2.6078
14217SOL     OW45188   4.351   1.991   3.688 -0.3076 -0.0706 -0.3033
14217SOL    HW145189   4.307   2.072   3.661 -1.4216 -0.4847  0.2419
14217SOL    HW245190   4.413   2.018   3.755 -1.4956  0.1740  0.7088
14218SOL     OW45191   0.969   3.281   5.280 -0.3506 -0.0872  0.0542
14218SOL    HW145192   1.035   3.257   5.215 -1.3493 -1.5748 -0.4596
14218SOL    HW245193   1.018   3.316   5.354  0.8863  0.4817 -1.0148
14219SOL     OW45194   2.347   7.044   2.226  0.7993  0.1739 -0.0822
14219SOL    HW145195   2.328   7.012   2.138 -1.4960  2.5541 -0.5090
14219SOL    HW245196   2.342   6.966   2.281 -3.5187 -0.4901 -1.2315
14220SOL     OW45197   2.482   8.012   8.263  0.4375  0.7687 -0.1451
14220SOL    HW145198   2.407   7.964   8.227  0.4491  2.1112 -2.0595
14220SOL    HW245199   2.447   8.100   8.282  0.7393  0.4312  2.0736
14221SOL     OW45200   2.926   5.738   5.477 -0.4052  0.1176  1.2392
14221SOL    HW145201   2.839   5.738   5.518 -0.0482  2.1690  2.0177
14221SOL    HW245202   2.968   5.660   5.512 -1.1470  0.2925  2.5498
14222SOL     OW45203   6.846   8.523   7.661 -0.1009  0.3506 -0.2547
14222SOL    HW145204   6.895   8.594   7.619 -0.0944  0.6429  0.2367
14222SOL    HW245205   6.910   8.453   7.673  0.3482  0.9598  0.9379
14223SOL     OW45206   9.181   3.566   8.511 -0.1409  0.3537 -0.0633
14223SOL    HW145207   9.145   3.543   8.597 -2.2425  0.0253 -1.0016
14223SOL    HW245208   9.220   3.485   8.479 -1.7872 -0.2538 -0.5766
14224SOL     OW45209   4.952   1.633   5.399  1.1321 -0.5131  0.0501
14224SOL    HW145210   4.866   1.670   5.383  1.1223 -0.5935 -0.0863
14224SOL    HW245211   5.010   1.709   5.405  1.0881 -0.4689 -0.0793
14225SOL     OW45212   8.455   2.766   4.768 -0.1043 -0.1114  0.2004
14225SOL    HW145213   8.459   2.781   4.674  1.1353 -0.0999  0.2389
14225SOL    HW245214   8.362   2.752   4.787 -0.3894  0.1589 -0.9745
14226SOL     OW45215   7.917   7.842   8.600 -0.2849  0.0314 -0.0024
14226SOL    HW145216   7.841   7.887   8.637 -0.5714 -0.5308  0.0991
14226SOL    HW245217   7.949   7.786   8.672  1.2844  1.5773  0.5350
14227SOL     OW45218   8.855   7.644   6.592 -0.0650 -0.9951 -0.3727
14227SOL    HW145219   8.938   7.667   6.551  0.4106  0.2995  1.2754
14227SOL    HW245220   8.791   7.703   6.552  0.2044 -0.4758 -0.0365
14228SOL     OW45221   0.672   4.461   3.679  0.0984  0.2976 -0.3831
14228SOL    HW145222   0.691   4.459   3.773 -0.8256  0.1882 -0.1906
14228SOL    HW245223   0.634   4.375   3.660 -1.1257  0.8540 -0.5404
14229SOL     OW45224   6.643   0.753   4.031  0.0266 -0.2461 -0.6153
14229SOL    HW145225   6.666   0.669   4.070  2.0457  0.8473  0.6151
14229SOL    HW245226   6.594   0.799   4.100  1.1558  0.5800 -0.3519
14230SOL     OW45227   2.913   8.022   1.569  0.6968  0.2503 -0.0041
14230SOL    HW145228   2.895   8.067   1.651 -2.4998 -0.7734 -0.0806
14230SOL    HW245229   2.894   7.930   1.587  0.6063 -0.0818 -1.6855
14231SOL     OW45230   9.574   7.625   1.244  0.0689 -0.2802 -0.1134
14231SOL    HW145231   9.609   7.713   1.238  1.0771 -0.7560 -1.2814
14231SOL    HW245232   9.490   7.629   1.197  0.5070 -0.1516 -0.8776
14232SOL     OW45233   2.727   5.046   6.467 -0.2571  0.2425  0.3632
14232SOL    HW145234   2.778   4.996   6.531  1.6474  0.3321 -1.0756
14232SOL    HW245235   2.678   5.109   6.520 -0.7221 -1.4183  1.9659
14233SOL     OW45236   6.454   5.442   5.277  0.5441  0.7210  0.2644
14233SOL    HW145237   6.543   5.410   5.263  0.4475  0.1493  0.9386
14233SOL    HW245238   6.440   5.432   5.371  0.1469  1.8017  0.3207
14234SOL     OW45239   8.104   3.709   6.582  0.4275  0.3001 -0.1431
14234SOL    HW145240   8.112   3.704   6.487 -0.9843  1.0967 -0.3271
14234SOL    HW245241   8.025   3.659   6.602 -0.6043  2.0863  0.3521
14235SOL     OW45242   4.563   4.718   0.873  0.0146  0.0705 -0.0930
14235SOL    HW145243   4.641   4.671   0.843  0.1313 -0.9322  1.7209
14235SOL    HW245244   4.557   4.793   0.814 -0.4587 -2.4337 -3.3580
14236SOL     OW45245   1.480   2.588   7.319 -0.0950  0.3556 -0.4065
14236SOL    HW145246   1.538   2.512   7.318  0.7091  0.9607 -0.2788
14236SOL    HW245247   1.402   2.559   7.273 -0.4321 -1.0604  1.0204
14237SOL     OW45248   9.385   5.458   6.270  0.4064  0.5341  0.3112
14237SOL    HW145249   9.430   5.376   6.288 -1.9667 -0.9663 -0.4803
14237SOL    HW245250   9.380   5.502   6.355  0.5504 -0.7062  0.9683
14238SOL     OW45251   3.420   9.795   1.368  0.1716  0.2559 -0.2051
14238SOL    HW145252   3.346   9.845   1.333  0.5186  1.2572  0.4602
14238SOL    HW245253   3.497   9.848   1.346  0.5190  0.1895  0.8047
14239SOL     OW45254   4.380   4.135   6.447  0.1763  0.3819  0.0667
14239SOL    HW145255   4.402   4.142   6.354  1.2332  0.7373  0.3375
14239SOL    HW245256   4.403   4.045   6.470 -0.8283  0.0519 -0.2011
14240SOL     OW45257   6.455   2.116   9.684 -0.3059 -0.0488  0.1515
14240SOL    HW145258   6.511   2.052   9.727  0.4051  0.1839 -0.4286
14240SOL    HW245259   6.440   2.184   9.749  0.2991  0.0187  0.2197
14241SOL     OW45260   5.969   8.714   8.481  0.1813 -0.2396 -0.4753
14241SOL    HW145261   6.016   8.708   8.564 -0.0350  0.3548 -0.3090
14241SOL    HW245262   5.877   8.707   8.506 -0.0270  2.3455 -0.4027
14242SOL     OW45263   1.185   8.482   2.048  0.2882  0.1309  0.3630
14242SOL    HW145264   1.148   8.551   1.993 -2.3727 -1.1338  0.5157
14242SOL    HW245265   1.195   8.523   2.134 -2.5625 -0.0496  0.8008
14243SOL     OW45266   9.453   3.465   3.046  0.1070  0.0673 -0.1701
14243SOL    HW145267   9.399   3.467   3.124 -1.2948 -0.8131 -1.1061
14243SOL    HW245268   9.522   3.529   3.063 -1.4636  1.5273  0.8527
14244SOL     OW45269   3.070   9.672   8.794 -0.0315 -0.0594 -0.0273
14244SOL    HW145270   3.036   9.760   8.813  0.7929 -0.2235  2.2742
14244SOL    HW245271   3.157   9.688   8.757 -0.3347  0.1343 -0.6620
14245SOL     OW45272   0.048   2.198   9.596 -0.3214  0.2057  0.3939
14245SOL    HW145273  -0.023   2.176   9.656 -0.6097 -1.6027 -0.5545
14245SOL    HW245274   0.079   2.113   9.564  1.0709  1.0524 -0.5807
14246SOL     OW45275   0.692   0.013   3.322 -0.1164 -0.7960  0.4809
14246SOL    HW145276   0.738  -0.012   3.402  1.4821  0.9448  0.1579
14246SOL    HW245277   0.700   0.109   3.318  0.1750 -0.8700 -1.9420
14247SOL     OW45278   8.472   1.847   3.904 -0.6494 -0.4053  0.8384
14247SOL    HW145279   8.534   1.843   3.977 -0.2978 -0.4570  0.5394
14247SOL    HW245280   8.420   1.925   3.922 -1.0506 -0.8266  1.5317
14248SOL     OW45281   9.165   2.972   6.491  0.1334 -0.6907  0.0502
14248SOL    HW145282   9.259   2.955   6.488  0.2561 -0.0539  0.2751
14248SOL    HW245283   9.133   2.916   6.562  0.8608  1.5031  2.1695
14249SOL     OW45284   0.805   0.497   2.214  0.1747  0.4816 -0.3484
14249SOL    HW145285   0.826   0.580   2.170  0.0115  0.1574 -1.0387
14249SOL    HW245286   0.751   0.523   2.288 -0.8040  0.8966 -1.1873
14250SOL     OW45287   2.476   8.120   0.839  0.0361 -0.0955  0.5692
14250SOL    HW145288   2.533   8.194   0.857  0.9548 -1.1103  1.9239
14250SOL    HW245289   2.413   8.119   0.911 -1.0794  0.4115 -0.3807
14251SOL     OW45290   5.161   8.769   7.069  0.0715  0.1108  0.0986
14251SOL    HW145291   5.181   8.852   7.026  0.7362 -0.3992 -0.5869
14251SOL    HW245292   5.156   8.790   7.162  2.0104  0.5785  0.1048
14252SOL     OW45293   6.205   5.518   3.707 -0.0461  0.3400  0.1563
14252SOL    HW145294   6.203   5.566   3.790 -1.0274  5.0237 -2.4086
14252SOL    HW245295   6.119   5.477   3.700 -0.0895  0.2405  1.2599
14253SOL     OW45296   0.191   8.007   0.704 -0.0910 -0.4404  0.3072
14253SOL    HW145297   0.112   7.978   0.750  0.8080  0.3117  2.3675
14253SOL    HW245298   0.167   8.004   0.612 -2.5584 -0.1341  0.9011
14254SOL     OW45299   0.871   7.737   3.462 -0.3151 -0.2899 -0.5208
14254SOL    HW145300   0.803   7.703   3.521 -0.9192  2.1374  0.2328
14254SOL    HW245301   0.953   7.703   3.499 -0.8425 -0.3700  0.6155
14255SOL     OW45302   8.965   6.283   3.180 -0.2847 -0.2612  0.2418
14255SOL    HW145303   8.955   6.330   3.262  1.6668 -2.7001  1.9462
14255SOL    HW245304   8.996   6.350   3.118  1.8050  0.8598  2.4402
14256SOL     OW45305   2.847   3.466   8.209 -0.2196  0.4239  0.3513
14256SOL    HW145306   2.921   3.505   8.162  0.2112 -0.7290  0.0598
14256SOL    HW245307   2.806   3.408   8.145 -0.0860 -0.5696  1.1625
14257SOL     OW45308   9.586   8.217  10.150 -0.3597  0.0413 -0.1767
14257SOL    HW145309   9.633   8.193  10.230 -0.0572  2.2008  0.3199
14257SOL    HW245310   9.639   8.287  10.111 -2.4944  1.6206 -0.2898
14258SOL     OW45311   0.430   1.911   8.553 -0.3367 -0.6251  0.0664
14258SOL    HW145312   0.371   1.851   8.508 -0.5923 -1.0153  0.9048
14258SOL    HW245313   0.374   1.960   8.613  0.1956 -1.0923  0.9671
14259SOL     OW45314   8.997   7.149   1.223 -0.6188 -0.0880  0.3341
14259SOL    HW145315   8.912   7.171   1.261 -1.7149 -2.4344 -0.6810
14259SOL    HW245316   9.016   7.220   1.162 -0.9047  1.4589  2.0220
14260SOL     OW45317   1.648   6.875   2.446  0.4663  0.2301  0.3562
14260SOL    HW145318   1.663   6.969   2.430 -0.8737  0.2671 -0.8345
14260SOL    HW245319   1.556   6.862   2.423  0.9810 -1.6355 -0.7229
14261SOL     OW45320   1.275   3.919   8.807  0.4539 -0.3436  0.0818
14261SOL    HW145321   1.266   3.903   8.713  0.8375 -1.2467  0.1913
14261SOL    HW245322   1.361   3.882   8.829  0.1661 -0.5545  0.8769
14262SOL     OW45323   5.318   1.597   6.533 -0.2047 -0.1214  0.3294
14262SOL    HW145324   5.397   1.652   6.525 -0.4692  0.1694 -0.3396
14262SOL    HW245325   5.250   1.658   6.560 -0.5006 -0.1207 -0.4157
14263SOL     OW45326   7.005   3.754   1.964  0.4398 -0.3816  0.4280
14263SOL    HW145327   7.024   3.810   1.889 -0.2465  1.6286  1.6935
14263SOL    HW245328   7.086   3.754   2.015  0.3892 -0.4169  0.5087
14264SOL     OW45329   7.580   1.812   6.320 -0.1577  0.1936  0.2643
14264SOL    HW145330   7.506   1.865   6.351 -0.1009  0.7360 -0.5025
14264SOL    HW245331   7.654   1.843   6.373 -0.8120 -1.6037  2.2920
14265SOL     OW45332   2.964   6.242   5.210 -0.6796 -0.1901  0.1885
14265SOL    HW145333   2.888   6.231   5.153 -1.0396  1.3568  0.3477
14265SOL    HW245334   3.038   6.246   5.150 -0.7328 -1.4938  0.0212
14266SOL     OW45335   0.877   5.352   5.207 -0.4594  0.3322 -0.3528
14266SOL    HW145336   0.871   5.257   5.202 -0.4660  0.3350 -0.3903
14266SOL    HW245337   0.916   5.378   5.124 -0.7101  0.3854 -0.4555
14267SOL     OW45338   7.048   0.293   6.729  0.0208  0.0995 -0.3337
14267SOL    HW145339   7.039   0.281   6.823  0.2681  0.0603 -0.3146
14267SOL    HW245340   7.136   0.263   6.709  1.3060  3.4116 -0.0070
14268SOL     OW45341   4.185   1.782   3.544  0.0208 -0.4051 -0.7197
14268SOL    HW145342   4.233   1.720   3.490  0.9920  2.1319 -2.8385
14268SOL    HW245343   4.250   1.848   3.568 -1.7338  1.5572 -1.2610
14269SOL     OW45344   4.736   9.653   3.262 -0.2148  0.6045 -0.0772
14269SOL    HW145345   4.691   9.595   3.322 -0.2619 -0.3380 -1.0088
14269SOL    HW245346   4.802   9.598   3.220  1.0554  1.6956  0.4524
14270SOL     OW45347   8.792   0.564   6.142  0.7914  0.0035  0.2108
14270SOL    HW145348   8.812   0.599   6.055  1.0076  1.3850  0.7992
14270SOL    HW245349   8.706   0.600   6.163 -0.3884 -2.2970 -0.4188
14271SOL     OW45350   3.919   3.887   1.921 -0.5958  0.0440 -0.2133
14271SOL    HW145351   3.877   3.963   1.962 -0.9116 -0.2643  0.0437
14271SOL    HW245352   4.012   3.897   1.942 -0.6823  0.1780  0.1157
14272SOL     OW45353   0.858   8.241   9.720 -0.3049 -0.3233  0.6759
14272SOL    HW145354   0.837   8.181   9.648  1.7892  2.0905 -2.0356
14272SOL    HW245355   0.946   8.215   9.747 -0.2721  0.1298  0.9929
14273SOL     OW45356   4.021   4.193   7.950 -0.0535 -0.3749  0.0345
14273SOL    HW145357   3.952   4.152   8.002 -1.0870 -0.6912 -1.5372
14273SOL    HW245358   4.021   4.143   7.868 -0.6137  2.0946 -1.5104
14274SOL     OW45359   2.798   1.798   7.902  0.4937  0.1950 -0.3366
14274SOL    HW145360   2.762   1.751   7.827  0.2537  0.2725 -0.2729
14274SOL    HW245361   2.728   1.858   7.928  0.5878  0.1930 -0.0746
14275SOL     OW45362   9.924   2.233   7.214  0.3084  0.4353 -0.3228
14275SOL    HW145363   9.955   2.300   7.274 -0.1060  0.1886  0.1684
14275SOL    HW245364  10.000   2.175   7.202  0.1600  0.0474  0.5784
14276SOL     OW45365   0.822   3.103   4.274 -0.0878 -0.6634  0.0278
14276SOL    HW145366   0.782   3.128   4.357 -1.5912  1.0368 -1.1853
14276SOL    HW245367   0.791   3.168   4.211  0.9681 -1.9637 -1.8950
14277SOL     OW45368   3.681   4.222   3.126 -0.2973 -0.2024 -0.7157
14277SOL    HW145369   3.772   4.217   3.097 -0.4636  0.7086 -1.4203
14277SOL    HW245370   3.655   4.312   3.107 -0.9933 -0.1261  0.5369
14278SOL     OW45371   9.669   5.502   2.417 -0.0330  0.3275  0.1369
14278SOL    HW145372   9.625   5.558   2.353  0.4288 -0.2035 -0.6604
14278SOL    HW245373   9.741   5.555   2.450 -1.0237  1.0568  1.1542
14279SOL     OW45374   7.132   1.930   3.558  0.6535 -0.4893 -0.1221
14279SOL    HW145375   7.089   1.894   3.481  1.4107 -1.3592 -0.1402
14279SOL    HW245376   7.104   1.873   3.630  1.4780 -0.8388 -0.0735
14280SOL     OW45377   8.835   3.571   7.056  0.4639 -0.0707 -0.4546
14280SOL    HW145378   8.784   3.645   7.025 -0.0334  0.2184  1.0336
14280SOL    HW245379   8.771   3.512   7.097  1.1657 -0.1984  0.4925
14281SOL     OW45380   3.932   2.092   4.851 -0.0467 -0.2703  0.1265
14281SOL    HW145381   3.843   2.106   4.818  0.3933 -0.4616 -1.1735
14281SOL    HW245382   3.928   2.005   4.891 -0.5414 -0.1189  0.4187
14282SOL     OW45383   7.038   9.832   0.528  0.5198  0.4837  0.3191
14282SOL    HW145384   7.013   9.924   0.535  0.1685  0.3112  1.4115
14282SOL    HW245385   7.010   9.806   0.441  0.1591  1.2727  0.1985
14283SOL     OW45386   0.577   4.044   3.938 -0.0930  0.4145  0.2035
14283SOL    HW145387   0.529   3.991   4.002 -0.1375 -1.2428 -1.1546
14283SOL    HW245388   0.662   4.060   3.978 -0.8290  1.1433  1.5238
14284SOL     OW45389   3.065   3.666   9.505 -0.3624  0.6244 -0.5673
14284SOL    HW145390   3.007   3.734   9.472  0.3058  0.3541 -2.3685
14284SOL    HW245391   3.007   3.599   9.540 -1.1610  0.4436 -2.1748
14285SOL     OW45392   5.355   2.811   1.013 -0.3360 -0.6180  0.1926
14285SOL    HW145393   5.424   2.773   0.958 -0.3321 -1.3712  0.7141
14285SOL    HW245394   5.352   2.754   1.090  1.1817  1.6909  2.0335
14286SOL     OW45395   9.847   9.462   8.442 -0.5665 -0.2283 -0.3614
14286SOL    HW145396   9.760   9.498   8.463 -0.8449 -0.6919 -0.7140
14286SOL    HW245397   9.907   9.535   8.459 -1.3934  1.3613 -3.6808
14287SOL     OW45398   6.669   0.919   6.832  0.2878 -0.2223 -0.1979
14287SOL    HW145399   6.594   0.862   6.847  0.6453 -0.5177  0.5147
14287SOL    HW245400   6.733   0.863   6.788 -0.9514  0.7786 -3.4353
14288SOL     OW45401   8.420   2.884   0.581  0.3822  0.2238  0.0328
14288SOL    HW145402   8.460   2.858   0.664  0.8397  0.0945 -0.2269
14288SOL    HW245403   8.447   2.817   0.519 -1.2795 -0.5505  0.1306
14289SOL     OW45404   0.156   3.390   3.660  0.2122 -0.5061  0.1897
14289SOL    HW145405   0.063   3.413   3.659  0.7443  1.6750 -1.7463
14289SOL    HW245406   0.162   3.310   3.608 -0.2434  0.8018 -1.9134
14290SOL     OW45407   4.691   5.350   5.274 -0.2510 -0.0097 -0.5668
14290SOL    HW145408   4.709   5.439   5.304  0.0854  0.0035 -0.8082
14290SOL    HW245409   4.777   5.315   5.250 -0.5342  0.0329 -1.6562
14291SOL     OW45410   6.773   9.786   5.914 -0.0515  0.0821  0.2129
14291SOL    HW145411   6.817   9.717   5.963 -1.1261 -1.0021 -0.3399
14291SOL    HW245412   6.719   9.740   5.850 -0.0089  1.4547 -0.8331
14292SOL     OW45413   9.628   9.887   7.220 -0.1955  0.0159  0.1734
14292SOL    HW145414   9.634   9.853   7.310  1.4714 -2.1906 -0.7427
14292SOL    HW245415   9.537   9.870   7.195  0.2803 -2.7332  0.1745
14293SOL     OW45416   8.393   4.890   9.293  0.2878 -0.5237 -0.3731
14293SOL    HW145417   8.387   4.897   9.198 -0.6279 -0.3817 -0.3139
14293SOL    HW245418   8.400   4.981   9.323 -1.0994 -0.4573 -0.2151
14294SOL     OW45419   8.160   1.946   1.070  0.2353 -0.3689 -0.1747
14294SOL    HW145420   8.250   1.914   1.067  0.5485  0.4853  0.1241
14294SOL    HW245421   8.167   2.038   1.095 -0.6678 -0.0860 -0.9133
14295SOL     OW45422   0.520   4.844   6.303 -0.4776 -0.0026  0.2369
14295SOL    HW145423   0.427   4.820   6.295 -0.2556 -0.3389 -1.8227
14295SOL    HW245424   0.563   4.763   6.330 -0.9337  0.4933  2.5552
14296SOL     OW45425   2.503   4.096   1.686  0.2361  0.0012  0.3050
14296SOL    HW145426   2.522   4.183   1.651  0.8723 -0.2515  0.0146
14296SOL    HW245427   2.534   4.035   1.618  2.1903 -0.5182  1.6188
14297SOL     OW45428   0.602   6.105   4.559  0.6315 -0.5407 -0.0023
14297SOL    HW145429   0.541   6.033   4.544  1.5531 -1.4976  0.7655
14297SOL    HW245430   0.685   6.062   4.578  2.1628  0.7542 -3.4183
14298SOL     OW45431   1.458   9.916   2.712  0.3171  0.0921  0.0173
14298SOL    HW145432   1.470   9.969   2.791 -0.0608  0.1649  0.0271
14298SOL    HW245433   1.407   9.841   2.741  0.7398 -0.2082 -0.0243
14299SOL     OW45434   5.731   8.432   3.062 -0.1895 -0.1606 -0.2320
14299SOL    HW145435   5.645   8.472   3.078 -0.1234 -0.3461  0.5792
14299SOL    HW245436   5.776   8.435   3.146  2.1053  3.4137 -1.4895
14300SOL     OW45437   3.657   7.264   0.322 -0.6984 -0.5909 -0.5517
14300SOL    HW145438   3.646   7.231   0.233 -1.0328 -1.1583 -0.3009
14300SOL    HW245439   3.569   7.261   0.360 -0.8505  1.1235 -0.7056
14301SOL     OW45440   3.044   6.284   3.896 -0.2969  0.5650 -0.1859
14301SOL    HW145441   3.091   6.366   3.910  0.1809  0.1095  0.9452
14301SOL    HW245442   3.101   6.217   3.933 -1.2338 -0.1393 -0.0041
14302SOL     OW45443   9.944   8.827   8.447  0.0507  0.0762 -0.3127
14302SOL    HW145444   9.896   8.889   8.502 -0.0538 -0.5823  0.3402
14302SOL    HW245445   9.955   8.749   8.502 -0.5210 -0.7809 -1.4097
14303SOL     OW45446   6.522   2.868   2.396  0.2316 -0.3887  0.0142
14303SOL    HW145447   6.539   2.941   2.456  0.2766 -0.1061 -0.3336
14303SOL    HW245448   6.464   2.810   2.444 -0.0612  0.0393  0.1793
14304SOL     OW45449   6.430   2.398   0.064 -0.2950 -0.4345 -0.2036
14304SOL    HW145450   6.393   2.486   0.056  1.2066  0.2082 -0.2690
14304SOL    HW245451   6.379   2.345   0.002 -2.6782 -0.1285  1.4042
14305SOL     OW45452   6.762   2.645   3.938  0.1180  0.1321 -0.2953
14305SOL    HW145453   6.696   2.698   3.893  0.0027 -0.2712 -0.6017
14305SOL    HW245454   6.747   2.556   3.906 -1.1914 -0.4942  1.9480
14306SOL     OW45455   0.532   1.768   1.577  0.5413  0.4594  0.3601
14306SOL    HW145456   0.482   1.690   1.553  1.3750 -0.2335  0.8626
14306SOL    HW245457   0.592   1.782   1.504  0.6241  0.4322  0.4231
14307SOL     OW45458   1.321   8.402   2.827 -0.0152  0.5792  0.1158
14307SOL    HW145459   1.403   8.392   2.876 -0.1680 -1.5194 -0.0048
14307SOL    HW245460   1.320   8.327   2.767 -1.4533  1.2626 -0.7337
14308SOL     OW45461   5.794   8.724   1.998 -0.2396  0.5691  0.1725
14308SOL    HW145462   5.884   8.701   1.976 -0.3715  0.0925  0.1222
14308SOL    HW245463   5.752   8.640   2.017 -0.6323  0.8031  0.3436
14309SOL     OW45464   1.090   3.609   4.106  0.2852  0.5909  0.0759
14309SOL    HW145465   1.090   3.704   4.113  0.4871  0.5556  0.5459
14309SOL    HW245466   1.003   3.583   4.136  0.6968  0.5330  1.2229
14310SOL     OW45467   8.164   6.478   3.502  0.6816  0.5701 -0.7682
14310SOL    HW145468   8.196   6.567   3.488  1.0842  0.7222  1.0045
14310SOL    HW245469   8.105   6.485   3.577  0.1176 -0.5285 -1.0911
14311SOL     OW45470   4.590   7.599   5.878  0.0752 -0.7016  0.5212
14311SOL    HW145471   4.607   7.505   5.872 -1.5856 -1.1734  2.4490
14311SOL    HW245472   4.497   7.605   5.904  0.1002  1.4635  0.2101
14312SOL     OW45473   5.706   0.696   4.895  0.5636  0.0229 -0.5171
14312SOL    HW145474   5.786   0.645   4.905  0.6016  0.4964  1.7635
14312SOL    HW245475   5.637   0.631   4.883  0.6805 -0.5695  1.9144
14313SOL     OW45476   7.313   3.368   3.631  0.1640 -0.0597 -0.1405
14313SOL    HW145477   7.337   3.434   3.696  1.2456  0.0266 -0.6178
14313SOL    HW245478   7.241   3.319   3.671  1.4677 -0.6362  1.5465
14314SOL     OW45479   9.134   5.798   6.059  0.4487 -0.4719 -1.0583
14314SOL    HW145480   9.144   5.776   6.152  1.1335 -1.1006 -1.2723
14314SOL    HW245481   9.082   5.726   6.023 -1.6541  0.8465 -0.7373
14315SOL     OW45482   0.628   2.388   4.759 -0.0725  0.0075 -0.3060
14315SOL    HW145483   0.686   2.363   4.832 -0.9190 -2.4648 -0.4504
14315SOL    HW245484   0.630   2.313   4.700 -1.6482  0.8332 -1.4401
14316SOL     OW45485   8.951   9.225   0.863 -0.5688 -0.2834  0.3420
14316SOL    HW145486   9.041   9.244   0.837 -1.1467  1.2310 -0.6067
14316SOL    HW245487   8.918   9.308   0.898 -2.4617 -0.0391 -1.8860
14317SOL     OW45488   1.470   8.629   8.610  0.2778 -0.1819 -0.6454
14317SOL    HW145489   1.437   8.704   8.660 -0.0200 -0.0084 -1.1028
14317SOL    HW245490   1.418   8.555   8.641 -0.1981  0.0019 -1.0030
14318SOL     OW45491   2.621   6.150   4.070 -0.5469  0.2908  0.0270
14318SOL    HW145492   2.537   6.111   4.095 -1.7492  2.3135 -0.7347
14318SOL    HW245493   2.646   6.203   4.145 -0.7877  0.9999 -0.3880
14319SOL     OW45494   9.956   1.088   0.523  0.2271 -0.6238 -0.2827
14319SOL    HW145495   9.934   1.016   0.464  1.4107 -0.8299 -0.4839
14319SOL    HW245496   9.989   1.045   0.602 -1.3482 -0.3497  0.5428
14320SOL     OW45497   8.748   5.731   2.421  0.4364  0.2953  0.9592
14320SOL    HW145498   8.807   5.759   2.351 -0.7572  1.2305  0.2952
14320SOL    HW245499   8.690   5.806   2.435 -0.9151 -0.7767  1.2354
14321SOL     OW45500   1.935   2.580   4.279 -0.2831 -0.3331 -0.1544
14321SOL    HW145501   1.876   2.546   4.346 -1.1501 -0.2593 -0.8611
14321SOL    HW245502   1.960   2.667   4.309 -0.2601 -0.5047  0.3182
14322SOL     OW45503   4.576   0.405   5.720 -0.5202  0.0369  0.2608
14322SOL    HW145504   4.486   0.433   5.702  0.0694  0.7350 -1.7599
14322SOL    HW245505   4.630   0.479   5.692  0.7379 -0.7103  0.6591
14323SOL     OW45506   9.989   9.446   5.217 -0.1868  0.3179  0.2307
14323SOL    HW145507   9.904   9.408   5.240 -0.3700  0.4755 -0.2009
14323SOL    HW245508   9.968   9.525   5.168  0.2082  0.4455  0.2651
14324SOL     OW45509   4.625   9.895   3.279  0.5043  0.1640  0.1981
14324SOL    HW145510   4.544   9.886   3.228  0.0219 -0.8216  1.1349
14324SOL    HW245511   4.662   9.807   3.281  1.8225  0.6774 -0.5512
14325SOL     OW45512   3.595   4.457   4.012  0.4891  0.5830  0.0899
14325SOL    HW145513   3.603   4.468   3.917  0.1115  0.5648  0.0553
14325SOL    HW245514   3.504   4.433   4.026  0.8626 -0.6954  0.3402
14326SOL     OW45515   8.766   8.345   3.695  0.3467 -0.1878 -0.1137
14326SOL    HW145516   8.715   8.420   3.725 -0.3275 -0.7523  0.1382
14326SOL    HW245517   8.850   8.355   3.740  0.2550  0.3978 -0.0572
14327SOL     OW45518   2.588   1.785   5.425  0.5040  0.2050  0.1288
14327SOL    HW145519   2.637   1.734   5.360  0.3094 -1.4575  1.2373
14327SOL    HW245520   2.621   1.754   5.509 -0.3209  1.2375  0.8369
14328SOL     OW45521   7.518   0.038   3.591  0.4987 -0.0741  0.1331
14328SOL    HW145522   7.485   0.095   3.660  0.3366 -1.0172  0.8478
14328SOL    HW245523   7.583  -0.017   3.634  0.0267 -1.0163 -0.3358
14329SOL     OW45524   0.024   2.788   1.645  0.7150  0.1386 -0.1131
14329SOL    HW145525   0.088   2.721   1.620 -1.1207 -2.2106  1.1864
14329SOL    HW245526   0.012   2.841   1.567  2.7936 -0.6004 -0.9503
14330SOL     OW45527   4.896   0.515   9.342 -0.2833  0.3242 -0.3582
14330SOL    HW145528   4.863   0.491   9.255 -0.9314  2.3587 -0.6984
14330SOL    HW245529   4.819   0.516   9.398 -0.3345  1.8359 -0.4210
14331SOL     OW45530   2.805   4.286   0.349 -0.4789  0.2270  0.7109
14331SOL    HW145531   2.751   4.361   0.326  1.4997  1.5356  0.2834
14331SOL    HW245532   2.746   4.211   0.340 -2.1372  1.5839 -0.0192
14332SOL     OW45533   8.337   3.833   0.891  0.1463 -0.0507 -0.1556
14332SOL    HW145534   8.418   3.863   0.852 -0.0463  1.4972  0.6222
14332SOL    HW245535   8.362   3.796   0.976  0.0816  0.1405 -0.0523
14333SOL     OW45536   8.249   3.350   8.712  0.1893 -0.6656 -0.0587
14333SOL    HW145537   8.186   3.372   8.643 -0.1041  0.3838  0.5377
14333SOL    HW245538   8.253   3.255   8.711 -1.5150 -0.7484 -0.0089
14334SOL     OW45539   0.919   4.248   5.720  0.3105 -0.2665 -0.1491
14334SOL    HW145540   0.993   4.272   5.664  0.0063  0.2725 -0.3191
14334SOL    HW245541   0.933   4.155   5.740  0.6489 -0.3487 -0.7650
14335SOL     OW45542   8.400   5.872   6.972  0.3766  0.1607  0.3021
14335SOL    HW145543   8.362   5.843   6.889  2.8307  1.7667 -1.4548
14335SOL    HW245544   8.392   5.967   6.970  0.4207  0.2123  1.9552
14336SOL     OW45545   1.083   9.626   1.088 -0.2787 -0.2865 -0.4028
14336SOL    HW145546   1.154   9.679   1.052 -0.3731  0.3476  0.3278
14336SOL    HW245547   1.126   9.548   1.123  0.2276  0.6775  1.1843
14337SOL     OW45548   6.329   7.346   3.062 -0.0857 -0.4234  0.0237
14337SOL    HW145549   6.355   7.257   3.086 -0.6816 -0.3659  0.9355
14337SOL    HW245550   6.411   7.389   3.039  0.1698 -1.2952 -0.7478
14338SOL     OW45551   8.103   6.664   5.567  0.0402  0.2690 -0.5495
14338SOL    HW145552   8.179   6.712   5.533  0.5199  0.5776  0.9533
14338SOL    HW245553   8.138   6.608   5.636 -0.9698 -0.2188 -0.4219
14339SOL     OW45554   0.592   1.008   3.528  0.2749  0.1093  0.1130
14339SOL    HW145555   0.595   0.913   3.530  1.7008  0.1409 -0.4249
14339SOL    HW245556   0.683   1.036   3.529 -0.0549  1.4250 -2.1856
14340SOL     OW45557   1.884   2.222   6.072 -0.5382  0.2772 -0.2669
14340SOL    HW145558   1.961   2.166   6.079 -0.0191  0.9381 -0.5597
14340SOL    HW245559   1.886   2.254   5.981 -1.3993 -0.0451 -0.4065
14341SOL     OW45560   5.195   8.214   6.292  0.0944  0.2356 -0.0977
14341SOL    HW145561   5.196   8.275   6.365 -1.4363 -1.8332  1.7204
14341SOL    HW245562   5.286   8.183   6.285  0.1220 -0.0376  1.3752
14342SOL     OW45563   2.418   0.618   9.326  0.2513 -0.2968 -0.1888
14342SOL    HW145564   2.448   0.595   9.238  1.2855 -1.3613  0.4284
14342SOL    HW245565   2.340   0.565   9.340  1.3456 -1.7845  0.3677
14343SOL     OW45566   0.292   0.879   1.893 -0.3115  0.0349  0.7542
14343SOL    HW145567   0.324   0.940   1.960 -0.0345 -0.2326  0.8638
14343SOL    HW245568   0.257   0.805   1.943  0.7305 -0.5795  0.5806
14344SOL     OW45569   1.192   4.198   8.877 -0.5885  0.0176  0.4269
14344SOL    HW145570   1.216   4.109   8.850 -2.1928 -0.2806 -0.1076
14344SOL    HW245571   1.265   4.252   8.849  0.2097 -1.0830  0.3593
14345SOL     OW45572   3.763   8.767   8.691 -0.2939  1.0917 -0.1176
14345SOL    HW145573   3.692   8.715   8.730 -0.3475 -1.0414 -2.9391
14345SOL    HW245574   3.839   8.709   8.693  0.0268  1.4202 -1.9315
14346SOL     OW45575   0.267   5.971   2.344  0.1309  0.0271 -0.7260
14346SOL    HW145576   0.328   5.955   2.416 -1.9374  1.2984  1.3945
14346SOL    HW245577   0.221   5.888   2.333 -0.4049  0.1785  0.2933
14347SOL     OW45578   3.472   7.990   7.803  0.2536 -0.0411 -0.3498
14347SOL    HW145579   3.522   8.045   7.742  1.5969 -1.6899 -0.7871
14347SOL    HW245580   3.539   7.941   7.851 -0.8594 -0.0394  1.2618
14348SOL     OW45581   5.602   8.104   2.573  0.3558  0.3768 -0.5088
14348SOL    HW145582   5.597   8.102   2.669 -2.9802  0.8957 -0.6352
14348SOL    HW245583   5.646   8.187   2.554  0.9591  0.3195  0.5619
14349SOL     OW45584   4.047   9.976   1.609 -0.2700  0.1490 -0.2428
14349SOL    HW145585   4.079   9.930   1.686 -0.2659  0.7259  0.1014
14349SOL    HW245586   3.961   9.938   1.593 -0.9054  1.0727  0.9389
14350SOL     OW45587   0.146   4.570   4.190  0.0702 -0.3872  0.2010
14350SOL    HW145588   0.141   4.637   4.122 -0.6619  0.3595  0.9869
14350SOL    HW245589   0.212   4.508   4.158 -0.2411 -0.0216 -1.1672
14351SOL     OW45590   5.210   8.510   3.960  0.0835 -0.1723  0.4851
14351SOL    HW145591   5.204   8.534   4.052  0.2286  1.6327  0.0495
14351SOL    HW245592   5.301   8.481   3.949  0.5942  1.3729  0.5251
14352SOL     OW45593   4.612   9.666   8.350 -0.1701 -0.3321 -0.1729
14352SOL    HW145594   4.625   9.725   8.276 -1.3615 -0.3518 -0.4015
14352SOL    HW245595   4.521   9.637   8.342 -0.1350 -0.7754  0.9752
14353SOL     OW45596   5.526   3.723   2.352  0.5149 -0.0014 -0.6275
14353SOL    HW145597   5.438   3.746   2.323  1.3794  0.6514 -2.7863
14353SOL    HW245598   5.577   3.804   2.342  2.1668 -1.2474 -2.6608
14354SOL     OW45599   1.307   9.648   3.749  0.0856  0.6664  0.0033
14354SOL    HW145600   1.317   9.603   3.665 -1.9903  2.2196 -1.1391
14354SOL    HW245601   1.218   9.626   3.777  0.0154  1.8494  0.7443
14355SOL     OW45602   0.242   3.945   1.072  0.4829  0.1752 -0.7968
14355SOL    HW145603   0.236   3.878   1.004  0.0569  1.0223 -1.5991
14355SOL    HW245604   0.210   3.901   1.151  0.5378 -0.6675 -1.2314
14356SOL     OW45605   7.388   7.213   2.669  0.0817 -0.3526 -0.2180
14356SOL    HW145606   7.370   7.307   2.664  1.2200 -0.1163  0.2005
14356SOL    HW245607   7.482   7.205   2.653  0.3087 -1.2685  1.4650
14357SOL     OW45608   3.870   0.171   7.308  0.0549  0.1280  0.6206
14357SOL    HW145609   3.913   0.097   7.265  2.6100  1.8047  0.1613
14357SOL    HW245610   3.907   0.172   7.396 -0.3541  0.5611  0.7916
14358SOL     OW45611   7.680   3.709   5.267 -0.0973 -0.2661  0.0984
14358SOL    HW145612   7.620   3.641   5.299  0.2405 -0.0963  1.1060
14358SOL    HW245613   7.633   3.791   5.283 -0.3803 -0.2431 -0.8456
14359SOL     OW45614   6.408   6.411   4.100  0.1189  0.2522  0.0119
14359SOL    HW145615   6.503   6.399   4.100  0.1212  0.0504  2.5349
14359SOL    HW245616   6.395   6.499   4.064  1.3088  0.6051  0.4140
14360SOL     OW45617   6.570   5.340   6.664 -0.0562 -0.3975  0.1122
14360SOL    HW145618   6.546   5.278   6.595  0.3435 -0.7843  0.3148
14360SOL    HW245619   6.659   5.316   6.688  0.3023  0.6279 -0.1905
14361SOL     OW45620   4.099   7.155   8.152 -0.1173  0.5039  0.3632
14361SOL    HW145621   4.034   7.156   8.223 -0.9157  0.7862 -0.3584
14361SOL    HW245622   4.108   7.247   8.128  0.4504  0.4490  0.3644
14362SOL     OW45623   6.608   1.334   0.053  0.2238  0.2037  0.3107
14362SOL    HW145624   6.609   1.293   0.140 -0.2373  1.3303  0.8592
14362SOL    HW245625   6.676   1.401   0.057  1.9905 -1.4405 -1.0655
14363SOL     OW45626   7.310   8.702   8.986 -0.2228 -0.0228 -0.5242
14363SOL    HW145627   7.280   8.614   9.006 -0.2536 -0.1055 -0.9416
14363SOL    HW245628   7.282   8.754   9.062  2.0515 -0.8535  0.9519
14364SOL     OW45629   2.217   1.009   3.044 -0.0024  0.3675 -0.1735
14364SOL    HW145630   2.199   0.915   3.051  0.1204  0.3584  0.0216
14364SOL    HW245631   2.161   1.039   2.973  1.6486 -0.2812 -1.7803
14365SOL     OW45632   7.937   8.851   0.955  0.2497  0.2334 -0.6263
14365SOL    HW145633   7.844   8.871   0.957 -0.0836 -1.2287 -0.7448
14365SOL    HW245634   7.979   8.927   0.995 -1.0272  0.7211 -0.1904
14366SOL     OW45635   0.575   1.331   9.776  0.1175  0.1382 -0.3366
14366SOL    HW145636   0.592   1.247   9.733 -2.2672  0.0856 -1.2909
14366SOL    HW245637   0.638   1.391   9.737  1.3013 -1.0336 -0.2405
14367SOL     OW45638   9.151   3.524   4.432 -0.8272  0.5187 -0.0808
14367SOL    HW145639   9.198   3.475   4.365 -0.1653  0.6034  0.3170
14367SOL    HW245640   9.096   3.459   4.475  0.8064 -0.0924  1.1184
14368SOL     OW45641   8.975   7.947   2.711  0.3844 -0.3419 -0.7104
14368SOL    HW145642   8.989   7.902   2.628 -0.7778 -0.3303 -0.9181
14368SOL    HW245643   9.037   7.905   2.771  0.4597 -1.1072 -1.3099
14369SOL     OW45644   8.173   5.344   8.631  0.3798 -0.3313 -0.0238
14369SOL    HW145645   8.084   5.379   8.637 -1.2042 -3.9785 -0.3848
14369SOL    HW245646   8.208   5.353   8.719 -1.1150 -0.6759  0.6320
14370SOL     OW45647   0.963   0.902   9.483 -0.2214  0.4408 -0.4312
14370SOL    HW145648   1.036   0.842   9.500  0.2042  1.1840  0.4021
14370SOL    HW245649   0.891   0.845   9.456  0.6694 -0.2980 -1.2833
14371SOL     OW45650   4.699   4.138   8.575 -0.1305 -0.5657 -0.2559
14371SOL    HW145651   4.686   4.074   8.645 -0.4129 -1.2104 -0.8909
14371SOL    HW245652   4.741   4.088   8.505 -3.6642 -0.9691 -2.1837
14372SOL     OW45653   4.198   4.786   8.128  0.5383  0.7770  0.9255
14372SOL    HW145654   4.136   4.749   8.191 -0.3001  0.7081  0.0683
14372SOL    HW245655   4.197   4.724   8.055  1.7383  0.6924  0.9677
14373SOL     OW45656   0.964   8.645   1.261 -0.1603 -1.1267 -0.2375
14373SOL    HW145657   0.871   8.624   1.249 -0.3753 -1.6734  2.0920
14373SOL    HW245658   0.999   8.570   1.309  1.1182 -0.1816  0.3297
14374SOL     OW45659   0.834   3.196   6.610 -0.0593 -0.2427 -0.2815
14374SOL    HW145660   0.848   3.250   6.688 -0.4453 -1.3604  0.5743
14374SOL    HW245661   0.921   3.168   6.584  0.1958  1.1734 -1.0246
14375SOL     OW45662   0.147   3.629  10.130  0.5877 -0.0204  0.6000
14375SOL    HW145663   0.106   3.543  10.135 -0.6194  0.5520  0.8644
14375SOL    HW245664   0.220   3.625  10.191  0.9543 -1.0775  0.0940
14376SOL     OW45665   7.695   4.545   9.983  0.5577  0.4308  0.0965
14376SOL    HW145666   7.697   4.557  10.078  0.6298  0.5987  0.0744
14376SOL    HW245667   7.624   4.601   9.953  0.7690  0.6585  0.0131
14377SOL     OW45668   6.665   4.362   7.304 -0.7278  0.2592  0.1290
14377SOL    HW145669   6.570   4.351   7.309 -0.6814  0.1211  0.8039
14377SOL    HW245670   6.699   4.273   7.296 -0.6254  0.2675  0.4668
14378SOL     OW45671   0.660   0.420   4.572 -0.5686  0.3577  0.4135
14378SOL    HW145672   0.655   0.326   4.583 -1.9192  0.2118 -1.1623
14378SOL    HW245673   0.601   0.456   4.638 -1.9288 -0.0396 -0.5631
14379SOL     OW45674   8.414   9.490   0.332  0.3118 -0.2874 -0.1033
14379SOL    HW145675   8.325   9.465   0.305  0.9258 -2.0624 -0.5763
14379SOL    HW245676   8.401   9.549   0.406 -1.2502 -1.1577  0.3355
14380SOL     OW45677   4.469   4.164   3.756  0.1655  0.0656  0.2360
14380SOL    HW145678   4.448   4.182   3.848 -0.1946 -0.6569  0.3034
14380SOL    HW245679   4.564   4.167   3.753  0.1922 -0.1712  0.6974
14381SOL     OW45680   7.957   0.801   2.099  0.1696  0.0996  0.1559
14381SOL    HW145681   8.028   0.809   2.163 -0.0119  1.0795  0.2384
14381SOL    HW245682   7.896   0.739   2.139 -0.4980  1.5624  1.4581
14382SOL     OW45683   4.216   5.970   6.086  0.2553 -0.3209  0.4775
14382SOL    HW145684   4.138   6.017   6.059  0.5043  0.0128  0.3329
14382SOL    HW245685   4.273   5.972   6.008  0.8392  0.3487  0.9156
14383SOL     OW45686   2.778   1.614   0.690  0.5498 -0.0417 -0.3834
14383SOL    HW145687   2.684   1.631   0.688  0.3922 -0.7478  0.4574
14383SOL    HW245688   2.788   1.527   0.651  0.7095 -0.5031  0.6548
14384SOL     OW45689   9.969   3.575   3.919 -0.4270  0.2923 -0.3320
14384SOL    HW145690   9.942   3.507   3.857 -0.5646  0.6987 -0.7214
14384SOL    HW245691   9.888   3.621   3.941 -0.6101 -0.7655  1.2745
14385SOL     OW45692   7.574   2.753   7.353 -0.9349 -0.0069  0.7524
14385SOL    HW145693   7.656   2.737   7.306 -1.8771 -0.0001 -0.9441
14385SOL    HW245694   7.593   2.826   7.411  0.0596  0.4909 -0.1862
14386SOL     OW45695   0.605   0.388   5.168 -0.2786  0.2417  0.8308
14386SOL    HW145696   0.641   0.335   5.239 -0.4924  0.2903  0.9765
14386SOL    HW245697   0.620   0.335   5.089  1.7757  1.0900  0.6408
14387SOL     OW45698   6.138   4.654   6.561  0.1991  0.4935  0.2527
14387SOL    HW145699   6.089   4.595   6.503 -1.2264  1.6334  0.2806
14387SOL    HW245700   6.230   4.635   6.541 -0.2120 -2.1319  0.6564
14388SOL     OW45701   6.681   7.713   4.791  0.0021 -0.4828  0.4174
14388SOL    HW145702   6.715   7.649   4.729 -2.4596  0.3279 -1.8460
14388SOL    HW245703   6.748   7.782   4.795  0.8132 -1.2323 -0.2192
14389SOL     OW45704   1.134   3.723   6.635 -0.2495 -0.0099 -0.9687
14389SOL    HW145705   1.095   3.808   6.613 -0.2354  1.0564  2.8173
14389SOL    HW245706   1.059   3.663   6.640 -1.0873  1.1836  2.3926
14390SOL     OW45707   8.412   9.740   8.130  0.4469  0.7649 -0.3424
14390SOL    HW145708   8.396   9.835   8.131  0.5506  0.7821 -0.2796
14390SOL    HW245709   8.335   9.703   8.087 -0.0864  0.7787  0.5902
14391SOL     OW45710   1.828   2.301   4.658 -0.1875  0.5431  0.2623
14391SOL    HW145711   1.741   2.336   4.679 -0.1736  0.9139 -0.3018
14391SOL    HW245712   1.814   2.207   4.647 -0.7583  0.7751 -1.1014
14392SOL     OW45713  10.175   7.295   7.923 -0.8201  0.3668  0.4834
14392SOL    HW145714  10.217   7.256   7.846 -2.3098 -1.7284  0.7015
14392SOL    HW245715  10.246   7.344   7.966  0.9425 -1.5152 -0.1755
14393SOL     OW45716   0.519   6.055   9.668 -0.7834 -0.1945  0.4922
14393SOL    HW145717   0.606   6.068   9.630 -0.2457 -2.6800  0.8029
14393SOL    HW245718   0.525   6.096   9.755 -0.0691  0.0053  0.3543
14394SOL     OW45719   7.669   9.765   7.568 -0.8011  0.6720  0.0264
14394SOL    HW145720   7.583   9.802   7.586 -1.0917  0.8511 -1.6131
14394SOL    HW245721   7.657   9.670   7.572 -1.3915  0.6722 -1.5214
14395SOL     OW45722   3.783   7.341   6.884  0.1908 -0.1158  0.1511
14395SOL    HW145723   3.817   7.353   6.795 -1.6662 -1.8028 -0.8420
14395SOL    HW245724   3.854   7.298   6.932 -0.0550 -2.5616 -1.5613
14396SOL     OW45725   4.094   2.690   5.328 -0.2236  0.4470 -0.3525
14396SOL    HW145726   4.111   2.735   5.410 -0.5818  2.8014 -1.5253
14396SOL    HW245727   4.179   2.689   5.283  0.4941 -2.8060  0.9212
14397SOL     OW45728   6.251   1.817   4.069  0.3164 -0.0746  0.3810
14397SOL    HW145729   6.247   1.815   4.164 -0.7356  1.6309  0.3949
14397SOL    HW245730   6.333   1.861   4.049 -0.5997  1.7378  0.5391
14398SOL     OW45731   1.411   7.157   2.584  0.1005 -0.2814 -0.1792
14398SOL    HW145732   1.409   7.118   2.496 -0.0330  1.5099 -0.9886
14398SOL    HW245733   1.425   7.250   2.568  0.1160  0.0490  1.7203
14399SOL     OW45734   6.270   1.226   2.250  0.1837 -0.1820 -0.1433
14399SOL    HW145735   6.180   1.231   2.217  0.6324 -1.1542 -1.5381
14399SOL    HW245736   6.261   1.235   2.345 -1.3058  0.6370 -0.3462
14400SOL     OW45737   8.728   1.174  10.136 -0.2776 -0.0036 -0.6454
14400SOL    HW145738   8.805   1.227  10.157 -1.3816  0.9211  1.2573
14400SOL    HW245739   8.731   1.102  10.199 -1.9384  1.0543  0.6858
14401SOL     OW45740   4.148   8.061   3.661 -0.1155 -0.0934 -0.2509
14401SOL    HW145741   4.158   7.991   3.597 -1.0234 -0.0945 -0.3968
14401SOL    HW245742   4.067   8.104   3.637 -0.5101 -0.1459  0.9530
14402SOL     OW45743   1.055   5.414   2.362 -0.3638 -0.0265 -0.1850
14402SOL    HW145744   0.982   5.467   2.395  0.0748  0.1853  0.4578
14402SOL    HW245745   1.017   5.363   2.290 -0.4215  2.4447 -2.0223
14403SOL     OW45746   6.380   1.418   6.903 -0.8315  0.1849  0.2864
14403SOL    HW145747   6.317   1.348   6.888 -1.4256  1.0245 -1.2451
14403SOL    HW245748   6.465   1.380   6.879 -1.0936 -0.1506 -0.1096
14404SOL     OW45749   4.005   0.958   6.463  0.3552 -0.0661 -0.3935
14404SOL    HW145750   3.974   0.948   6.553 -0.5035 -0.7596 -0.7533
14404SOL    HW245751   4.075   0.894   6.454 -0.3816 -0.8588 -0.5750
14405SOL     OW45752   3.101   8.424   3.285  0.6734 -0.4873  0.0565
14405SOL    HW145753   3.186   8.426   3.243  0.7574  2.7022  0.2395
14405SOL    HW245754   3.038   8.431   3.214  0.5641 -2.2175 -0.0319
14406SOL     OW45755   1.796   5.411   7.339  0.1771  0.0657 -0.0386
14406SOL    HW145756   1.731   5.418   7.408 -1.2944 -1.0778 -1.2765
14406SOL    HW245757   1.752   5.444   7.261  1.1202 -0.5910 -0.8623
14407SOL     OW45758   9.650   5.201   0.343 -0.0929 -0.2303 -0.1461
14407SOL    HW145759   9.647   5.287   0.302 -1.2631 -0.2462 -0.1015
14407SOL    HW245760   9.740   5.171   0.329  0.3641  1.0595 -0.0159
14408SOL     OW45761   3.715   1.448   5.450 -0.1383 -0.3402  0.3819
14408SOL    HW145762   3.644   1.430   5.388 -1.7377  1.3166  1.6961
14408SOL    HW245763   3.727   1.365   5.497 -0.3423 -0.9830 -0.6686
14409SOL     OW45764   4.307   0.781   2.046 -0.0980  0.4311  0.2799
14409SOL    HW145765   4.313   0.781   1.951  1.4454  1.2009  0.3669
14409SOL    HW245766   4.218   0.809   2.065 -0.1557  1.0643 -0.9281
14410SOL     OW45767   9.983   4.974   9.169 -0.0046 -0.5641 -0.2461
14410SOL    HW145768  10.042   5.047   9.189  1.2267 -1.7308  0.4732
14410SOL    HW245769   9.933   4.960   9.249 -0.4413 -0.3322 -0.4756
14411SOL     OW45770   5.027   6.942   6.420  0.0804  0.5109 -0.5089
14411SOL    HW145771   5.044   6.933   6.327 -1.9156  1.2176 -0.9582
14411SOL    HW245772   4.935   6.918   6.431  0.1017  1.1019  1.1684
14412SOL     OW45773   7.430   3.324   8.047 -0.3734  0.3798 -0.0403
14412SOL    HW145774   7.375   3.317   8.125 -2.1289 -0.4270 -1.3364
14412SOL    HW245775   7.489   3.249   8.054 -0.3983  0.4108  0.5888
14413SOL     OW45776   9.116   6.439   8.607 -0.3495  0.5472 -0.4622
14413SOL    HW145777   9.081   6.450   8.695  0.5804 -1.3991  0.1715
14413SOL    HW245778   9.040   6.448   8.549 -1.1853  0.5136  0.6216
14414SOL     OW45779   6.201   5.913   7.173 -0.6399  0.0031 -0.4036
14414SOL    HW145780   6.138   5.943   7.108  0.6977 -0.6027 -2.0460
14414SOL    HW245781   6.176   5.822   7.191  0.0673 -0.4211 -1.4842
14415SOL     OW45782   6.558   4.925   6.650  0.3444  0.5376 -0.2538
14415SOL    HW145783   6.604   4.854   6.696  0.4554  1.0741  0.4673
14415SOL    HW245784   6.519   4.882   6.574  0.3303 -0.3296  0.2274
14416SOL     OW45785   0.110   4.752   6.856 -0.3758  0.2158  1.0864
14416SOL    HW145786   0.041   4.775   6.918  0.1680 -0.4346  1.9445
14416SOL    HW245787   0.074   4.680   6.804 -1.2688  1.5309 -0.1530
14417SOL     OW45788   3.812   1.523  10.045 -0.4699 -0.6037  0.2361
14417SOL    HW145789   3.764   1.592  10.000 -0.4779  0.2252  1.4631
14417SOL    HW245790   3.883   1.500   9.985 -0.7035  0.2002 -0.3648
14418SOL     OW45791   5.857   6.361   8.571 -0.2673 -0.4953  0.2916
14418SOL    HW145792   5.847   6.415   8.649 -0.6414  0.1572 -0.2060
14418SOL    HW245793   5.872   6.273   8.605 -0.3189 -0.1986  1.0982
14419SOL     OW45794   8.212   7.249   4.955 -0.2263  0.6341 -0.0033
14419SOL    HW145795   8.307   7.241   4.947 -0.1032 -0.2518  2.1187
14419SOL    HW245796   8.197   7.343   4.967  0.6029  0.5396  2.0485
14420SOL     OW45797   9.461   5.878   6.370 -0.4668  0.4846 -0.1356
14420SOL    HW145798   9.530   5.881   6.436  1.4352  0.8360 -2.0477
14420SOL    HW245799   9.434   5.969   6.359 -0.0849  0.5582 -0.5093
14421SOL     OW45800   8.337   1.662   8.317 -0.3387  0.2398 -0.2482
14421SOL    HW145801   8.347   1.752   8.287 -1.5535  0.5608  0.2771
14421SOL    HW245802   8.327   1.611   8.237  0.1401  0.6053 -0.5393
14422SOL     OW45803   0.076   1.703   8.594  0.1567 -0.5001 -0.0488
14422SOL    HW145804   0.148   1.727   8.537  0.5363  1.2615  1.1404
14422SOL    HW245805   0.023   1.783   8.602 -0.2950 -0.9250  1.4505
14423SOL     OW45806   8.530   3.372   5.357 -0.4211  0.1557 -0.1298
14423SOL    HW145807   8.463   3.350   5.421  0.2095 -1.0516  0.1129
14423SOL    HW245808   8.604   3.316   5.379 -0.6327 -1.1866 -2.6659
14424SOL     OW45809   4.381  10.045   5.563  0.6216 -0.1471  0.1129
14424SOL    HW145810   4.374  10.036   5.658 -0.9559  1.1929  0.1494
14424SOL    HW245811   4.416   9.960   5.534 -1.2308 -1.4810  1.6322
14425SOL     OW45812   1.020   6.979   7.813 -0.2074  0.6240  0.5024
14425SOL    HW145813   1.098   7.034   7.812 -0.4276  0.9399 -0.1132
14425SOL    HW245814   1.050   6.893   7.784 -0.0239  0.6540  0.6045
14426SOL     OW45815   5.801   0.514   1.452  0.0913 -0.1667  0.1620
14426SOL    HW145816   5.803   0.606   1.428  0.4921 -0.1477  0.2637
14426SOL    HW245817   5.782   0.468   1.371  0.2706 -0.0210  0.0373
14427SOL     OW45818   0.229   6.114   7.700  0.8785  0.6507 -0.0861
14427SOL    HW145819   0.283   6.038   7.722  2.7476  2.1824  0.8119
14427SOL    HW245820   0.143   6.094   7.737  0.5389 -2.1709 -2.1684
14428SOL     OW45821   0.496   5.300   8.255 -0.0438  0.1668 -0.2383
14428SOL    HW145822   0.453   5.224   8.215  0.0297 -0.0477  0.0852
14428SOL    HW245823   0.485   5.287   8.349  1.5232 -0.3595 -0.1177
14429SOL     OW45824   1.745   1.389   0.222  0.1535 -0.2790 -0.4095
14429SOL    HW145825   1.733   1.476   0.259  1.1573 -0.5425  0.5641
14429SOL    HW245826   1.822   1.397   0.166 -0.4855 -0.2441 -1.2906
14430SOL     OW45827   5.245   2.465   9.967  0.1517 -0.1976 -0.7284
14430SOL    HW145828   5.244   2.455  10.062  0.6034 -1.3401 -0.8342
14430SOL    HW245829   5.311   2.532   9.950  0.9307 -0.8519 -0.2998
14431SOL     OW45830   5.613   7.059   1.569  0.1225 -0.3730 -0.4747
14431SOL    HW145831   5.612   6.982   1.626 -0.7293  0.4943  0.6830
14431SOL    HW245832   5.528   7.057   1.525  0.3264 -0.4022 -0.8701
14432SOL     OW45833   9.692   6.246   2.188 -0.5986 -0.0206 -0.2148
14432SOL    HW145834   9.645   6.181   2.241  0.2039 -0.3485  0.1054
14432SOL    HW245835   9.703   6.204   2.103 -0.6162 -0.0679 -0.1940
14433SOL     OW45836   7.033   7.985   2.251  0.0891  0.0747 -0.5194
14433SOL    HW145837   6.996   7.940   2.175  2.3897  1.0721 -2.3134
14433SOL    HW245838   7.018   8.078   2.233  2.6712  0.4564 -0.9111
14434SOL     OW45839   7.319   3.557   4.650 -0.1338 -0.2180  0.3007
14434SOL    HW145840   7.361   3.478   4.684  1.9025  0.6488 -0.1069
14434SOL    HW245841   7.385   3.626   4.662 -1.7925  1.3756  0.4547
14435SOL     OW45842   5.113  10.146  10.171  0.3085  0.3025  0.6690
14435SOL    HW145843   5.062  10.069  10.196 -1.1947  0.3687 -1.9684
14435SOL    HW245844   5.079  10.216  10.227  1.1288 -0.7340  2.5233
14436SOL     OW45845   1.741   9.024   3.583  0.3739  0.2334  0.5173
14436SOL    HW145846   1.728   9.110   3.625  1.2465  0.0638  1.1529
14436SOL    HW245847   1.701   9.033   3.497 -0.8179  0.8237  1.1222
14437SOL     OW45848   5.793   7.612   1.203  0.1261 -0.7231 -0.0138
14437SOL    HW145849   5.878   7.655   1.190 -1.3196  2.1569 -0.2342
14437SOL    HW245850   5.763   7.592   1.115 -0.4600  0.3569 -0.0639
14438SOL     OW45851   4.530   5.567   7.492  0.0360 -0.7729  0.1615
14438SOL    HW145852   4.444   5.540   7.458 -0.1551  0.5033 -0.3925
14438SOL    HW245853   4.571   5.485   7.520 -2.2544 -1.1963  2.5371
14439SOL     OW45854   3.917   5.576   8.474  0.2304 -0.5005  0.3795
14439SOL    HW145855   3.859   5.500   8.469  0.7532 -0.8285 -1.0774
14439SOL    HW245856   3.931   5.601   8.383  0.0613  1.3569  0.8552
14440SOL     OW45857   1.713   9.207   0.814 -0.7529  0.6637  0.2263
14440SOL    HW145858   1.782   9.142   0.831 -1.5007 -0.2516 -0.1844
14440SOL    HW245859   1.758   9.279   0.770 -0.2207 -0.3274 -0.8758
14441SOL     OW45860   5.134   9.264   1.104  0.6101  0.2106  0.1777
14441SOL    HW145861   5.119   9.178   1.065  2.5766 -0.2764  0.4462
14441SOL    HW245862   5.091   9.326   1.045 -1.8621 -1.0347  0.6079
14442SOL     OW45863   5.977   1.743   9.271 -0.1429 -0.1984  0.2323
14442SOL    HW145864   5.932   1.674   9.224 -0.0141 -0.5226  0.5797
14442SOL    HW245865   5.928   1.753   9.353 -0.8783  0.9590 -0.3376
14443SOL     OW45866   7.756   6.877   7.414  0.3031  0.0636  0.1982
14443SOL    HW145867   7.742   6.787   7.386 -2.2233  0.4331  0.1836
14443SOL    HW245868   7.735   6.877   7.507  0.8749  0.5409  0.3346
14444SOL     OW45869   0.638   2.086   4.961  0.0024 -0.7152  0.2432
14444SOL    HW145870   0.573   2.078   5.030  0.0512  0.1416  0.3879
14444SOL    HW245871   0.676   2.173   4.972  0.2629 -0.7041 -0.6418
14445SOL     OW45872   6.230   6.786   6.078 -0.9172 -0.0269  0.5290
14445SOL    HW145873   6.318   6.756   6.099 -0.3800 -0.8651 -2.6417
14445SOL    HW245874   6.244   6.870   6.034 -1.6731 -0.3630 -0.3570
14446SOL     OW45875   5.106   3.944   3.854  0.2473  0.2686  0.4974
14446SOL    HW145876   5.055   3.987   3.784  0.4287  1.6545  1.2054
14446SOL    HW245877   5.197   3.957   3.828  0.3515  1.9038  1.6263
14447SOL     OW45878   4.835   6.942   5.612 -0.2095  0.2755  0.3491
14447SOL    HW145879   4.894   7.001   5.564  0.4479 -0.8025 -0.1728
14447SOL    HW245880   4.770   7.001   5.651  0.9287  1.4453  0.5416
14448SOL     OW45881   8.549   0.395   4.431 -0.2543 -0.1353 -0.0373
14448SOL    HW145882   8.628   0.421   4.382 -1.0895  0.9718 -0.8108
14448SOL    HW245883   8.527   0.308   4.396  0.8158 -0.5982  0.4222
14449SOL     OW45884   3.662   7.463   7.361 -0.1990  0.6342 -0.0936
14449SOL    HW145885   3.643   7.369   7.364 -0.7037  0.7201 -0.5185
14449SOL    HW245886   3.676   7.487   7.452  0.9230 -0.0518 -0.0665
14450SOL     OW45887   7.590   9.020   7.597  0.0949 -0.8182  0.0175
14450SOL    HW145888   7.566   8.987   7.683 -0.2897  0.1143  0.2738
14450SOL    HW245889   7.507   9.051   7.559 -0.0766 -2.9116 -1.4438
14451SOL     OW45890   2.985   5.089   8.672  0.4174  0.1678 -0.4099
14451SOL    HW145891   3.064   5.142   8.663 -0.2611  0.8303 -2.8677
14451SOL    HW245892   2.914   5.153   8.678 -0.4612 -0.4086 -3.9115
14452SOL     OW45893   3.850   5.007   3.745 -0.1755 -0.2720 -0.8046
14452SOL    HW145894   3.834   5.099   3.726  1.2274  0.5227  1.7136
14452SOL    HW245895   3.945   4.998   3.742 -0.1061 -0.9252  1.8847
14453SOL     OW45896   4.798   8.610   0.868  1.2383 -0.0797  0.0846
14453SOL    HW145897   4.771   8.524   0.899 -0.6851 -0.5043 -2.6146
14453SOL    HW245898   4.870   8.593   0.808  0.7458  0.1682 -0.5801
14454SOL     OW45899   7.289   6.764   0.782 -0.1103  0.2091  0.2045
14454SOL    HW145900   7.204   6.765   0.827 -0.6769 -0.3400 -0.8553
14454SOL    HW245901   7.329   6.681   0.808 -0.4848 -0.1573 -0.3888
14455SOL     OW45902   9.002   5.160   9.819 -0.3516 -0.0571 -0.5229
14455SOL    HW145903   8.970   5.074   9.791  0.7300 -0.7017  0.1807
14455SOL    HW245904   8.924   5.205   9.851 -1.0138 -0.5835 -1.3734
14456SOL     OW45905   2.100   2.872   0.512 -0.2195 -0.5310  0.0077
14456SOL    HW145906   2.033   2.872   0.443 -0.1985 -1.1355 -0.0200
14456SOL    HW245907   2.074   2.800   0.569  0.0750 -0.3811  0.3300
14457SOL     OW45908   9.644   7.649   7.964  0.2804  0.4805  0.1136
14457SOL    HW145909   9.618   7.639   8.055  2.2541 -1.7471  0.4754
14457SOL    HW245910   9.582   7.593   7.916 -0.6718  1.5463  0.0890
14458SOL     OW45911   2.947   5.645   3.880 -0.3794 -0.1559 -0.8502
14458SOL    HW145912   3.030   5.603   3.858  0.8193  0.3611  2.3716
14458SOL    HW245913   2.943   5.721   3.822  1.7843  0.2338 -0.5554
14459SOL     OW45914   9.187   8.942   1.948 -0.2795  0.5304  0.3471
14459SOL    HW145915   9.221   8.857   1.975  1.7000  0.7146 -1.4179
14459SOL    HW245916   9.134   8.923   1.871  0.6435  0.9533 -0.3986
14460SOL     OW45917   6.366   5.138   2.349  0.1917  0.2500  0.4304
14460SOL    HW145918   6.354   5.222   2.304 -0.9407 -0.6468 -0.9390
14460SOL    HW245919   6.394   5.163   2.437  0.4628  2.0569 -0.1412
14461SOL     OW45920   3.687   1.971   1.125  0.7853 -0.2777  0.1734
14461SOL    HW145921   3.737   2.028   1.184 -0.5536  0.3032  0.7792
14461SOL    HW245922   3.625   2.030   1.081  0.5777 -0.9890 -0.4977
14462SOL     OW45923   6.020   1.141   4.848  0.2239 -0.0225 -0.2292
14462SOL    HW145924   6.103   1.108   4.882  0.2745 -0.1387 -0.4666
14462SOL    HW245925   6.028   1.133   4.753  0.0908  0.3321 -0.2680
14463SOL     OW45926   5.971   6.801   1.671 -0.0007  0.0805  0.1047
14463SOL    HW145927   5.882   6.808   1.704 -0.3877 -3.7574  0.0029
14463SOL    HW245928   5.961   6.792   1.576  0.5790  0.6527 -0.0203
14464SOL     OW45929   8.389   3.344   5.887 -0.2514 -0.3426 -0.0924
14464SOL    HW145930   8.390   3.276   5.954  1.3035  0.4861  0.7749
14464SOL    HW245931   8.480   3.373   5.881 -0.9584  2.0866  0.0360
14465SOL     OW45932   0.858   9.818   2.297  0.7486  0.3356  0.6007
14465SOL    HW145933   0.780   9.838   2.245 -0.4772  1.1423  2.6890
14465SOL    HW245934   0.914   9.894   2.286  2.0606 -0.9518 -2.2682
14466SOL     OW45935   9.012   1.935   1.559 -0.1016  0.1859  0.3058
14466SOL    HW145936   9.022   1.873   1.487 -0.8764  1.9772 -1.4030
14466SOL    HW245937   8.918   1.955   1.560  0.1643  1.4433  0.7301
14467SOL     OW45938   6.355   0.704   4.447  0.3682  0.2267 -0.3238
14467SOL    HW145939   6.296   0.639   4.410  0.0752  1.0785 -1.3511
14467SOL    HW245940   6.440   0.660   4.451  0.1044 -0.3221 -0.7246
14468SOL     OW45941   0.990   1.520   0.309 -0.0489 -0.0987  0.4999
14468SOL    HW145942   1.078   1.536   0.342 -0.5107 -0.5792  1.9724
14468SOL    HW245943   1.002   1.508   0.214  1.7594 -2.3821  0.9653
14469SOL     OW45944   9.150   2.185   1.078  0.0949 -0.7659 -0.1315
14469SOL    HW145945   9.155   2.199   1.172 -2.0096 -0.8661  0.0202
14469SOL    HW245946   9.059   2.158   1.063 -0.0928  1.0397 -2.4164
14470SOL     OW45947   4.225   8.526   2.431 -0.0689  0.5661  0.0133
14470SOL    HW145948   4.288   8.458   2.454 -1.3571  0.0468  2.2156
14470SOL    HW245949   4.153   8.478   2.389  0.1175  0.8938 -0.6825
14471SOL     OW45950   5.771   2.057   3.228  0.2983  0.0351  0.0784
14471SOL    HW145951   5.856   2.098   3.217 -0.0715  1.0632  0.9733
14471SOL    HW245952   5.786   1.964   3.209  1.9614 -0.0701  1.8204
14472SOL     OW45953   0.717   2.524   0.595  1.0980 -0.0642 -0.6337
14472SOL    HW145954   0.801   2.557   0.629  0.2054  1.8175 -0.1831
14472SOL    HW245955   0.729   2.523   0.500  1.2117  1.4391 -0.6499
14473SOL     OW45956   6.254   3.957   2.296  0.0090  0.2311 -0.5111
14473SOL    HW145957   6.334   3.911   2.272  1.4527  1.4751  1.7556
14473SOL    HW245958   6.183   3.904   2.259  1.8716 -0.7735 -2.7123
14474SOL     OW45959   0.279   5.099   3.176 -0.7628  0.1888 -0.6458
14474SOL    HW145960   0.220   5.170   3.152  0.8558  1.6757 -0.3052
14474SOL    HW245961   0.291   5.108   3.270 -0.9854 -0.9072 -0.4955
14475SOL     OW45962   8.773   5.872   5.998 -0.2030 -0.0321  0.1572
14475SOL    HW145963   8.793   5.780   5.981  0.2755 -0.5146  3.0626
14475SOL    HW245964   8.823   5.920   5.932  2.4114 -1.7157  0.8383
14476SOL     OW45965   8.046   8.540   9.685  0.0004 -0.3524  0.0991
14476SOL    HW145966   7.952   8.560   9.684  0.1529  0.3510 -0.7763
14476SOL    HW245967   8.050   8.449   9.714 -0.8671 -0.0038  1.3839
14477SOL     OW45968   3.136   9.126   1.705  0.5310 -0.4342  0.2581
14477SOL    HW145969   3.223   9.108   1.739  0.6334 -0.0087  0.2246
14477SOL    HW245970   3.150   9.144   1.612  0.5891  1.0000  0.5276
14478SOL     OW45971   8.875   5.138   1.636 -0.7232 -0.1846  0.6180
14478SOL    HW145972   8.915   5.143   1.723 -0.8166  2.0190  0.5711
14478SOL    HW245973   8.830   5.222   1.626 -1.2721 -0.6866 -1.2878
14479SOL     OW45974   4.390   3.527   5.835  0.8972 -0.2314  0.2288
14479SOL    HW145975   4.433   3.598   5.882  1.5021 -1.5822  1.7895
14479SOL    HW245976   4.333   3.487   5.901  0.0129 -0.7279 -0.8339
14480SOL     OW45977   3.214   5.884   8.941 -0.5623 -0.1681 -0.1383
14480SOL    HW145978   3.202   5.945   9.014  0.4478  0.2656 -0.3371
14480SOL    HW245979   3.306   5.858   8.946 -0.3218  0.3755 -1.6544
14481SOL     OW45980   7.690   6.275   8.032 -0.5180 -0.0354  0.0485
14481SOL    HW145981   7.726   6.241   7.950 -1.5405 -1.1216  0.0278
14481SOL    HW245982   7.689   6.200   8.091  3.0815  1.4069  2.1179
14482SOL     OW45983   8.292   1.228   5.060  0.5232 -0.1039 -0.2902
14482SOL    HW145984   8.312   1.153   5.116  1.2577 -1.6574 -2.5349
14482SOL    HW245985   8.321   1.201   4.973 -0.0409  2.4576 -1.3295
14483SOL     OW45986   4.143   6.838   5.645  0.2566  0.3778  0.0861
14483SOL    HW145987   4.144   6.749   5.612  0.1854  1.1007 -1.9396
14483SOL    HW245988   4.229   6.849   5.687  0.5417 -0.4177 -0.2827
14484SOL     OW45989   1.731   6.268   2.395  0.6116 -0.5685  0.0524
14484SOL    HW145990   1.711   6.263   2.489 -1.3300 -1.1186 -0.3562
14484SOL    HW245991   1.730   6.177   2.366 -0.0613 -0.3167 -0.7321
14485SOL     OW45992   8.088   9.426   3.371 -0.0937  0.2346  0.3367
14485SOL    HW145993   8.067   9.334   3.355 -0.3249  0.5567 -1.2059
14485SOL    HW245994   8.057   9.442   3.460  0.3230 -1.2873  0.7798
14486SOL     OW45995   0.820   1.663   6.769  0.2173  0.1206  0.4639
14486SOL    HW145996   0.899   1.656   6.823  0.0966  1.0500  0.7727
14486SOL    HW245997   0.824   1.588   6.710  0.7575 -0.4653  1.2333
14487SOL     OW45998   8.269   3.524   0.998 -0.0837  0.2945 -0.1770
14487SOL    HW145999   8.362   3.545   0.992 -0.0424  0.1415 -0.0731
14487SOL    HW246000   8.231   3.596   1.048  0.0535  0.1397  0.1545
14488SOL     OW46001   8.732   1.398   8.068 -0.4263  0.4349 -0.1206
14488SOL    HW146002   8.768   1.461   8.130 -0.7038 -0.3403  0.8318
14488SOL    HW246003   8.801   1.387   8.002  0.3487  0.3536  0.6963
14489SOL     OW46004   6.049   9.765   7.043  0.0534  0.6380  0.3845
14489SOL    HW146005   6.026   9.837   7.102 -0.4207  0.3713  0.5225
14489SOL    HW246006   5.977   9.703   7.051  0.9431 -0.3244  1.0254
14490SOL     OW46007   6.771   0.771   1.198  0.1163  0.5112  0.0530
14490SOL    HW146008   6.762   0.730   1.284 -0.2175 -1.3849 -0.8715
14490SOL    HW246009   6.686   0.757   1.157  0.2986  1.3632 -0.6235
14491SOL     OW46010   3.605   7.899   1.711 -0.0711 -0.8415  0.0613
14491SOL    HW146011   3.584   7.990   1.735  3.5644  0.1598 -0.2061
14491SOL    HW246012   3.646   7.862   1.789  1.7389 -1.0582 -0.9442
14492SOL     OW46013   9.683   2.785   1.729  0.0419  0.0910  0.8496
14492SOL    HW146014   9.751   2.852   1.727 -0.2925  0.4142 -2.9595
14492SOL    HW246015   9.601   2.834   1.727 -0.2245 -0.3672  0.2179
14493SOL     OW46016   1.574   0.697   7.387  0.0584 -0.3198  0.5522
14493SOL    HW146017   1.619   0.683   7.304  1.1881 -0.2890  1.1494
14493SOL    HW246018   1.484   0.668   7.371  0.1295  0.1919 -0.8380
14494SOL     OW46019   6.227   5.031   1.967  0.7904 -0.3186 -0.1230
14494SOL    HW146020   6.196   5.108   1.919 -0.2372  0.6761  2.0516
14494SOL    HW246021   6.296   4.995   1.913  0.1032  1.1422 -2.0237
14495SOL     OW46022   5.880   3.083   0.416  0.2411  0.1901 -0.0716
14495SOL    HW146023   5.846   3.080   0.326 -0.5620 -0.3616  0.2485
14495SOL    HW246024   5.879   2.992   0.444 -0.8393  0.5237  0.9936
14496SOL     OW46025   5.422   9.612   4.783 -0.0554  0.0465 -0.1453
14496SOL    HW146026   5.400   9.703   4.762 -1.8328 -0.0943  1.0044
14496SOL    HW246027   5.362   9.561   4.729  0.5081 -0.4482 -0.3114
14497SOL     OW46028   9.364   1.293   4.072  0.6561  0.8242  0.1314
14497SOL    HW146029   9.401   1.359   4.130 -0.7637  0.8705  1.0143
14497SOL    HW246030   9.348   1.339   3.989  2.8205  0.7195 -0.3767
14498SOL     OW46031   9.462   6.926   5.093  0.2493 -0.4397  0.2607
14498SOL    HW146032   9.475   6.851   5.035 -1.1050  0.5336 -1.3405
14498SOL    HW246033   9.370   6.922   5.117  0.0186  1.0444 -0.3241
14499SOL     OW46034   7.983   3.231   2.615 -0.3170 -0.3734  0.1742
14499SOL    HW146035   7.928   3.209   2.690 -0.0409 -1.1422  0.1514
14499SOL    HW246036   7.924   3.226   2.539 -0.6908  0.7962  0.3783
14500SOL     OW46037   4.240   7.812   7.041 -0.7879 -0.1128 -0.1694
14500SOL    HW146038   4.261   7.805   7.134  0.4844  1.5736 -0.3080
14500SOL    HW246039   4.145   7.804   7.037 -0.8266 -0.4284  1.2458
14501SOL     OW46040   9.771   9.828   2.129  0.1865 -0.4766  0.1531
14501SOL    HW146041   9.864   9.808   2.121  0.0769 -1.1541  0.4909
14501SOL    HW246042   9.729   9.768   2.066  0.0515  0.4334 -0.6323
14502SOL     OW46043   6.767   8.811   3.822 -0.3421 -0.2606  0.2521
14502SOL    HW146044   6.709   8.799   3.897 -2.1088 -2.4559 -1.3960
14502SOL    HW246045   6.742   8.742   3.760  0.7117  1.7783 -2.5806
14503SOL     OW46046   6.646   0.422   8.235  0.0887 -0.2272  0.2753
14503SOL    HW146047   6.723   0.366   8.243 -0.4922 -1.2164 -0.7218
14503SOL    HW246048   6.613   0.431   8.324  1.1659 -0.0657  0.6606
14504SOL     OW46049   9.116   2.542   5.728 -0.3486  0.1140  0.6822
14504SOL    HW146050   9.112   2.446   5.725  3.0472 -0.0533 -0.8264
14504SOL    HW246051   9.118   2.569   5.636  2.1037  1.3869  1.0575
14505SOL     OW46052   9.700   8.514   4.686 -0.2524 -0.3215  0.0963
14505SOL    HW146053   9.776   8.457   4.668  1.0333  1.2646  0.3543
14505SOL    HW246054   9.729   8.601   4.659 -1.6701  0.4719  1.0653
14506SOL     OW46055   9.479   3.009   2.448  0.0049  0.5318 -0.0289
14506SOL    HW146056   9.410   2.998   2.513 -0.4333 -0.9039 -0.7112
14506SOL    HW246057   9.531   2.929   2.455  0.1615  0.5235 -1.1911
14507SOL     OW46058   3.936   1.066   7.362 -0.0661  0.0754 -0.3945
14507SOL    HW146059   4.030   1.077   7.350  0.0578 -0.2964  0.2325
14507SOL    HW246060   3.928   1.001   7.432 -0.7814 -0.3084 -0.8222
14508SOL     OW46061   5.727   7.452   4.866 -0.3848 -0.1474  0.0692
14508SOL    HW146062   5.788   7.406   4.924  0.0198 -0.2173 -0.4037
14508SOL    HW246063   5.670   7.383   4.832  1.6735 -0.7050 -2.4357
14509SOL     OW46064   4.621   1.882   4.240 -0.4339 -0.8484  0.1477
14509SOL    HW146065   4.555   1.843   4.183 -0.0393 -1.2951 -0.0126
14509SOL    HW246066   4.704   1.846   4.208  0.0681  1.0829 -0.8019
14510SOL     OW46067   2.022   8.260   2.770 -0.2843 -0.6176 -0.8200
14510SOL    HW146068   1.991   8.176   2.802  1.4840 -0.8040  0.4887
14510SOL    HW246069   1.968   8.325   2.815 -0.1922 -0.9932 -0.1641
14511SOL     OW46070   0.607   0.551   7.182  0.2738 -0.6513 -0.0416
14511SOL    HW146071   0.679   0.600   7.221  0.2814 -0.4503 -0.3048
14511SOL    HW246072   0.529   0.603   7.201  0.4208  0.0577 -1.3086
14512SOL     OW46073   2.330   3.927   8.463 -0.2222  0.2752 -0.4022
14512SOL    HW146074   2.289   3.857   8.411  0.2269  0.4408 -0.9814
14512SOL    HW246075   2.419   3.934   8.428 -0.8658  2.4991 -1.7088
14513SOL     OW46076   2.716   8.411   5.886 -0.1114  0.1877  0.1759
14513SOL    HW146077   2.691   8.491   5.933  0.9183  0.5472  0.1302
14513SOL    HW246078   2.791   8.377   5.934  1.4361  0.9735 -1.6006
14514SOL     OW46079   7.874   4.052   4.254  0.2909 -0.2640  0.4344
14514SOL    HW146080   7.856   4.126   4.312 -0.3873  0.1495 -0.2905
14514SOL    HW246081   7.791   4.005   4.249  0.3224 -0.2474 -0.2740
14515SOL     OW46082   6.214   9.060   1.125 -0.0208  0.2907  0.0079
14515SOL    HW146083   6.277   9.075   1.053  0.0349 -0.0160 -0.0084
14515SOL    HW246084   6.263   9.080   1.204 -0.1353  0.8016 -0.0516
14516SOL     OW46085   6.156   2.271   7.145  0.5275 -0.3575  0.7573
14516SOL    HW146086   6.145   2.179   7.121 -2.7074  0.1567  0.1056
14516SOL    HW246087   6.208   2.308   7.074 -0.3213 -1.1178 -0.2710
14517SOL     OW46088   5.841   6.201   8.316  0.3070  0.4400 -0.7164
14517SOL    HW146089   5.874   6.141   8.383 -1.9559 -1.6267 -1.3905
14517SOL    HW246090   5.829   6.284   8.362 -0.0715 -0.6160  1.1560
14518SOL     OW46091   9.084   6.414   6.565  0.6401 -0.4249 -0.8891
14518SOL    HW146092   9.110   6.485   6.507  0.2581 -0.3294 -0.9439
14518SOL    HW246093   9.155   6.350   6.558  1.4992  0.4114 -0.0326
14519SOL     OW46094   2.048   4.846   2.961  0.5410  0.7172 -0.4006
14519SOL    HW146095   2.101   4.913   2.917  2.4876  0.2729  1.2053
14519SOL    HW246096   2.067   4.765   2.914  0.1528  0.8242 -0.7432
14520SOL     OW46097   3.048   0.741   2.444  0.0813  0.3897  0.0257
14520SOL    HW146098   3.078   0.791   2.520  1.3566 -0.5064  0.1452
14520SOL    HW246099   3.084   0.788   2.369 -1.2136  1.2987 -0.0417
14521SOL     OW46100   0.673   3.266   2.298 -0.1048 -0.8081 -0.3648
14521SOL    HW146101   0.639   3.227   2.379 -0.1619 -2.0360 -0.9605
14521SOL    HW246102   0.703   3.190   2.246  2.2585  0.1179 -0.4415
14522SOL     OW46103   4.073  10.060   0.256  0.2484 -0.4637  0.0109
14522SOL    HW146104   4.118  10.119   0.196  0.4661  0.0859  0.7019
14522SOL    HW246105   3.980  10.069   0.233  0.4273 -1.0407 -0.9250
14523SOL     OW46106   4.812   1.799   6.248 -0.0928 -0.2365 -0.3753
14523SOL    HW146107   4.780   1.835   6.331 -0.6964  0.3461 -0.8588
14523SOL    HW246108   4.741   1.813   6.186 -0.1640 -1.8423 -0.6947
14524SOL     OW46109   3.024   4.374   1.005  0.4732 -1.2911  0.0962
14524SOL    HW146110   3.050   4.375   0.914 -0.9051  2.3322 -0.3370
14524SOL    HW246111   3.103   4.351   1.053  1.9902 -0.0950 -1.7903
14525SOL     OW46112   7.847   0.429   1.732 -0.0440 -0.6794  0.0812
14525SOL    HW146113   7.859   0.421   1.827 -0.5221 -1.8936  0.0405
14525SOL    HW246114   7.814   0.518   1.720  3.8740  0.9594  0.6711
14526SOL     OW46115   9.181   0.967   6.186 -0.4049  0.1933 -0.5185
14526SOL    HW146116   9.218   0.879   6.193  1.9829  1.2647  1.0980
14526SOL    HW246117   9.218   1.014   6.260 -1.9297  2.4738 -1.1641
14527SOL     OW46118   3.618   7.038  10.076  0.7110 -0.6151 -0.4057
14527SOL    HW146119   3.621   6.962  10.019 -0.3625  0.3514 -1.7901
14527SOL    HW246120   3.524   7.059  10.084  0.7500 -1.2384  2.4161
14528SOL     OW46121   1.504   1.512   9.569 -0.2864  0.4168  0.0716
14528SOL    HW146122   1.588   1.485   9.605 -0.5411 -0.5358 -0.0309
14528SOL    HW246123   1.474   1.582   9.627 -1.0100 -1.5581  2.1379
14529SOL     OW46124   7.683   7.804   3.313  0.3360 -0.0459  0.3447
14529SOL    HW146125   7.753   7.784   3.376 -0.4273 -0.0805  1.1929
14529SOL    HW246126   7.615   7.846   3.365  0.1126  0.8614 -0.6541
14530SOL     OW46127   8.812   1.828   8.887  0.1020 -0.2818 -0.2701
14530SOL    HW146128   8.854   1.782   8.815 -0.5537  0.2138 -0.9848
14530SOL    HW246129   8.740   1.876   8.845 -0.0336  0.3253  0.6543
14531SOL     OW46130  10.050   8.058   6.618 -0.2203 -0.2236 -0.0135
14531SOL    HW146131  10.066   8.108   6.538  0.6733  1.7553  1.3716
14531SOL    HW246132   9.957   8.072   6.636 -0.3051 -0.2492 -0.4220
14532SOL     OW46133   9.973   4.576   0.105 -0.3524  0.2456 -0.1464
14532SOL    HW146134   9.958   4.483   0.085 -2.2582  0.9268 -2.0790
14532SOL    HW246135  10.030   4.607   0.035 -2.0551  1.1984 -1.1306
14533SOL     OW46136   1.551   1.087   3.074  0.0940  0.2734 -0.5871
14533SOL    HW146137   1.618   1.144   3.113  0.5987  0.2311 -1.3759
14533SOL    HW246138   1.472   1.140   3.074 -0.4976 -0.4718  2.5454
14534SOL     OW46139   5.291   3.656   2.074  0.0142  0.1823  0.8054
14534SOL    HW146140   5.384   3.638   2.056  0.5740  1.2843  2.3920
14534SOL    HW246141   5.271   3.600   2.149 -0.2552  0.8315  1.2204
14535SOL     OW46142   0.881   8.774   6.733 -0.0739  0.4555  0.1627
14535SOL    HW146143   0.829   8.805   6.659 -0.8869  1.0775  0.9814
14535SOL    HW246144   0.927   8.853   6.763 -1.1560  0.6005  1.4545
14536SOL     OW46145   6.247   7.061   2.518  0.5278  0.3501  0.2731
14536SOL    HW146146   6.271   7.055   2.611  0.9458 -1.0094  0.0818
14536SOL    HW246147   6.308   7.002   2.473 -1.3344 -0.9851 -0.5491
14537SOL     OW46148   0.951   4.742   9.538 -0.5943  0.4164  0.1160
14537SOL    HW146149   1.046   4.746   9.544 -0.6652  1.1449  0.6883
14537SOL    HW246150   0.922   4.706   9.622 -0.7254 -1.3027 -0.6418
14538SOL     OW46151   4.624   3.502   4.146 -0.3141  0.1619 -0.0382
14538SOL    HW146152   4.701   3.550   4.114 -0.7121  1.7358  1.3053
14538SOL    HW246153   4.660   3.431   4.199  0.2156  1.6522  1.6378
14539SOL     OW46154   8.080   7.966   4.894 -0.0469 -1.3241 -0.1839
14539SOL    HW146155   8.004   7.907   4.893  0.3508 -1.9146  2.1453
14539SOL    HW246156   8.155   7.910   4.873 -0.0483 -1.0208 -1.0357
14540SOL     OW46157   1.553   5.463   3.180 -0.4071 -0.7192 -0.1720
14540SOL    HW146158   1.509   5.491   3.100  0.2450  0.1495 -0.2307
14540SOL    HW246159   1.643   5.491   3.170 -0.6981  0.9534  1.6042
14541SOL     OW46160   8.093   1.720   4.004 -0.1780  0.0274 -0.2479
14541SOL    HW146161   8.020   1.711   4.065 -1.2673 -0.0590 -1.5225
14541SOL    HW246162   8.069   1.794   3.949  0.8414  0.1823 -0.4833
14542SOL     OW46163   1.249   5.209   0.855  0.2323 -0.1766 -0.0911
14542SOL    HW146164   1.281   5.239   0.940 -0.4875 -1.4411  0.6395
14542SOL    HW246165   1.221   5.119   0.870  1.7173 -1.0231 -2.0814
14543SOL     OW46166   2.827   7.397   6.628  0.1022  0.7123 -0.2670
14543SOL    HW146167   2.766   7.332   6.662  1.0293 -1.1916 -2.1501
14543SOL    HW246168   2.912   7.370   6.661  0.2889  1.9945  0.3586
14544SOL     OW46169   1.775   0.214   2.282  0.1916 -0.3515 -0.2176
14544SOL    HW146170   1.764   0.119   2.285 -0.0914 -0.2925  1.0973
14544SOL    HW246171   1.689   0.249   2.307  0.3400  0.2470 -0.5354
14545SOL     OW46172   1.700   0.798   2.091 -0.0315 -0.1791  0.5194
14545SOL    HW146173   1.756   0.734   2.048  0.4036  1.2881 -1.1806
14545SOL    HW246174   1.617   0.794   2.042 -0.2427  0.0632  0.8551
14546SOL     OW46175   1.013   1.302   1.700 -0.5173 -0.1100 -0.4577
14546SOL    HW146176   0.975   1.222   1.663  0.8389 -1.0823  0.1921
14546SOL    HW246177   0.976   1.372   1.647  0.9305 -1.4194 -3.3182
14547SOL     OW46178   1.225   4.644   6.715  0.0540  0.4755  0.6524
14547SOL    HW146179   1.146   4.684   6.751  0.0445  0.2707  0.8601
14547SOL    HW246180   1.294   4.665   6.778  0.1951  0.7795  0.3968
14548SOL     OW46181   9.508   5.346   9.327  0.0750 -0.8712 -0.4428
14548SOL    HW146182   9.536   5.264   9.286 -0.4286 -0.3396 -1.8840
14548SOL    HW246183   9.418   5.331   9.354  0.6643 -1.4905  1.2318
14549SOL     OW46184   0.292   1.411   4.263 -0.1904 -0.3322  0.1214
14549SOL    HW146185   0.208   1.366   4.270 -0.2179 -0.2949  0.0176
14549SOL    HW246186   0.349   1.349   4.218 -0.2668 -0.2064 -0.1443
14550SOL     OW46187   5.262   0.969   5.788 -0.4477 -0.1126  0.1626
14550SOL    HW146188   5.215   1.053   5.788 -0.6892 -0.2485 -0.3140
14550SOL    HW246189   5.213   0.914   5.726 -0.3019 -0.6126  0.4927
14551SOL     OW46190   8.278   4.512   0.417 -0.2555  0.3180 -0.2542
14551SOL    HW146191   8.350   4.478   0.364 -1.0036  0.9571 -1.7104
14551SOL    HW246192   8.271   4.451   0.490  2.4599  0.8238  0.4960
14552SOL     OW46193   0.844   7.524   9.264 -0.3833 -0.1007  0.0120
14552SOL    HW146194   0.841   7.575   9.345 -0.0302  1.6984 -1.0642
14552SOL    HW246195   0.934   7.534   9.233 -0.5608 -0.6115 -0.6930
14553SOL     OW46196   7.730   1.147   6.109  0.1885 -0.1326  0.0524
14553SOL    HW146197   7.716   1.226   6.161 -0.6857  1.8510 -3.0445
14553SOL    HW246198   7.642   1.112   6.094  0.0919  1.2288 -2.8525
14554SOL     OW46199   4.894   2.841   5.809 -0.3783 -0.0171 -0.3024
14554SOL    HW146200   4.807   2.818   5.842 -0.3433 -0.3687 -0.4529
14554SOL    HW246201   4.946   2.762   5.822 -0.0078  0.2798  0.0334
14555SOL     OW46202   7.732   0.086   1.369  0.0160 -0.0875  0.3626
14555SOL    HW146203   7.715   0.039   1.450  0.5842 -1.7228 -0.4407
14555SOL    HW246204   7.660   0.060   1.311  1.2195 -1.2950 -0.6246
14556SOL     OW46205  10.094   6.457   5.015 -0.5094  0.2100 -0.0980
14556SOL    HW146206  10.095   6.468   4.920 -1.7373 -0.9690 -0.2563
14556SOL    HW246207  10.112   6.545   5.049 -2.9938  1.2720 -1.4005
14557SOL     OW46208   3.554   7.010   6.237 -0.3033 -0.4419 -0.1629
14557SOL    HW146209   3.479   7.060   6.205  0.8752  0.5110 -1.4809
14557SOL    HW246210   3.518   6.923   6.257 -1.5658 -0.2830 -1.7007
14558SOL     OW46211   7.650   0.867   4.825  0.0197 -0.2558  0.4810
14558SOL    HW146212   7.615   0.939   4.878 -0.6551 -0.0334 -0.2451
14558SOL    HW246213   7.575   0.809   4.811 -0.1687  0.3813 -1.3593
14559SOL     OW46214   9.066   2.897   0.006 -0.1513 -0.5069 -0.0668
14559SOL    HW146215   9.160   2.913   0.010 -0.1101 -0.4153 -1.2273
14559SOL    HW246216   9.036   2.911   0.096  0.5603  1.7663 -0.1416
14560SOL     OW46217   1.821   7.801   7.403  0.3782  0.2933 -0.4943
14560SOL    HW146218   1.894   7.762   7.451 -0.0945  1.2748  1.0630
14560SOL    HW246219   1.780   7.727   7.357  0.1822 -0.8839  1.5004
14561SOL     OW46220   8.745   2.469   3.405  0.7951  0.4885  0.0145
14561SOL    HW146221   8.762   2.563   3.410 -0.0065  0.5722  1.5552
14561SOL    HW246222   8.817   2.429   3.453  0.9196  0.3392 -0.2969
14562SOL     OW46223   7.973  10.111   2.601  0.4996 -0.5939 -0.0735
14562SOL    HW146224   7.892  10.095   2.552  1.1241 -2.8662 -0.4370
14562SOL    HW246225   8.032  10.149   2.536  0.2503 -0.4695 -0.2289
14563SOL     OW46226   6.380   0.415   8.827  0.1883 -0.0366 -0.0439
14563SOL    HW146227   6.310   0.429   8.891  0.1603  2.7488 -0.6222
14563SOL    HW246228   6.334   0.394   8.746  0.0894  0.4151 -0.1019
14564SOL     OW46229   7.979   0.633   9.050 -0.2400 -0.2794 -0.0770
14564SOL    HW146230   7.926   0.689   9.107 -1.3881 -1.2708 -0.1290
14564SOL    HW246231   8.069   0.655   9.071 -0.6692  0.6518  0.8334
14565SOL     OW46232   3.596   1.540   7.428 -0.1018 -0.9342  0.0256
14565SOL    HW146233   3.672   1.564   7.481 -0.1056 -1.9599  0.5029
14565SOL    HW246234   3.609   1.448   7.408  1.1038 -0.0282 -3.7611
14566SOL     OW46235   2.459   6.566   4.661  0.0839 -0.0806  0.3491
14566SOL    HW146236   2.425   6.615   4.586  0.5462 -1.5888 -0.8716
14566SOL    HW246237   2.381   6.539   4.709 -0.2420  0.3936  0.0865
14567SOL     OW46238   8.782   5.083   3.573  0.4591  0.0043 -0.0252
14567SOL    HW146239   8.776   5.156   3.634 -0.6405  1.4858 -1.8619
14567SOL    HW246240   8.828   5.015   3.622  0.7874  1.6227  1.9856
14568SOL     OW46241   9.429   1.877   0.182  0.0359  0.2501  0.5025
14568SOL    HW146242   9.444   1.823   0.260  0.2050 -0.7651 -0.2289
14568SOL    HW246243   9.429   1.815   0.109 -1.0391  1.0827 -0.2157
14569SOL     OW46244   4.243   6.759   3.253  0.2878  0.0834  0.2518
14569SOL    HW146245   4.216   6.673   3.287 -0.8319  0.0681 -0.6776
14569SOL    HW246246   4.162   6.803   3.230  0.8838  1.2690  0.3810
14570SOL     OW46247   1.572   7.879   4.746  0.2175  0.8073 -0.1226
14570SOL    HW146248   1.611   7.818   4.808  0.7664 -0.8280 -1.9997
14570SOL    HW246249   1.478   7.869   4.758  0.3225  0.8939  0.8008
14571SOL     OW46250   3.695   1.570   4.677 -0.0678 -0.3018  0.1524
14571SOL    HW146251   3.615   1.549   4.628  0.4750 -0.7724 -0.5384
14571SOL    HW246252   3.765   1.562   4.613  0.4029  1.4218  0.4311
14572SOL     OW46253   4.475   9.873   4.765  0.2817 -0.7790  0.2850
14572SOL    HW146254   4.468   9.831   4.850  1.3731 -2.6590 -0.5332
14572SOL    HW246255   4.431   9.958   4.776 -1.4057 -1.8584  2.1272
14573SOL     OW46256   6.232   5.092   3.650  0.0409  0.3155  0.4859
14573SOL    HW146257   6.258   5.099   3.742  0.7922 -1.2179  0.4103
14573SOL    HW246258   6.229   4.998   3.633  1.2366  0.5966 -1.4230
14574SOL     OW46259   5.757   7.290   1.025 -0.4026  0.4381  0.3871
14574SOL    HW146260   5.711   7.241   1.093 -1.2626  2.5616  1.3774
14574SOL    HW246261   5.717   7.261   0.943  2.1838 -3.8430  0.4683
14575SOL     OW46262   2.631   0.997   5.029 -0.1791 -0.9579 -0.3789
14575SOL    HW146263   2.598   0.993   5.119 -0.5085 -0.3307 -0.4688
14575SOL    HW246264   2.570   1.056   4.984  0.7459 -0.2169 -0.6812
14576SOL     OW46265   0.174   3.103   7.976  0.4340 -0.2615 -0.4692
14576SOL    HW146266   0.236   3.133   7.909  1.7973 -1.6351  0.1468
14576SOL    HW246267   0.200   3.149   8.056  0.4797 -0.6350 -0.2711
14577SOL     OW46268   4.816   1.532   0.847 -0.0974  0.3598  0.0414
14577SOL    HW146269   4.748   1.542   0.780  0.4184  1.9323 -0.2735
14577SOL    HW246270   4.815   1.615   0.895  2.0098  0.6606 -0.3669
14578SOL     OW46271   9.930   7.662   7.079  0.2454 -0.8935 -0.5495
14578SOL    HW146272   9.982   7.715   7.019 -1.0495  1.9217  0.7040
14578SOL    HW246273   9.940   7.707   7.164 -0.8523 -2.7095  0.5617
14579SOL     OW46274   6.248   5.216   7.180 -0.2198 -0.2163 -0.6922
14579SOL    HW146275   6.328   5.205   7.231 -1.4175  0.2945  1.3557
14579SOL    HW246276   6.203   5.290   7.220 -0.9647  0.5688 -2.8617
14580SOL     OW46277   1.197   3.639   4.704 -0.2030 -0.4354  0.0983
14580SOL    HW146278   1.166   3.562   4.752 -0.5813 -1.0566 -1.1185
14580SOL    HW246279   1.185   3.616   4.611  1.9805  0.1062 -0.3583
14581SOL     OW46280   7.491   0.996   6.089  0.0396  0.0049 -0.1530
14581SOL    HW146281   7.400   1.020   6.070  0.1864  0.4511 -0.3026
14581SOL    HW246282   7.487   0.949   6.173 -0.1668  1.1883  0.5128
14582SOL     OW46283   6.850   4.440   5.070 -0.1968  0.0672 -0.3495
14582SOL    HW146284   6.896   4.383   5.133  0.4039  0.8119 -0.1011
14582SOL    HW246285   6.920   4.486   5.025 -0.6735  0.3687 -0.7814
14583SOL     OW46286   5.401   5.922   4.275  0.3331  0.1447  0.2485
14583SOL    HW146287   5.349   5.843   4.260  0.4377  0.2671 -0.7835
14583SOL    HW246288   5.355   5.991   4.227  1.6995  0.1519 -1.0696
14584SOL     OW46289   0.769   8.400   4.977  0.9158 -0.2308 -0.2224
14584SOL    HW146290   0.834   8.451   4.929  1.1267 -0.3213 -0.0283
14584SOL    HW246291   0.762   8.318   4.928 -0.5174  0.5612 -1.4149
14585SOL     OW46292   9.000   0.880   0.068  0.5346  0.5804 -0.2132
14585SOL    HW146293   9.059   0.952   0.045  0.6766  0.2620 -0.8536
14585SOL    HW246294   9.015   0.814   0.001 -0.0194  0.1886  0.0417
14586SOL     OW46295   3.927   3.025   7.712 -0.1237  0.0754  0.3842
14586SOL    HW146296   3.888   2.943   7.682  0.1189  0.7400 -1.8968
14586SOL    HW246297   4.017   3.003   7.734  0.0140 -0.2213 -0.4635
14587SOL     OW46298   2.695   3.029   2.330  0.1876  0.0926  0.1939
14587SOL    HW146299   2.610   3.060   2.301  0.3103 -0.5607 -0.8842
14587SOL    HW246300   2.746   3.108   2.344 -0.2943  0.4557 -0.0793
14588SOL     OW46301   7.306   3.072   7.231 -0.0083  0.7830  0.1133
14588SOL    HW146302   7.330   3.051   7.322 -2.2993 -0.1930  0.5359
14588SOL    HW246303   7.351   3.007   7.179  1.1439  1.2066  0.5561
14589SOL     OW46304   5.264   2.472   6.046  0.1596  0.8632  0.9549
14589SOL    HW146305   5.265   2.505   6.136  0.1447 -0.3521  1.4013
14589SOL    HW246306   5.309   2.388   6.051  0.5928  1.0183 -0.2673
14590SOL     OW46307   2.757   4.854   4.399 -0.0094 -0.3034 -0.3723
14590SOL    HW146308   2.827   4.831   4.459 -0.8814  0.7197  1.0470
14590SOL    HW246309   2.717   4.933   4.436 -0.5495  0.3659 -2.2873
14591SOL     OW46310   2.395   2.013   3.858 -0.0796  0.2277  0.1626
14591SOL    HW146311   2.470   1.957   3.879  0.8958  1.3032 -0.3637
14591SOL    HW246312   2.335   1.956   3.811  1.2879 -0.1862 -1.1450
14592SOL     OW46313   1.266   7.985   2.268 -0.2169  0.0753 -0.0009
14592SOL    HW146314   1.236   8.040   2.196 -0.2211  0.5639  0.3744
14592SOL    HW246315   1.334   8.036   2.312 -0.7953  0.1297  0.8506
14593SOL     OW46316   5.232   1.367   6.417  0.5700  0.2731 -0.3690
14593SOL    HW146317   5.261   1.447   6.461  0.0393 -0.8698  2.1654
14593SOL    HW246318   5.141   1.384   6.394 -0.1689 -0.2758  1.9779
14594SOL     OW46319   0.510   4.973   4.926  0.1015 -0.4450 -0.0030
14594SOL    HW146320   0.505   5.046   4.988  2.1794 -0.3525  0.0672
14594SOL    HW246321   0.418   4.954   4.906 -0.5324  1.0452  1.3034
14595SOL     OW46322   2.864   4.850   8.419  0.5341 -0.5230  0.1316
14595SOL    HW146323   2.835   4.762   8.394  2.8140 -1.1622 -0.4387
14595SOL    HW246324   2.824   4.865   8.504 -0.5809 -1.7598 -0.1507
14596SOL     OW46325   5.217   1.829   6.181  0.5703 -0.0432  0.8087
14596SOL    HW146326   5.188   1.830   6.090  0.1017 -1.0873  0.9430
14596SOL    HW246327   5.310   1.852   6.177  0.8105 -1.1376 -0.0274
14597SOL     OW46328   4.952   0.385   4.119 -0.1700 -0.4672 -0.0223
14597SOL    HW146329   5.003   0.313   4.084  0.2304 -0.3303  0.2809
14597SOL    HW246330   5.014   0.458   4.125 -0.7441  0.1389 -1.0685
14598SOL     OW46331   8.451   2.084   6.244  0.3221 -0.1387 -0.3898
14598SOL    HW146332   8.546   2.085   6.258  0.2544 -1.2714  0.1673
14598SOL    HW246333   8.436   2.009   6.186 -0.4791 -1.2993  1.3030
14599SOL     OW46334   6.955   1.161   8.907 -0.2378  0.0431  0.3787
14599SOL    HW146335   6.935   1.082   8.957  0.0811  0.4621  1.1745
14599SOL    HW246336   6.883   1.169   8.844 -0.4797 -0.6504  0.5638
14600SOL     OW46337   3.587   2.402   3.874 -0.0549  0.5594 -0.1641
14600SOL    HW146338   3.679   2.418   3.895 -0.1279  1.2979 -0.3996
14600SOL    HW246339   3.574   2.309   3.894  0.5187  0.6535  0.6884
14601SOL     OW46340   3.681   2.669   3.520  0.4232 -0.8549  0.9416
14601SOL    HW146341   3.611   2.713   3.569 -0.7760  0.8860 -2.2240
14601SOL    HW246342   3.762   2.700   3.561 -0.5314  0.9167  1.5437
14602SOL     OW46343   6.379   1.142   0.804 -1.0043  0.0432 -0.4998
14602SOL    HW146344   6.331   1.108   0.729  0.0354  0.9506 -1.6021
14602SOL    HW246345   6.388   1.068   0.863 -1.9916 -0.6334 -1.1889
14603SOL     OW46346   1.807   6.716   8.864  0.2724  0.3915  0.0292
14603SOL    HW146347   1.872   6.677   8.923 -0.3725 -1.2240 -0.2962
14603SOL    HW246348   1.787   6.801   8.902  0.9760 -0.0155  1.3217
14604SOL     OW46349   6.138   8.526   7.764  0.9765 -0.0628 -0.4229
14604SOL    HW146350   6.155   8.547   7.672  2.4086  0.9634  0.0467
14604SOL    HW246351   6.053   8.482   7.764  0.9854 -0.1062 -2.2379
14605SOL     OW46352   1.377   1.460   5.678 -0.0339 -0.1403  0.2519
14605SOL    HW146353   1.426   1.383   5.708 -0.0674 -0.8012 -1.3431
14605SOL    HW246354   1.319   1.481   5.750  2.2522  0.3666  2.0065
14606SOL     OW46355   9.761   0.855   8.837  0.2383 -0.5892 -0.2608
14606SOL    HW146356   9.698   0.857   8.908 -1.6724 -0.6353 -1.9052
14606SOL    HW246357   9.822   0.927   8.856 -2.1269  1.4733 -0.2380
14607SOL     OW46358   0.521   1.920   3.320 -0.1707  0.0399 -0.1153
14607SOL    HW146359   0.596   1.864   3.339 -2.0194 -2.4322  0.0246
14607SOL    HW246360   0.496   1.898   3.230 -0.6612  0.9489 -0.2141
14608SOL     OW46361   4.381   2.243   4.027 -0.2374  0.1642 -0.5412
14608SOL    HW146362   4.385   2.306   3.954 -0.3521 -0.4518 -1.0837
14608SOL    HW246363   4.300   2.265   4.073  0.8454  1.8635  0.5992
14609SOL     OW46364   9.409   0.391   7.717 -0.1491  0.0846 -0.2628
14609SOL    HW146365   9.366   0.326   7.773  3.3101 -1.4782  0.7261
14609SOL    HW246366   9.411   0.349   7.631 -1.3379  0.5479 -0.5327
14610SOL     OW46367   8.231   3.196   2.703 -0.2392  0.7215  0.2063
14610SOL    HW146368   8.277   3.256   2.644  0.4590 -1.5661 -1.6799
14610SOL    HW246369   8.143   3.189   2.667 -0.3149  0.6071  0.4130
14611SOL     OW46370   9.562   9.276   4.300 -0.3811 -0.0320  0.1020
14611SOL    HW146371   9.572   9.191   4.256  0.0191  0.6980 -1.2184
14611SOL    HW246372   9.638   9.281   4.358 -0.8392 -0.9360  0.8057
14612SOL     OW46373   2.916   6.050   6.246  0.7060  0.3242 -0.0972
14612SOL    HW146374   2.884   6.010   6.165 -0.3356 -1.7268  1.2560
14612SOL    HW246375   2.851   6.117   6.267 -0.2329 -0.6455  0.1663
14613SOL     OW46376   1.238   6.606   4.283 -0.0245  0.0037 -0.2430
14613SOL    HW146377   1.238   6.590   4.189 -0.2028  2.1663 -0.6440
14613SOL    HW246378   1.319   6.566   4.314 -0.8787 -2.3913 -0.9741
14614SOL     OW46379   3.575   6.613   8.149  0.4248 -0.2896 -0.1350
14614SOL    HW146380   3.539   6.689   8.194 -0.3256 -0.3772 -0.5606
14614SOL    HW246381   3.549   6.625   8.057  0.5369 -0.9143 -0.2520
14615SOL     OW46382   1.515   5.818   1.413  0.2913 -0.2077  0.1298
14615SOL    HW146383   1.597   5.853   1.377  1.4037 -1.7022  1.1797
14615SOL    HW246384   1.541   5.742   1.465 -1.5309  0.5859  2.2972
14616SOL     OW46385   7.322   1.596   0.529 -0.1734 -0.1303 -0.1303
14616SOL    HW146386   7.393   1.587   0.593  0.8255 -0.2576 -1.2347
14616SOL    HW246387   7.308   1.690   0.523 -0.6062 -0.1466  0.6439
14617SOL     OW46388   5.889   8.515   8.001  0.0293 -0.1013 -0.0911
14617SOL    HW146389   5.827   8.498   8.073 -0.4467  3.6942  0.4848
14617SOL    HW246390   5.866   8.449   7.935 -4.0883  0.5874  0.4749
14618SOL     OW46391   1.425   5.015   2.208 -0.7474  0.9687  0.2351
14618SOL    HW146392   1.409   4.923   2.188  0.1441  0.8685 -0.0302
14618SOL    HW246393   1.409   5.023   2.302 -0.7482  0.5222  0.2731
14619SOL     OW46394   1.595   3.754   1.330  0.4382 -0.2861 -0.0136
14619SOL    HW146395   1.611   3.678   1.386  1.0621 -0.0608  0.1151
14619SOL    HW246396   1.666   3.753   1.265  0.6680  0.3934  0.2166
14620SOL     OW46397   7.095   5.914   8.122  0.1846 -0.0972 -0.0968
14620SOL    HW146398   7.143   5.953   8.049 -0.8967  1.0831 -0.1812
14620SOL    HW246399   7.150   5.840   8.150  0.2269 -1.0194 -2.5600
14621SOL     OW46400   1.775   5.968   7.144 -0.0858 -0.0675 -0.1297
14621SOL    HW146401   1.816   6.052   7.128 -0.9067  0.3916  0.1494
14621SOL    HW246402   1.810   5.911   7.075  0.1699  0.6008 -0.5569
14622SOL     OW46403  10.178   7.267   6.447 -0.5286 -0.0473 -0.1844
14622SOL    HW146404  10.142   7.179   6.443  0.1563 -0.4939  2.7634
14622SOL    HW246405  10.102   7.323   6.462 -0.8174 -0.2211 -0.9350
14623SOL     OW46406   6.331   5.636   1.762 -0.0313  0.7810  0.1708
14623SOL    HW146407   6.420   5.656   1.734 -0.0287  0.1209 -0.3131
14623SOL    HW246408   6.312   5.551   1.722  0.5506 -0.9954  3.5170
14624SOL     OW46409   5.530   8.861   3.398 -0.3561 -0.1108  0.1239
14624SOL    HW146410   5.607   8.905   3.433  0.6678 -0.1054 -2.0617
14624SOL    HW246411   5.459   8.887   3.456  1.1809  0.3294  1.8449
14625SOL     OW46412   6.736   2.905   3.052  0.0448 -0.1531  0.0213
14625SOL    HW146413   6.732   2.958   3.132 -0.8456  1.3734 -1.0092
14625SOL    HW246414   6.656   2.854   3.052 -0.1402  0.1358 -0.0855
14626SOL     OW46415   5.903   8.229   8.609 -0.4918  0.1436  0.4638
14626SOL    HW146416   5.976   8.168   8.616 -0.5748 -0.2459 -1.7904
14626SOL    HW246417   5.895   8.266   8.697  0.7835 -1.6553  1.3787
14627SOL     OW46418   0.055   3.032  10.022 -0.2886 -0.7088  0.3957
14627SOL    HW146419  -0.004   2.979   9.969  0.8457 -1.0981 -0.4778
14627SOL    HW246420   0.010   3.041  10.106 -1.0594 -1.9891  0.1294
14628SOL     OW46421   0.991   5.823   7.152 -0.3247 -0.4434  0.6141
14628SOL    HW146422   1.050   5.747   7.151  0.3360  0.0665  0.1949
14628SOL    HW246423   0.997   5.857   7.241  4.0479  2.6600 -0.6541
14629SOL     OW46424   2.262   3.819   7.151 -0.7609  0.1433 -0.2684
14629SOL    HW146425   2.203   3.877   7.102  0.1131  0.1888 -1.2866
14629SOL    HW246426   2.337   3.874   7.174 -1.2094  0.1461  1.2280
14630SOL     OW46427   1.807  10.022   6.877  0.0990  0.4630  0.3887
14630SOL    HW146428   1.767  10.033   6.964 -2.1243  1.9570 -0.7845
14630SOL    HW246429   1.849   9.936   6.881  0.9509  0.9633  3.2936
14631SOL     OW46430   0.566   9.417  10.100  0.2270  0.2014 -0.0584
14631SOL    HW146431   0.522   9.332  10.105  1.0092 -0.2312 -0.4086
14631SOL    HW246432   0.576   9.444  10.192 -1.4330  0.6627 -0.0051
14632SOL     OW46433   7.181   1.161   7.225 -0.7341  0.0202  0.3600
14632SOL    HW146434   7.109   1.218   7.251 -1.9143 -0.9510 -0.7021
14632SOL    HW246435   7.166   1.144   7.132 -1.1781 -3.0728  0.9165
14633SOL     OW46436   1.623   0.723   9.709  0.1840  0.2754 -0.2265
14633SOL    HW146437   1.683   0.738   9.782  2.1230 -1.8501 -1.3326
14633SOL    HW246438   1.650   0.786   9.642  1.3859 -0.8446 -0.8174
14634SOL     OW46439   8.333   4.048   0.631  0.3990 -0.6842 -0.0225
14634SOL    HW146440   8.332   4.022   0.539  0.4792 -0.8587  0.0258
14634SOL    HW246441   8.406   3.999   0.669  0.5996 -0.3249  0.0514
14635SOL     OW46442   6.416   4.776   3.105  0.1496  0.5897 -0.0988
14635SOL    HW146443   6.330   4.743   3.081  0.3417  0.4754 -0.6323
14635SOL    HW246444   6.417   4.773   3.201  0.4022 -1.5631 -0.1365
14636SOL     OW46445   4.191   4.099   1.600  0.4965  0.0986  0.2111
14636SOL    HW146446   4.139   4.019   1.611  0.1447  0.0915 -1.3556
14636SOL    HW246447   4.195   4.137   1.688  0.8706 -1.7641  1.0192
14637SOL     OW46448   3.232   4.757   4.504 -0.1614 -0.1748  0.2508
14637SOL    HW146449   3.217   4.684   4.443 -0.8980 -0.1274  0.3767
14637SOL    HW246450   3.299   4.810   4.461 -0.9012  0.0277 -0.6661
14638SOL     OW46451   5.152   2.207   1.606 -0.1718  0.1003  0.0095
14638SOL    HW146452   5.090   2.262   1.558  0.7363  0.9247 -0.2480
14638SOL    HW246453   5.148   2.239   1.696  1.2621  1.4560 -0.3786
14639SOL     OW46454   8.002   9.817   5.540 -0.1812  0.3736  0.6824
14639SOL    HW146455   7.947   9.894   5.524 -1.0008 -0.2190  0.6528
14639SOL    HW246456   8.031   9.789   5.453 -0.2069  0.4079  0.6631
14640SOL     OW46457   9.889   9.469   7.615 -0.2407 -0.5257  0.0611
14640SOL    HW146458   9.833   9.546   7.623 -0.1132 -0.4031 -0.2154
14640SOL    HW246459   9.828   9.395   7.610 -0.3644 -0.4322  0.2083
14641SOL     OW46460   7.461   2.405   3.830  1.0520 -0.0272  0.0436
14641SOL    HW146461   7.454   2.496   3.802 -0.1857  0.4056  1.6790
14641SOL    HW246462   7.442   2.353   3.752  0.3913  1.1232 -0.5642
14642SOL     OW46463   5.139   7.234   1.909  0.2403 -0.4265 -0.3097
14642SOL    HW146464   5.089   7.155   1.887  0.1323 -0.5927  0.4898
14642SOL    HW246465   5.089   7.306   1.871  0.6941 -0.7898 -1.6375
14643SOL     OW46466   7.018   8.086   5.202  0.3980 -0.2311  0.1070
14643SOL    HW146467   7.062   8.116   5.282 -1.0836 -0.4521  1.0440
14643SOL    HW246468   7.017   7.991   5.210  1.2091 -0.3158 -0.7200
14644SOL     OW46469   4.515   1.847   8.066 -0.2092  0.4479 -0.2232
14644SOL    HW146470   4.420   1.842   8.052 -0.5783  3.2343  0.9453
14644SOL    HW246471   4.524   1.869   8.159  1.5518  0.9424 -0.4939
14645SOL     OW46472   4.565   7.775   3.823 -0.1531 -0.0925  0.2505
14645SOL    HW146473   4.577   7.767   3.918 -0.2148 -0.4176  0.2330
14645SOL    HW246474   4.639   7.728   3.785 -0.8348 -1.1052  0.1425
14646SOL     OW46475   6.086   7.143   4.060  0.2039  0.1586  0.2180
14646SOL    HW146476   6.100   7.235   4.083  1.7111  0.1267 -0.5110
14646SOL    HW246477   5.996   7.139   4.029  0.2669  1.4842 -0.1618
14647SOL     OW46478   2.697   7.931   5.735  0.7056 -0.1244  0.3218
14647SOL    HW146479   2.790   7.944   5.756  0.4457 -0.8014  1.9697
14647SOL    HW246480   2.697   7.867   5.664  1.5179  0.2937 -0.0679
14648SOL     OW46481   7.071   9.214   9.478 -0.1917  0.0853  0.3611
14648SOL    HW146482   7.099   9.122   9.478 -1.0159 -0.1766  1.9999
14648SOL    HW246483   7.149   9.263   9.505 -0.0435 -0.2318  0.5162
14649SOL     OW46484   3.322   9.149   6.418  0.0647 -0.2774  0.4292
14649SOL    HW146485   3.234   9.145   6.378 -0.1630 -0.8077  0.9824
14649SOL    HW246486   3.306   9.173   6.509  0.5562  0.4144  0.3407
14650SOL     OW46487   5.047   9.576   6.205 -0.5434 -0.0437  0.1001
14650SOL    HW146488   4.994   9.508   6.162  0.3353 -1.0821  0.6262
14650SOL    HW246489   5.134   9.537   6.213 -0.1762  0.9234  0.9653
14651SOL     OW46490   4.249   1.411   6.010  0.0834 -0.2475  0.0420
14651SOL    HW146491   4.244   1.315   6.014  1.4184 -0.3765 -1.0464
14651SOL    HW246492   4.211   1.432   5.924 -1.7197  0.3406  0.9489
14652SOL     OW46493   2.929   2.992   3.430 -0.1965  0.3296  0.0357
14652SOL    HW146494   2.876   2.981   3.509  0.8010 -0.7913  0.5802
14652SOL    HW246495   2.903   2.919   3.374 -0.0833  0.4650 -0.1934
14653SOL     OW46496   2.677   9.642   6.077  0.0523  0.1106  0.1420
14653SOL    HW146497   2.590   9.620   6.109 -0.1304  0.4300 -0.1309
14653SOL    HW246498   2.683   9.737   6.089 -0.0948  0.2644 -0.9559
14654SOL     OW46499   5.353   3.378   1.775  0.7630  0.1317  0.1063
14654SOL    HW146500   5.340   3.283   1.779  0.5249  0.2213  1.9509
14654SOL    HW246501   5.339   3.400   1.683 -0.7233 -1.4110 -0.0725
14655SOL     OW46502   2.819   5.515   1.440 -0.5506 -0.0496 -0.3983
14655SOL    HW146503   2.848   5.529   1.350 -0.3997 -1.3473 -0.5623
14655SOL    HW246504   2.724   5.525   1.436 -0.4608  0.7687 -0.5290
14656SOL     OW46505   8.724   1.567   4.748 -0.1682 -0.0944 -1.2831
14656SOL    HW146506   8.642   1.598   4.789  0.6803  1.7388 -0.9076
14656SOL    HW246507   8.730   1.619   4.668  0.7739 -0.0094 -1.1530
14657SOL     OW46508   6.730   8.478   6.408  0.6467 -0.0876  0.0904
14657SOL    HW146509   6.657   8.528   6.373 -0.1794 -1.2128  0.1796
14657SOL    HW246510   6.807   8.534   6.394 -0.3707  1.5862  1.0046
14658SOL     OW46511   6.867   9.171   3.088 -0.7021  0.5876 -0.1593
14658SOL    HW146512   6.959   9.171   3.062 -0.8006  0.3432 -0.5135
14658SOL    HW246513   6.843   9.263   3.091 -0.0252  0.7455  1.4467
14659SOL     OW46514   5.798   0.319   1.243 -0.4281  0.0141  0.3480
14659SOL    HW146515   5.812   0.238   1.194  1.4798 -0.1094  1.0520
14659SOL    HW246516   5.824   0.389   1.184 -0.0491 -0.0191  0.4728
14660SOL     OW46517   5.585   9.681   8.067  0.3598 -0.0843 -0.5753
14660SOL    HW146518   5.645   9.647   8.134  0.2976  1.1722  0.1238
14660SOL    HW246519   5.634   9.752   8.026 -0.2739  0.2862 -0.6798
14661SOL     OW46520  10.028   1.186   6.147 -0.6089 -0.4859  0.4712
14661SOL    HW146521   9.974   1.122   6.101 -0.4098  0.0476 -0.5174
14661SOL    HW246522  10.104   1.137   6.176 -1.7556 -1.3177  2.1445
14662SOL     OW46523   4.267   1.941   0.752 -0.1859  0.3073 -0.1815
14662SOL    HW146524   4.267   1.994   0.831  2.2272 -1.9759  1.4225
14662SOL    HW246525   4.295   2.001   0.683  0.0173  1.7157  1.1039
14663SOL     OW46526   7.106   4.487   8.887 -0.1151  0.4438 -0.2265
14663SOL    HW146527   7.058   4.515   8.964 -1.0357 -0.3947 -0.4916
14663SOL    HW246528   7.134   4.397   8.907 -2.8964 -0.9075 -2.0004
14664SOL     OW46529   0.458   8.734   5.791 -0.1364 -0.0109  0.2751
14664SOL    HW146530   0.492   8.670   5.854  0.2268  0.1877  0.2764
14664SOL    HW246531   0.392   8.685   5.742  2.3661 -1.3342 -1.9087
14665SOL     OW46532   4.283   4.890   7.211  0.6656  0.2998  0.1852
14665SOL    HW146533   4.376   4.912   7.209  0.7213  0.2297  1.6152
14665SOL    HW246534   4.267   4.862   7.301 -0.9778  1.3391  0.2372
14666SOL     OW46535   7.913   6.062   1.713 -0.1517  0.1117 -0.2645
14666SOL    HW146536   8.008   6.055   1.716 -0.1457  0.0878 -0.5141
14666SOL    HW246537   7.896   6.151   1.682 -0.2013 -0.3616 -1.6341
14667SOL     OW46538   9.263   9.340   1.075 -0.1532  0.1321 -0.7153
14667SOL    HW146539   9.268   9.344   0.980 -0.8567  0.1332 -0.7587
14667SOL    HW246540   9.175   9.371   1.096 -0.0619 -0.0222 -0.0772
14668SOL     OW46541   2.768   0.323   2.742  0.3868  0.4028 -0.1658
14668SOL    HW146542   2.823   0.245   2.732 -0.5334 -0.5411  1.9198
14668SOL    HW246543   2.824   0.387   2.785  0.3931  0.0362  0.3760
14669SOL     OW46544   7.120  10.031   6.047  0.2398 -0.3403  0.6274
14669SOL    HW146545   7.200   9.993   6.011  1.6556  0.5176  2.7674
14669SOL    HW246546   7.062  10.043   5.972  2.0949 -1.0283 -0.9247
14670SOL     OW46547   8.962   3.601   4.897  0.3500 -0.3296  0.8242
14670SOL    HW146548   9.027   3.630   4.833 -0.0748 -0.3982  0.3568
14670SOL    HW246549   8.973   3.661   4.971 -0.8027  1.3197 -0.3035
14671SOL     OW46550   8.054   0.014   6.425 -0.5534 -0.1209  0.0755
14671SOL    HW146551   8.126  -0.046   6.407  0.7234  1.2177  0.6664
14671SOL    HW246552   7.998  -0.034   6.487 -0.4466 -1.3451 -0.7542
14672SOL     OW46553   9.833   2.325   1.176 -0.3176  0.2933  0.1100
14672SOL    HW146554   9.863   2.387   1.110  0.1686 -1.7506 -1.6717
14672SOL    HW246555   9.911   2.274   1.198 -0.7059  0.2965  1.5162
14673SOL     OW46556   5.872   6.154   8.794 -0.2672  0.3091 -0.1376
14673SOL    HW146557   5.912   6.068   8.807  0.7260  0.8148  0.2278
14673SOL    HW246558   5.909   6.209   8.864  0.1178  1.3664 -1.1425
14674SOL     OW46559   7.396   8.162   4.467  0.0962  0.2872 -0.1027
14674SOL    HW146560   7.478   8.161   4.517  0.0859 -0.5896 -0.0916
14674SOL    HW246561   7.395   8.247   4.423  0.8817  0.4088  0.1121
14675SOL     OW46562   5.514   5.529   7.171 -0.5024 -0.0098 -0.4604
14675SOL    HW146563   5.522   5.618   7.137  2.3188 -0.9188 -2.3805
14675SOL    HW246564   5.477   5.539   7.258 -1.5564  2.9182 -1.1875
14676SOL     OW46565   7.052   1.176   6.665 -0.5745 -0.0697  0.0542
14676SOL    HW146566   6.983   1.162   6.729 -1.1767  0.3110 -0.5084
14676SOL    HW246567   7.107   1.098   6.672 -0.0728  0.4129  1.7224
14677SOL     OW46568   1.067   1.980   8.053 -0.6902 -0.3601  0.5046
14677SOL    HW146569   0.988   1.999   8.103 -0.0240  1.6759  0.8464
14677SOL    HW246570   1.108   1.907   8.099 -0.7751  0.6191  2.1895
14678SOL     OW46571   3.881   1.571   1.471  0.0356  0.0441 -0.1454
14678SOL    HW146572   3.886   1.648   1.414 -0.3632 -0.2486 -0.5815
14678SOL    HW246573   3.858   1.606   1.557  0.5682  0.4819 -0.1846
14679SOL     OW46574   4.129   9.449   8.139 -0.7329  0.3961 -0.6335
14679SOL    HW146575   4.042   9.415   8.157 -1.0902  0.7862 -1.5680
14679SOL    HW246576   4.119   9.544   8.144  0.0799  0.4073  1.1890
14680SOL     OW46577   6.554   3.940   3.388  0.0173 -0.5081 -0.0727
14680SOL    HW146578   6.579   3.979   3.471  0.1270 -1.3022  0.2695
14680SOL    HW246579   6.495   4.004   3.348 -0.6370 -0.4680  0.9561
14681SOL     OW46580   2.500   0.562   3.637 -0.2489  0.5769  0.1313
14681SOL    HW146581   2.417   0.608   3.625 -2.3892 -2.9478  0.4408
14681SOL    HW246582   2.526   0.536   3.549 -0.6015 -0.0740  0.2091
14682SOL     OW46583   2.348   9.655   2.488 -0.5550  0.3588 -0.1398
14682SOL    HW146584   2.403   9.623   2.560 -1.7539 -0.2117  0.5235
14682SOL    HW246585   2.375   9.747   2.478  1.2603 -0.1891 -0.5277
14683SOL     OW46586   3.761   8.870   2.301  0.3629 -0.0690 -0.4892
14683SOL    HW146587   3.823   8.812   2.345 -0.6086 -1.2106 -0.5831
14683SOL    HW246588   3.740   8.937   2.365 -0.5846 -1.3760  0.6102
14684SOL     OW46589   7.701   8.273   1.886 -0.3662  0.3008  0.4591
14684SOL    HW146590   7.616   8.309   1.912 -1.6791 -0.9989 -1.8510
14684SOL    HW246591   7.693   8.179   1.903  1.1938  0.3506  1.6522
14685SOL     OW46592   6.048   0.046   2.109 -0.3802  0.0365 -0.3219
14685SOL    HW146593   6.066  -0.039   2.070 -0.3664  0.7986 -2.0292
14685SOL    HW246594   6.050   0.107   2.036 -0.9786  1.4286  0.7865
14686SOL     OW46595   8.271   9.929   1.897  0.0450  1.0192  0.0374
14686SOL    HW146596   8.302   9.850   1.940 -0.4493  0.0666 -1.2988
14686SOL    HW246597   8.212   9.970   1.960 -2.7726 -1.7457 -0.6855
14687SOL     OW46598   0.210   1.335   5.205 -0.7019  0.3628 -0.0524
14687SOL    HW146599   0.276   1.266   5.213  0.5325  1.5638  0.2326
14687SOL    HW246600   0.214   1.361   5.113 -1.3091 -0.0803 -0.2062
14688SOL     OW46601   1.391   5.759   4.701  0.1795  0.3575  0.1926
14688SOL    HW146602   1.368   5.723   4.786  1.3247 -0.5958  0.1143
14688SOL    HW246603   1.466   5.816   4.718  0.7346 -0.2299 -0.2361
14689SOL     OW46604   8.377   5.679   4.950  0.6332  0.0455 -0.0243
14689SOL    HW146605   8.355   5.594   4.912  1.9688 -0.2230 -0.1959
14689SOL    HW246606   8.315   5.688   5.023  1.7274 -1.9529  1.2048
14690SOL     OW46607   3.367   7.773   1.746 -0.8381 -0.3037 -0.1286
14690SOL    HW146608   3.325   7.855   1.718 -0.3141  0.2256  0.6124
14690SOL    HW246609   3.459   7.785   1.723 -0.9203 -1.0763 -0.8791
14691SOL     OW46610   8.855   3.762   4.263  0.6326  0.1146 -0.0459
14691SOL    HW146611   8.878   3.762   4.356 -0.0545 -1.4466  0.1255
14691SOL    HW246612   8.886   3.847   4.231  1.0704  0.5684  1.5546
14692SOL     OW46613   3.820   0.101   2.332 -0.6050  0.6482  0.8464
14692SOL    HW146614   3.843   0.100   2.239 -2.2106  0.2296  0.4464
14692SOL    HW246615   3.902   0.079   2.377  0.4429  1.8932 -0.3955
14693SOL     OW46616   6.459   1.953   3.126  0.1768  0.1830  0.2010
14693SOL    HW146617   6.489   1.903   3.050 -2.4255  0.4144 -1.0277
14693SOL    HW246618   6.495   2.041   3.113  1.1107 -0.2037  0.1076
14694SOL     OW46619   8.707   5.054   0.398 -0.0460 -0.2162  0.4047
14694SOL    HW146620   8.717   5.052   0.303 -1.7453 -0.9925  0.2257
14694SOL    HW246621   8.779   5.000   0.431  2.3028  2.4015 -0.2486
14695SOL     OW46622   6.163   8.640   3.230  0.2795 -0.5762  0.0432
14695SOL    HW146623   6.122   8.627   3.144 -0.3329 -2.5154  0.6026
14695SOL    HW246624   6.248   8.679   3.211 -1.0732  1.8747 -1.2507
14696SOL     OW46625   8.085   8.945   4.620  0.6170 -0.3110 -0.4104
14696SOL    HW146626   8.036   8.884   4.566 -0.7297  0.8173 -0.4783
14696SOL    HW246627   8.040   9.029   4.609  2.2169  0.6229 -0.0369
14697SOL     OW46628   8.373   7.609   9.543 -0.2278  0.7607 -0.0083
14697SOL    HW146629   8.310   7.680   9.534  0.8767  1.6269 -0.9954
14697SOL    HW246630   8.369   7.563   9.460  0.7720  1.0968 -0.2426
14698SOL     OW46631   1.749   5.211   6.604  0.5832  1.1701  0.3006
14698SOL    HW146632   1.717   5.208   6.694  0.3514  0.9269  0.2117
14698SOL    HW246633   1.694   5.278   6.562 -1.2406 -0.7124 -0.3955
14699SOL     OW46634   3.915   3.509   6.168  0.4084 -0.1011 -0.1057
14699SOL    HW146635   3.968   3.560   6.230 -1.0163 -0.6994  1.6430
14699SOL    HW246636   3.846   3.471   6.222  0.3497 -2.3377 -1.7196
14700SOL     OW46637   4.479   1.252   7.119  0.1567 -0.3332 -0.0361
14700SOL    HW146638   4.484   1.333   7.067 -2.8243 -0.0101  0.0947
14700SOL    HW246639   4.539   1.192   7.075  1.1809  1.4145 -1.1113
14701SOL     OW46640   8.768   8.097   2.438 -0.1260  0.4264 -0.0843
14701SOL    HW146641   8.790   8.128   2.525 -0.7918 -1.3095  0.7166
14701SOL    HW246642   8.709   8.023   2.453 -0.6349  0.4135 -2.0090
14702SOL     OW46643   7.454   5.484   0.139 -0.6116  0.7523  0.4043
14702SOL    HW146644   7.477   5.486   0.232 -2.9298 -2.7232  1.1793
14702SOL    HW246645   7.527   5.439   0.097 -0.3758  0.7173  0.8462
14703SOL     OW46646   7.273   8.715   2.253 -0.1975 -0.0360  0.4966
14703SOL    HW146647   7.188   8.704   2.297 -0.3155  0.8199  0.4861
14703SOL    HW246648   7.275   8.807   2.227  0.7825 -0.0259  0.5868
14704SOL     OW46649   1.145   6.703   2.353  0.1496  0.3774 -0.4697
14704SOL    HW146650   1.218   6.654   2.391 -0.9302  1.0632  2.5753
14704SOL    HW246651   1.082   6.635   2.328  0.1172  0.0107  0.5822
14705SOL     OW46652   2.759   8.691   3.379 -0.1395 -0.1018  0.7125
14705SOL    HW146653   2.752   8.675   3.473 -2.0641  0.9496  0.7923
14705SOL    HW246654   2.847   8.726   3.367 -0.8355  2.4358  2.5807
14706SOL     OW46655   0.273   3.339   8.181 -0.0953 -0.0776 -0.1088
14706SOL    HW146656   0.351   3.369   8.135  0.6130 -2.4464 -0.5550
14706SOL    HW246657   0.249   3.411   8.238  3.9413 -0.2357  1.9643
14707SOL     OW46658   2.994   2.355   0.966 -0.7165  0.1136  0.2229
14707SOL    HW146659   3.047   2.306   1.029 -0.5289  1.2767  0.9903
14707SOL    HW246660   2.967   2.290   0.902 -3.4562 -1.7704  3.1281
14708SOL     OW46661   8.150   2.471   0.249 -0.2352 -0.0403 -0.5628
14708SOL    HW146662   8.154   2.537   0.318 -0.4044 -0.0218 -0.5695
14708SOL    HW246663   8.235   2.476   0.205 -0.2283  0.1343 -0.5293
14709SOL     OW46664   6.449   2.761   4.193 -0.0986  0.2793  0.7696
14709SOL    HW146665   6.463   2.667   4.185  0.9848  0.3495  1.7264
14709SOL    HW246666   6.410   2.772   4.280  0.6054  0.7952  1.0210
14710SOL     OW46667   0.121   8.789   0.144 -0.7935 -0.0929 -0.5737
14710SOL    HW146668   0.128   8.792   0.049  0.7974  0.1780 -0.4546
14710SOL    HW246669   0.175   8.715   0.170 -0.6506  0.2634  0.1637
14711SOL     OW46670   2.689   8.256   3.399  0.1685 -0.2641 -0.1958
14711SOL    HW146671   2.613   8.307   3.427  0.5426  0.8770 -1.1703
14711SOL    HW246672   2.747   8.254   3.475 -0.8687 -1.2121  0.5730
14712SOL     OW46673   2.381   3.559   1.397 -0.3628  1.1268 -0.3855
14712SOL    HW146674   2.323   3.623   1.355  0.0023  1.7699  0.0870
14712SOL    HW246675   2.464   3.569   1.350 -0.2857  1.0501 -0.2623
14713SOL     OW46676   7.370   2.813   0.844 -0.4082 -0.0701 -0.1075
14713SOL    HW146677   7.279   2.784   0.850 -0.6605  0.6010 -0.5690
14713SOL    HW246678   7.379   2.878   0.914 -0.0362 -0.7729  0.4962
14714SOL     OW46679   1.623   9.770   9.908 -0.1549  0.0456 -0.4680
14714SOL    HW146680   1.548   9.828   9.900 -0.7894 -0.4717  1.4529
14714SOL    HW246681   1.592   9.698   9.963  1.1631 -1.1846 -1.2841
14715SOL     OW46682   3.082   5.724   2.219 -0.1839 -0.4051 -0.1536
14715SOL    HW146683   3.134   5.726   2.299 -0.3287  1.8060 -0.0645
14715SOL    HW246684   3.141   5.690   2.152  0.7316  0.0868  0.3855
14716SOL     OW46685   0.323   5.890   3.400 -0.5999 -0.0087 -0.1514
14716SOL    HW146686   0.418   5.886   3.402 -0.4797  1.5480 -1.6850
14716SOL    HW246687   0.296   5.802   3.370  0.2297 -1.1232  2.2755
14717SOL     OW46688   1.213   4.725   3.786 -0.4015 -0.2389 -0.8283
14717SOL    HW146689   1.277   4.724   3.858 -0.6696  0.9562 -0.5526
14717SOL    HW246690   1.266   4.737   3.707 -0.0879 -1.7514 -0.8530
14718SOL     OW46691   1.316   6.445  10.186 -0.0515  0.1123 -0.6968
14718SOL    HW146692   1.320   6.369  10.128  0.3615 -1.7365  1.7133
14718SOL    HW246693   1.241   6.429  10.243  0.7976  0.8737  0.6646
14719SOL     OW46694   2.572   5.352   6.857  0.4626  0.1828 -0.1843
14719SOL    HW146695   2.640   5.417   6.846  0.4440  0.3522  0.6580
14719SOL    HW246696   2.492   5.402   6.874  0.4661 -0.0526  0.5580
14720SOL     OW46697   4.457   1.234   4.390  0.4883  0.0817 -0.1422
14720SOL    HW146698   4.371   1.227   4.430  0.8981 -0.4784  0.6376
14720SOL    HW246699   4.474   1.148   4.353  0.5941  0.2780 -0.5651
14721SOL     OW46700   4.872   2.685   9.943 -0.6718 -0.5200  0.3202
14721SOL    HW146701   4.880   2.715   9.852  1.2985  0.0697  0.6648
14721SOL    HW246702   4.806   2.616   9.940 -0.9562 -0.1912 -1.4843
14722SOL     OW46703   8.397   7.563   6.541 -0.3193 -0.6538 -0.0834
14722SOL    HW146704   8.403   7.658   6.551 -0.7223 -0.4921 -1.2464
14722SOL    HW246705   8.336   7.535   6.609  1.3936 -0.3584  1.6280
14723SOL     OW46706   8.344   1.460   0.204 -0.1088  0.4555 -0.3203
14723SOL    HW146707   8.400   1.493   0.134  1.1427 -1.7749 -0.4374
14723SOL    HW246708   8.406   1.426   0.269 -1.2919 -1.6216 -0.2240
14724SOL     OW46709   9.002   2.163   2.682  0.2515 -0.3873 -0.3191
14724SOL    HW146710   8.942   2.231   2.652 -0.2574 -1.1487 -1.0482
14724SOL    HW246711   8.976   2.085   2.633 -0.1784 -1.4981  1.6306
14725SOL     OW46712   6.272   2.277   3.267  0.1424 -0.0670 -0.5597
14725SOL    HW146713   6.276   2.199   3.211 -0.2445 -1.9371  1.9267
14725SOL    HW246714   6.184   2.275   3.304 -0.1406  2.0285 -1.0570
14726SOL     OW46715   0.133   7.467   8.077 -0.6524 -0.0124 -0.1242
14726SOL    HW146716   0.226   7.463   8.097 -0.9374 -2.2612  0.8338
14726SOL    HW246717   0.098   7.534   8.136 -0.1023 -1.0593  1.4000
14727SOL     OW46718   8.454   8.838   0.763  0.2399  0.5150  0.4504
14727SOL    HW146719   8.506   8.858   0.841  0.5666  0.8155  0.1563
14727SOL    HW246720   8.519   8.808   0.699  0.2634  2.3683 -0.4347
14728SOL     OW46721   3.912   0.671   7.790  0.1641 -0.3410  0.2035
14728SOL    HW146722   3.983   0.695   7.730 -0.2628 -0.4643 -0.3494
14728SOL    HW246723   3.951   0.604   7.847  0.0789 -1.4274 -0.9923
14729SOL     OW46724   9.140   5.862   9.052 -0.0588 -0.1711 -1.1194
14729SOL    HW146725   9.189   5.887   9.130  1.8863 -0.7223 -2.1476
14729SOL    HW246726   9.051   5.847   9.084  1.0353 -1.8333  1.2555
14730SOL     OW46727   8.574   0.967   9.730 -0.2063 -0.4083 -0.0545
14730SOL    HW146728   8.620   1.049   9.744  1.0373 -1.2454  0.8837
14730SOL    HW246729   8.500   0.990   9.674  0.8922  1.0943 -0.9220
14731SOL     OW46730   4.883   0.092   7.768  0.2671 -0.1990  0.3296
14731SOL    HW146731   4.864   0.174   7.813 -2.3243  0.4834 -1.9061
14731SOL    HW246732   4.817   0.031   7.801  0.3988 -0.5925 -0.1292
14732SOL     OW46733   2.178   1.249   0.135 -0.8524 -0.0657  0.6229
14732SOL    HW146734   2.087   1.278   0.136 -0.8550 -0.1016  1.8789
14732SOL    HW246735   2.219   1.302   0.066 -2.4457 -2.0322 -1.9532
14733SOL     OW46736   8.738  10.156  10.195  0.3800  0.6129 -0.6406
14733SOL    HW146737   8.823  10.189  10.225  1.0615 -0.6472 -1.1575
14733SOL    HW246738   8.696  10.122  10.273 -0.2350  2.4672 -0.1378
14734SOL     OW46739   7.780   7.500   1.690 -0.1371  0.0909 -0.0714
14734SOL    HW146740   7.794   7.471   1.600  1.3881  0.8339 -0.0984
14734SOL    HW246741   7.686   7.495   1.703 -0.2574 -1.1503 -1.3205
14735SOL     OW46742   3.598   0.363   4.281 -0.3746  0.0496  0.2306
14735SOL    HW146743   3.551   0.288   4.319 -0.3536  0.7635  1.6952
14735SOL    HW246744   3.529   0.420   4.247 -0.4736  0.1168  0.5416
14736SOL     OW46745   2.961   4.967   0.545  0.0733  0.7933  0.5666
14736SOL    HW146746   2.951   5.015   0.463  2.3231 -1.0762 -0.8667
14736SOL    HW246747   3.022   4.897   0.524 -0.1181 -0.3446  3.6036
14737SOL     OW46748   6.935   1.321   0.155  0.2553  0.0731 -0.0098
14737SOL    HW146749   7.023   1.357   0.166  1.3987 -2.4097 -0.7484
14737SOL    HW246750   6.920   1.269   0.233 -0.1124 -0.3909 -0.3833
14738SOL     OW46751   5.229   2.704   4.682  0.0942 -0.0378 -0.0360
14738SOL    HW146752   5.209   2.651   4.605 -2.0390 -1.2290  1.3010
14738SOL    HW246753   5.279   2.646   4.739  1.1550  0.6539 -0.2500
14739SOL     OW46754   9.790   4.831   6.843 -0.3674  0.4120 -0.5425
14739SOL    HW146755   9.821   4.741   6.844  0.9616  0.8421  1.8877
14739SOL    HW246756   9.828   4.870   6.922 -2.6865  2.4965 -0.3952
14740SOL     OW46757   1.839   3.885   8.444 -0.8053 -0.3519 -0.4267
14740SOL    HW146758   1.885   3.849   8.520 -0.7237 -1.4578 -0.9889
14740SOL    HW246759   1.889   3.854   8.369 -0.6518  1.0747 -0.9244
14741SOL     OW46760   0.506   3.838   6.653 -0.4834  0.4947  0.4865
14741SOL    HW146761   0.573   3.859   6.589 -1.0392 -0.0787 -0.2939
14741SOL    HW246762   0.554   3.815   6.733  0.1750  2.1917  0.5797
14742SOL     OW46763   1.051   0.146   9.017  0.1379  0.0198  0.3439
14742SOL    HW146764   1.083   0.235   9.001  1.8961 -0.3849  1.4972
14742SOL    HW246765   0.961   0.148   8.987  0.7762  1.6179 -1.6174
14743SOL     OW46766   6.862   0.079   0.901 -0.4771  0.3107  0.0364
14743SOL    HW146767   6.935   0.090   0.840 -0.7634 -0.5724 -0.4754
14743SOL    HW246768   6.868  -0.013   0.929 -1.8989 -0.0202 -0.6794
14744SOL     OW46769   7.389   6.747   2.654  0.3081 -0.0728 -0.0091
14744SOL    HW146770   7.393   6.745   2.558 -1.3344  0.5082 -0.1169
14744SOL    HW246771   7.320   6.810   2.673  0.8426  0.0517  1.5728
14745SOL     OW46772   5.143   3.030   3.129  0.7346 -0.5225 -0.2359
14745SOL    HW146773   5.179   2.942   3.139 -0.1206 -0.7459  1.0956
14745SOL    HW246774   5.065   3.018   3.074  1.1104 -0.4584 -0.7870
14746SOL     OW46775   3.385   9.427   1.074  0.9036  0.1596  0.4065
14746SOL    HW146776   3.388   9.414   1.169  0.3691 -1.2471  0.2345
14746SOL    HW246777   3.474   9.452   1.051  1.3143 -0.6322  1.1180
14747SOL     OW46778   3.605   3.955   0.900 -0.1209 -0.1595 -0.1041
14747SOL    HW146779   3.607   3.945   0.995  1.0008  0.5655 -0.0443
14747SOL    HW246780   3.586   3.867   0.868 -1.0624 -0.2934  0.8082
14748SOL     OW46781   8.142   5.491   7.582 -0.1334 -0.2136 -0.6240
14748SOL    HW146782   8.169   5.572   7.627 -0.2992 -1.5409  1.9876
14748SOL    HW246783   8.201   5.424   7.617 -0.6457 -1.3960 -2.0055
14749SOL     OW46784   7.224   3.766   3.526  0.6206 -0.1741 -0.0661
14749SOL    HW146785   7.250   3.717   3.448  1.2918 -0.3244  0.2463
14749SOL    HW246786   7.286   3.737   3.593 -0.3651 -0.5367  0.6919
14750SOL     OW46787   9.813   8.458   6.100 -0.5575  0.4927 -0.6952
14750SOL    HW146788   9.848   8.433   6.185  0.1459 -1.8803 -1.6496
14750SOL    HW246789   9.737   8.513   6.121 -0.7474 -0.5270  1.4646
14751SOL     OW46790   7.574   8.694   7.980  0.4380 -0.0303  0.4298
14751SOL    HW146791   7.487   8.658   7.995  0.6107 -1.1990 -1.1476
14751SOL    HW246792   7.614   8.697   8.066 -0.7570 -0.5839  1.0212
14752SOL     OW46793   1.091   9.685   1.655 -0.2707  0.6509 -0.3052
14752SOL    HW146794   1.019   9.747   1.660  0.2657  1.2919 -0.4736
14752SOL    HW246795   1.145   9.717   1.582  0.4471  0.4586  0.1425
14753SOL     OW46796   9.925   1.704   9.844  0.4177  0.3975 -0.7360
14753SOL    HW146797   9.979   1.674   9.917 -0.0051  1.0520 -0.1428
14753SOL    HW246798   9.959   1.658   9.768  0.4825 -0.7584 -0.0258
14754SOL     OW46799   5.971   2.766   9.075 -0.0670  0.7442 -0.8728
14754SOL    HW146800   6.044   2.824   9.096 -0.4185  1.3087 -1.2088
14754SOL    HW246801   5.910   2.777   9.148 -0.2575  1.0072 -1.0689
14755SOL     OW46802   1.250   7.717   4.805  0.4444  0.1540  0.4221
14755SOL    HW146803   1.298   7.674   4.875 -0.6765 -0.5059  0.8051
14755SOL    HW246804   1.212   7.645   4.754 -0.4199  0.6517  0.3426
14756SOL     OW46805   1.279   8.761   0.708 -0.1788 -0.8362 -0.9003
14756SOL    HW146806   1.220   8.836   0.698  1.3853  0.7037  1.1881
14756SOL    HW246807   1.264   8.730   0.797  1.8712 -0.7116 -0.5050
14757SOL     OW46808  10.191   4.628   1.120  0.6033 -0.3665 -0.2915
14757SOL    HW146809  10.140   4.585   1.051  0.4641  0.3255 -0.6278
14757SOL    HW246810  10.190   4.720   1.096  0.8075 -0.1580  0.4813
14758SOL     OW46811   0.222   9.305   7.946 -0.4933 -0.8365  0.1987
14758SOL    HW146812   0.292   9.285   8.008  0.7501 -0.9849 -1.2387
14758SOL    HW246813   0.162   9.231   7.952  1.2168 -2.3394 -1.0349
14759SOL     OW46814   1.326   7.070   7.752  0.2671 -0.2495 -0.3878
14759SOL    HW146815   1.358   7.108   7.834  0.1969 -0.4631 -0.2610
14759SOL    HW246816   1.372   6.987   7.744 -0.0683 -0.4393 -0.3358
14760SOL     OW46817   8.474   9.379   6.485 -0.1900  0.1189 -0.0669
14760SOL    HW146818   8.417   9.334   6.546 -2.0667  1.6444 -0.6525
14760SOL    HW246819   8.464   9.332   6.402  0.3752 -0.3814  0.1489
14761SOL     OW46820   6.698  10.121   9.463 -0.0478  0.3616  0.0696
14761SOL    HW146821   6.660  10.088   9.545 -0.6807  0.7730 -0.0509
14761SOL    HW246822   6.672  10.056   9.397  0.0429  0.2837  0.1125
14762SOL     OW46823   9.972   3.165   4.132 -0.1221 -0.3845  0.4776
14762SOL    HW146824  10.041   3.116   4.176  0.4739  0.1680  0.1626
14762SOL    HW246825  10.003   3.255   4.131 -0.2326 -0.3505 -0.8683
14763SOL     OW46826   0.716   9.438   9.319  0.1081 -0.1418 -0.1882
14763SOL    HW146827   0.722   9.372   9.389  0.5522 -0.8963 -0.9330
14763SOL    HW246828   0.805   9.474   9.312  0.0165  0.0815 -0.2330
14764SOL     OW46829   8.287   4.535   2.615 -0.2660  0.1497 -0.1378
14764SOL    HW146830   8.203   4.533   2.568  0.3943 -0.0613 -1.3182
14764SOL    HW246831   8.345   4.587   2.559  0.3754  0.3604  0.7118
14765SOL     OW46832   3.519   5.403   1.282  0.1352 -0.5255 -0.8593
14765SOL    HW146833   3.436   5.359   1.264  0.6098 -1.1544 -1.5735
14765SOL    HW246834   3.541   5.378   1.372  0.1394 -1.3484 -1.0808
14766SOL     OW46835   5.061   0.866   8.747  0.1759 -0.1139  0.0022
14766SOL    HW146836   4.987   0.844   8.805 -0.3528 -0.1008 -0.6594
14766SOL    HW246837   5.135   0.879   8.807 -0.5512  0.7023  0.7432
14767SOL     OW46838   2.623   2.573   6.574  0.0927 -0.3802  0.8735
14767SOL    HW146839   2.593   2.617   6.494  2.7691  2.7179  1.4451
14767SOL    HW246840   2.578   2.620   6.644 -0.2024 -1.3320  1.3223
14768SOL     OW46841   2.091   8.771   2.627 -0.1122 -0.0288  0.3774
14768SOL    HW146842   2.012   8.824   2.641  0.0278 -0.1150  1.5403
14768SOL    HW246843   2.133   8.768   2.713  2.0691  1.4642 -0.6110
14769SOL     OW46844   6.938   9.949   7.932 -0.3103 -0.1688 -0.3635
14769SOL    HW146845   6.977   9.905   7.857  1.8476  1.4891 -0.2917
14769SOL    HW246846   6.907  10.033   7.897  1.6759  1.0718  0.7498
14770SOL     OW46847   1.743   6.627   6.281  0.6131  0.1806 -0.2847
14770SOL    HW146848   1.674   6.693   6.287 -0.1637 -0.4281 -2.1865
14770SOL    HW246849   1.698   6.544   6.289  1.1255 -0.2199 -1.4109
14771SOL     OW46850   0.166   6.049   6.479  0.4384 -0.1646 -0.1465
14771SOL    HW146851   0.237   5.988   6.499  0.5168 -0.4137 -1.1746
14771SOL    HW246852   0.180   6.074   6.388 -1.6068 -1.3042 -0.8133
14772SOL     OW46853   4.037   3.418   5.404  0.2127  0.6090 -0.3888
14772SOL    HW146854   3.999   3.479   5.467  0.9228  1.4455 -0.7611
14772SOL    HW246855   4.130   3.441   5.401  0.6549 -1.0188  0.0685
14773SOL     OW46856   6.186   0.691   8.832 -0.2124  0.7585  0.2562
14773SOL    HW146857   6.098   0.697   8.796  0.1415  0.4052 -0.6648
14773SOL    HW246858   6.187   0.608   8.879 -0.2893  0.6372  0.0444
14774SOL     OW46859   2.491   9.826   2.683  0.0615  0.1432  0.1938
14774SOL    HW146860   2.565   9.871   2.724  0.8606 -0.2050 -0.8331
14774SOL    HW246861   2.514   9.734   2.687  1.3907  0.2717 -3.3704
14775SOL     OW46862   4.769   3.614   7.564  0.1460 -0.6363  0.6256
14775SOL    HW146863   4.809   3.701   7.563 -0.7191 -0.2303 -0.7443
14775SOL    HW246864   4.825   3.561   7.507 -0.7029 -0.3174 -0.5238
14776SOL     OW46865   8.561   2.280   8.032  0.0725 -0.1748 -0.0402
14776SOL    HW146866   8.580   2.373   8.020 -1.0471 -0.0331 -0.8036
14776SOL    HW246867   8.618   2.235   7.970 -0.4885  0.1064 -0.7676
14777SOL     OW46868   2.436   0.276   9.453 -0.3286 -0.2120  0.1640
14777SOL    HW146869   2.461   0.184   9.450  1.9080  0.3995 -2.4027
14777SOL    HW246870   2.514   0.321   9.488 -0.9240  0.8305  0.1783
14778SOL     OW46871   5.561   2.249   7.817 -0.3829 -0.3438  0.0590
14778SOL    HW146872   5.599   2.162   7.801  1.0710  0.2759  0.0073
14778SOL    HW246873   5.474   2.245   7.779  0.6722 -0.9096 -2.3939
14779SOL     OW46874   1.256   5.658   6.288  0.7678 -0.0686  0.5972
14779SOL    HW146875   1.252   5.642   6.382  0.1958 -2.4868  0.2003
14779SOL    HW246876   1.208   5.739   6.275  0.4495  0.0384  2.3269
14780SOL     OW46877   4.419   8.688   8.542 -0.3016 -0.0861  0.8019
14780SOL    HW146878   4.473   8.650   8.611  1.1504 -1.0223 -0.8322
14780SOL    HW246879   4.478   8.745   8.493 -1.1302 -0.0448 -0.1761
14781SOL     OW46880   4.388   4.488   7.678  0.4291  0.0172  0.6446
14781SOL    HW146881   4.337   4.407   7.664  1.0333 -0.2035 -0.3250
14781SOL    HW246882   4.478   4.463   7.658  0.5819  0.9995  0.0907
14782SOL     OW46883   2.633   8.171   4.085 -0.0073 -0.2831 -0.0367
14782SOL    HW146884   2.539   8.157   4.098  0.1454 -0.8155  0.5039
14782SOL    HW246885   2.657   8.109   4.016 -0.6377  1.9184 -2.2905
14783SOL     OW46886   0.848   5.095   5.120 -0.2811  0.2535  0.4267
14783SOL    HW146887   0.765   5.048   5.128  0.8101 -1.6598  0.8735
14783SOL    HW246888   0.881   5.071   5.033  1.1271 -1.2673  1.3531
14784SOL     OW46889   1.712   2.011   5.464 -0.5424  0.7679 -0.4897
14784SOL    HW146890   1.772   2.080   5.491 -0.2177 -0.2184  1.3554
14784SOL    HW246891   1.719   1.944   5.532  0.1217 -1.7024 -2.9115
14785SOL     OW46892   9.922   0.069   8.189  0.1079  0.1586 -0.1187
14785SOL    HW146893   9.865  -0.006   8.179  0.0733  0.3205 -1.1999
14785SOL    HW246894   9.878   0.125   8.253 -1.9672  1.2223 -2.3889
14786SOL     OW46895   9.243   0.166   1.163 -0.2211 -0.3185 -0.1361
14786SOL    HW146896   9.306   0.095   1.176 -1.0670 -1.1756 -0.6404
14786SOL    HW246897   9.164   0.122   1.133 -0.8913  0.8057 -0.0319
14787SOL     OW46898   6.228  10.069   0.894 -0.2608 -0.1797  0.5860
14787SOL    HW146899   6.272   9.994   0.853  0.7282  1.0529 -0.6471
14787SOL    HW246900   6.294  10.139   0.893 -1.9373  1.4055 -0.3983
14788SOL     OW46901   6.416  10.203   6.483 -0.1352  0.1998 -0.4539
14788SOL    HW146902   6.382  10.181   6.396  0.5248 -0.7385 -0.4780
14788SOL    HW246903   6.480  10.272   6.467  0.3569 -0.3257 -0.7781
14789SOL     OW46904   0.897   9.500   0.763  0.1782  0.1908  0.2289
14789SOL    HW146905   0.804   9.506   0.740  0.4917 -2.1386 -1.8298
14789SOL    HW246906   0.900   9.438   0.836  0.1301  0.0672  0.1264
14790SOL     OW46907   8.665   0.127   5.388  0.0916  0.5602 -0.5293
14790SOL    HW146908   8.728   0.190   5.421 -0.2947  0.9459 -0.5221
14790SOL    HW246909   8.584   0.177   5.377 -1.3169 -0.7311  3.0782
14791SOL     OW46910   4.643   6.466   3.211  0.2167 -0.4341  0.1249
14791SOL    HW146911   4.672   6.381   3.244 -1.1385 -0.2709  1.8517
14791SOL    HW246912   4.639   6.456   3.116  0.7942 -2.0687  0.2659
14792SOL     OW46913   6.214   9.540   5.213 -0.2329 -0.0774  0.3962
14792SOL    HW146914   6.165   9.485   5.274 -0.3649 -0.4965 -0.0833
14792SOL    HW246915   6.172   9.525   5.129  0.7551 -0.4869 -0.0256
14793SOL     OW46916  10.183   0.335   3.698  0.2091 -0.3028 -0.5551
14793SOL    HW146917  10.144   0.422   3.685  1.1406  0.1210 -0.5076
14793SOL    HW246918  10.181   0.295   3.611 -1.5284 -0.7991 -0.3233
14794SOL     OW46919   8.875   4.487   6.920  0.5671  0.5766 -0.5317
14794SOL    HW146920   8.884   4.570   6.966 -1.1258 -0.2087  1.2857
14794SOL    HW246921   8.803   4.501   6.859  1.0405  0.7875 -1.0490
14795SOL     OW46922   9.351   3.518   0.313  0.5268 -0.2733 -0.4083
14795SOL    HW146923   9.262   3.492   0.336  0.2404 -0.8993 -2.1382
14795SOL    HW246924   9.397   3.522   0.397 -1.6622  2.2058  0.7448
14796SOL     OW46925   8.068   0.105   7.324 -0.6318 -0.5206  0.0441
14796SOL    HW146926   8.075   0.099   7.419 -0.6545 -1.2566 -0.0013
14796SOL    HW246927   8.106   0.023   7.292 -0.8642 -0.3873 -0.5698
14797SOL     OW46928   2.577   9.199   1.756 -0.3186  0.0255  0.2656
14797SOL    HW146929   2.489   9.222   1.783  0.0313 -0.1377  1.6083
14797SOL    HW246930   2.581   9.221   1.663 -1.9456 -0.5140  0.0549
14798SOL     OW46931  10.151   9.364   8.197 -0.2675  0.5173  0.3619
14798SOL    HW146932  10.165   9.340   8.289 -0.0347 -1.3524 -0.1590
14798SOL    HW246933  10.060   9.340   8.180  0.0617 -0.2705 -0.2609
14799SOL     OW46934   2.584   9.077   9.150  0.3269 -0.0065 -0.0430
14799SOL    HW146935   2.670   9.044   9.123 -0.0599 -0.0630 -1.2399
14799SOL    HW246936   2.593   9.173   9.145  0.8429  0.0567  1.5392
14800SOL     OW46937   1.844   9.076   3.224 -0.4507 -0.7525  0.2495
14800SOL    HW146938   1.852   8.994   3.175 -0.2279 -1.6488  1.7416
14800SOL    HW246939   1.901   9.137   3.177 -0.0229 -1.6592 -0.4438
14801SOL     OW46940   3.806   1.591   0.824 -0.0139  0.1407  0.5997
14801SOL    HW146941   3.805   1.627   0.913  2.3994  2.0225 -0.0629
14801SOL    HW246942   3.873   1.643   0.778 -0.3817 -1.5699 -1.9869
14802SOL     OW46943   5.439   6.255   2.489 -0.3031  0.2365 -0.0398
14802SOL    HW146944   5.466   6.164   2.500  0.4486  0.5630  0.9122
14802SOL    HW246945   5.349   6.257   2.521  0.4219  0.2707  2.0848
14803SOL     OW46946   8.884   2.847   2.091 -0.4149 -0.7004  0.0786
14803SOL    HW146947   8.953   2.849   2.157 -1.0625  0.1111  0.7344
14803SOL    HW246948   8.834   2.769   2.110 -0.2755 -0.7581  0.2069
14804SOL     OW46949   2.482   4.649   8.216  0.0519 -0.7175 -0.0729
14804SOL    HW146950   2.452   4.609   8.134 -1.3337 -2.7796  1.3919
14804SOL    HW246951   2.422   4.723   8.230  0.4567 -0.2044 -1.0516
14805SOL     OW46952   5.448   9.346   4.361  0.4979  0.8814 -0.2606
14805SOL    HW146953   5.428   9.326   4.452 -1.4389 -1.6148 -1.1639
14805SOL    HW246954   5.484   9.264   4.326  1.1320  1.7837 -1.7394
14806SOL     OW46955   8.067   1.340   1.689 -0.1690 -0.1991  0.0609
14806SOL    HW146956   8.075   1.378   1.602 -1.9660 -0.4180 -0.2110
14806SOL    HW246957   8.087   1.247   1.676  1.0686  0.0311  0.1756
14807SOL     OW46958   7.920   2.457   9.149 -0.0287  0.9368  0.0092
14807SOL    HW146959   7.867   2.490   9.076  0.4269 -0.8312 -1.1455
14807SOL    HW246960   7.894   2.511   9.224 -1.5066  1.8654 -1.1512
14808SOL     OW46961   7.629   1.790   9.553 -0.0320 -0.3232 -0.3549
14808SOL    HW146962   7.631   1.723   9.622 -1.8083 -0.9424 -0.8726
14808SOL    HW246963   7.572   1.858   9.587 -0.2971 -0.2757 -0.8838
14809SOL     OW46964   5.458   0.154   1.595  0.2069 -0.8494 -0.7467
14809SOL    HW146965   5.416   0.171   1.511  3.0005  2.3461 -1.6136
14809SOL    HW246966   5.551   0.168   1.578  0.8757 -0.5792  2.7692
14810SOL     OW46967   7.106  10.187  10.108  0.2820  0.3238 -0.4638
14810SOL    HW146968   7.201  10.175  10.104  0.3327  0.3526  0.4052
14810SOL    HW246969   7.077  10.181  10.018  1.3276  2.0717 -0.9523
14811SOL     OW46970   7.058   2.043   1.517  0.2371  0.3229  0.1701
14811SOL    HW146971   7.087   2.127   1.481  1.5240 -0.2586 -0.1600
14811SOL    HW246972   6.973   2.027   1.476 -0.0024  1.4462  0.2154
14812SOL     OW46973   9.296   3.410   4.965 -0.2220  0.1966 -0.6446
14812SOL    HW146974   9.313   3.471   4.893 -1.5759  1.5587  0.1682
14812SOL    HW246975   9.206   3.381   4.952 -0.6129  0.7480  0.6923
14813SOL     OW46976  10.168   6.711   4.218  0.2848 -0.1367  0.8206
14813SOL    HW146977  10.260   6.706   4.245  0.7528  0.3046 -0.6054
14813SOL    HW246978  10.167   6.780   4.152 -0.7714 -1.2548 -0.3508
14814SOL     OW46979   0.145   8.536   5.166  0.3927  0.1403 -0.2484
14814SOL    HW146980   0.178   8.599   5.102 -0.6181  2.1947  1.2082
14814SOL    HW246981   0.222   8.487   5.194  0.9799 -0.1805 -2.3767
14815SOL     OW46982   7.698   4.818   4.706 -0.3215 -0.0982  0.1400
14815SOL    HW146983   7.708   4.768   4.787  0.7960  1.0671  0.7290
14815SOL    HW246984   7.708   4.753   4.637  3.4388 -0.3719  0.8493
14816SOL     OW46985   6.555   2.395   8.298 -0.1564  0.1573 -0.2247
14816SOL    HW146986   6.521   2.424   8.382  2.4348  0.2431  0.8282
14816SOL    HW246987   6.558   2.299   8.304 -1.7295  0.0434 -0.9471
14817SOL     OW46988   4.376   6.025   9.213  0.8612  0.4199 -0.6366
14817SOL    HW146989   4.359   6.084   9.286  0.8367  1.2113 -1.2773
14817SOL    HW246990   4.403   5.943   9.255  1.2829  0.9990  0.2463
14818SOL     OW46991   0.793   8.142   2.128  0.0455 -1.0638 -0.3344
14818SOL    HW146992   0.807   8.236   2.143 -1.1495 -0.7589 -1.0285
14818SOL    HW246993   0.775   8.106   2.215 -3.1797  0.0345 -0.4755
14819SOL     OW46994   3.170   5.971   2.705 -0.6089  0.1155  0.1870
14819SOL    HW146995   3.120   5.889   2.699 -0.2072 -0.1902  0.9688
14819SOL    HW246996   3.261   5.943   2.701 -0.4844  0.6337 -0.7560
14820SOL     OW46997  10.090   0.599   3.604 -0.2198 -0.0784  0.2766
14820SOL    HW146998  10.087   0.655   3.681 -0.4022 -2.4137  2.0364
14820SOL    HW246999  10.183   0.598   3.579 -0.1668  0.7386  0.4276
14821SOL     OW47000   9.379   5.507   2.274 -0.1104 -0.6650  0.2943
14821SOL    HW147001   9.301   5.460   2.305 -0.2758 -0.5842  0.0011
14821SOL    HW247002   9.406   5.459   2.195 -0.8122  0.2614 -0.5254
14822SOL     OW47003   3.682   5.581   4.304 -0.1364 -0.1778 -0.0334
14822SOL    HW147004   3.661   5.488   4.306 -1.4718 -0.0008 -2.7804
14822SOL    HW247005   3.774   5.585   4.278  0.5287 -0.7342  2.1229
14823SOL     OW47006   4.872   6.055   9.418  0.1069 -0.2020  0.1133
14823SOL    HW147007   4.925   6.104   9.355 -0.2610  0.0996  0.0371
14823SOL    HW247008   4.912   5.968   9.420  1.5346  0.4648  1.1895
14824SOL     OW47009   6.803  10.171   4.979  0.0659 -0.2433  0.2354
14824SOL    HW147010   6.845  10.257   4.973  0.9299 -0.5761  1.3372
14824SOL    HW247011   6.718  10.189   5.020 -0.8895  0.4205 -1.9594
14825SOL     OW47012  10.095   3.293   8.614  0.3168  0.3943  0.6066
14825SOL    HW147013  10.171   3.299   8.556  0.9187  2.1437  1.5217
14825SOL    HW247014  10.020   3.287   8.554  1.0770 -0.0478 -0.3138
14826SOL     OW47015   5.144   4.554   0.547  0.1230 -0.0253  0.1302
14826SOL    HW147016   5.178   4.527   0.462 -1.4084  0.3772 -0.6147
14826SOL    HW247017   5.106   4.474   0.584  0.9376 -0.2402  0.5337
14827SOL     OW47018   6.126   0.037   3.693 -0.0524  0.7721 -0.2388
14827SOL    HW147019   6.185  -0.021   3.645 -0.6071  0.1258 -0.1422
14827SOL    HW247020   6.104  -0.011   3.773 -0.4058  1.1677 -0.0971
14828SOL     OW47021   1.296   3.070   8.302  0.1805 -0.0526 -0.1762
14828SOL    HW147022   1.356   3.091   8.373 -3.1429 -0.7471  3.0050
14828SOL    HW247023   1.272   3.155   8.265  2.4064  0.2810 -0.9462
14829SOL     OW47024   9.797   6.408   4.662 -0.1631  0.1406  0.0463
14829SOL    HW147025   9.731   6.438   4.600 -0.7823 -0.0096  0.6364
14829SOL    HW247026   9.855   6.483   4.674  2.1185 -0.9206 -3.5508
14830SOL     OW47027   8.331   8.951   8.788 -0.5216  0.0410  0.3929
14830SOL    HW147028   8.314   8.866   8.747 -1.4702  0.3548  0.1334
14830SOL    HW247029   8.263   8.961   8.854 -0.7130  0.8279  0.0837
14831SOL     OW47030   3.472   7.299   3.870  0.0110 -0.1940  0.0547
14831SOL    HW147031   3.432   7.354   3.937 -0.0272 -2.1167  1.6730
14831SOL    HW247032   3.509   7.360   3.806 -0.4673  1.6663  1.5378
14832SOL     OW47033   7.571   0.624   8.625  1.1034 -0.1950  0.6636
14832SOL    HW147034   7.589   0.566   8.699  0.3290 -0.7845  0.3971
14832SOL    HW247035   7.650   0.619   8.571  0.6352 -1.8011  0.1224
14833SOL     OW47036   6.196   0.570   7.279 -0.4382  0.4243 -0.3673
14833SOL    HW147037   6.146   0.557   7.360 -1.3554  1.7570 -0.7045
14833SOL    HW247038   6.239   0.486   7.264  0.4626  0.4190  1.9887
14834SOL     OW47039   8.705   2.703   4.894  0.0264 -0.3135 -0.7369
14834SOL    HW147040   8.617   2.739   4.880  0.1603  0.4011  0.1772
14834SOL    HW247041   8.722   2.649   4.817 -1.4737 -0.9702 -0.6307
14835SOL     OW47042   8.561   6.298   8.841 -0.6700  0.0570  0.1688
14835SOL    HW147043   8.550   6.249   8.922  0.3925 -1.4453 -0.5720
14835SOL    HW247044   8.593   6.233   8.778  3.6678  2.2591 -0.0865
14836SOL     OW47045   4.857   7.130   7.307  0.5228 -0.6491 -0.3964
14836SOL    HW147046   4.876   7.217   7.341 -2.4920 -0.2973  0.5687
14836SOL    HW247047   4.924   7.114   7.240  2.7244  1.2647  1.2944
14837SOL     OW47048  10.110   9.380  10.036 -0.1640 -0.5018 -0.2296
14837SOL    HW147049  10.164   9.301  10.035 -1.2820 -1.3190  1.4606
14837SOL    HW247050  10.119   9.415  10.125  1.3852  2.0426 -1.3444
14838SOL     OW47051   8.951   2.569   0.571 -0.2987  0.2892  0.3133
14838SOL    HW147052   8.923   2.533   0.656  1.0228 -0.8677  0.2572
14838SOL    HW247053   9.046   2.566   0.574 -0.2602 -0.7875 -1.6646
14839SOL     OW47054   9.186   4.059   8.251  0.4082  0.4507  0.1820
14839SOL    HW147055   9.114   4.068   8.189  2.0637 -1.5333 -2.1379
14839SOL    HW247056   9.160   3.986   8.307  0.0512  0.5439  0.1391
14840SOL     OW47057   0.171   8.029   4.205 -0.0282 -0.0981  0.7861
14840SOL    HW147058   0.141   7.940   4.187  1.9744 -0.7723  0.6325
14840SOL    HW247059   0.144   8.046   4.295 -0.6429 -0.7591  0.7297
14841SOL     OW47060   9.778   0.983   4.492 -0.4254 -0.0609 -0.3388
14841SOL    HW147061   9.784   0.925   4.568  1.1592  2.3445  1.4206
14841SOL    HW247062   9.856   1.038   4.497 -1.2488  1.3873 -2.6948
14842SOL     OW47063   2.972   3.646   5.993 -0.1303  0.1479  0.5042
14842SOL    HW147064   3.064   3.641   6.017 -0.0880  1.0958  0.5734
14842SOL    HW247065   2.932   3.702   6.060 -0.9898 -1.1965  1.1342
14843SOL     OW47066   0.610   3.010   5.899  0.2821 -0.3485 -0.5731
14843SOL    HW147067   0.537   2.948   5.892 -0.3596  0.3804 -0.3556
14843SOL    HW247068   0.687   2.954   5.909 -0.3813 -1.1097  0.3958
14844SOL     OW47069   6.792  10.011   8.915  0.2673  0.1581 -0.1858
14844SOL    HW147070   6.798  10.073   8.842 -0.0278  0.8293  0.3449
14844SOL    HW247071   6.809   9.926   8.876 -0.3511  0.4514 -1.1284
14845SOL     OW47072   9.042   6.208   1.629  0.3405  0.2470  0.0823
14845SOL    HW147073   9.024   6.152   1.554 -1.6854  0.0645  0.6821
14845SOL    HW247074   9.054   6.146   1.702 -1.0340  0.5354  0.5692
14846SOL     OW47075   2.114   1.660   0.016 -0.0998  0.5326  0.3410
14846SOL    HW147076   2.193   1.677   0.068  0.1110  0.2138  0.1326
14846SOL    HW247077   2.067   1.743   0.014 -0.1149  0.5402  1.0548
14847SOL     OW47078   6.621   0.265   9.925  0.7058  0.2084  0.0681
14847SOL    HW147079   6.648   0.356   9.940 -0.6653  0.8061 -0.9344
14847SOL    HW247080   6.584   0.238  10.009 -0.6808  1.2526 -0.1831
14848SOL     OW47081   4.177   9.489   2.759  0.1677  0.3320  0.1362
14848SOL    HW147082   4.255   9.509   2.708  0.8101  0.1697  1.0507
14848SOL    HW247083   4.189   9.399   2.789  0.1738  0.7046  1.2580
14849SOL     OW47084   7.001   9.219   1.917  0.0807  0.0414  0.1271
14849SOL    HW147085   6.948   9.232   1.838  0.1622  0.8128  0.1954
14849SOL    HW247086   7.091   9.215   1.885  0.1723  1.0454  0.2488
14850SOL     OW47087   9.880  10.121   9.432 -0.3746 -0.3412  0.0869
14850SOL    HW147088   9.855  10.167   9.512  1.6307 -0.3973  0.7692
14850SOL    HW247089   9.861  10.183   9.362  0.2171  0.6909  0.8173
14851SOL     OW47090   4.364   0.965   4.231 -0.0592 -0.1404 -0.4103
14851SOL    HW147091   4.272   0.964   4.259  0.2663  0.7034  0.7593
14851SOL    HW247092   4.393   0.875   4.241 -0.7011 -0.3643 -0.5575
14852SOL     OW47093   5.668   3.201   5.413  0.5800  0.0614  0.2688
14852SOL    HW147094   5.592   3.258   5.427  1.1468  1.3638 -1.7353
14852SOL    HW247095   5.632   3.121   5.377  0.0338  0.1292  0.6472
14853SOL     OW47096   9.600   8.206   8.691  0.0908  0.2466  0.3435
14853SOL    HW147097   9.662   8.275   8.715 -0.0170  0.7630 -0.8355
14853SOL    HW247098   9.602   8.145   8.765 -1.1470  2.4166  2.2243
14854SOL     OW47099   6.827   1.302   5.498  0.1869  0.3897  0.3516
14854SOL    HW147100   6.846   1.342   5.582 -1.0230 -0.1854  0.9025
14854SOL    HW247101   6.740   1.334   5.475 -1.0531 -2.3706  1.0811
14855SOL     OW47102   4.691   9.336   8.886 -0.4524  0.6970 -0.3385
14855SOL    HW147103   4.692   9.424   8.847 -1.1701  0.1883 -1.5383
14855SOL    HW247104   4.611   9.295   8.851 -3.0773  1.4237  4.4295
14856SOL     OW47105   7.511   1.077   8.323  0.1811  0.0408  0.4114
14856SOL    HW147106   7.423   1.107   8.301 -1.0510 -2.4822  1.7929
14856SOL    HW247107   7.537   1.131   8.397  0.1962  1.4017 -0.5571
14857SOL     OW47108   1.633   4.690   3.233  0.3645  0.7818 -0.2485
14857SOL    HW147109   1.552   4.740   3.235 -0.7867 -1.0744  0.9049
14857SOL    HW247110   1.624   4.631   3.158  1.8194  2.4101 -1.7577
14858SOL     OW47111   5.841   1.284   2.744  0.6743 -0.0872  0.6540
14858SOL    HW147112   5.827   1.190   2.756 -2.7287  0.4146  1.2190
14858SOL    HW247113   5.767   1.325   2.790  0.8887  2.7832 -1.4032
14859SOL     OW47114   4.829   7.817   3.077  0.3537  0.3755 -0.3457
14859SOL    HW147115   4.837   7.740   3.132 -0.7646  0.6191  0.1765
14859SOL    HW247116   4.770   7.875   3.125  0.4595  1.1677 -1.1545
14860SOL     OW47117   9.875   2.885   8.580 -0.2746 -0.0311  0.0733
14860SOL    HW147118   9.878   2.812   8.641  0.5016  0.1830  0.3029
14860SOL    HW247119   9.873   2.963   8.635 -0.9449  0.1225 -0.1702
14861SOL     OW47120   7.838  10.107   7.395  0.4227  0.4965  0.0776
14861SOL    HW147121   7.848  10.202   7.404  3.0548  0.4677 -2.0667
14861SOL    HW247122   7.830  10.075   7.485 -0.0019  2.6733  0.8570
14862SOL     OW47123   4.894   2.892   7.132  0.3275 -0.3465  0.1548
14862SOL    HW147124   4.812   2.872   7.177 -0.3615  0.4800 -0.7089
14862SOL    HW247125   4.961   2.843   7.181 -0.2909  1.0911  2.4875
14863SOL     OW47126   5.697   4.268   9.936  0.3568 -0.1164 -0.8470
14863SOL    HW147127   5.774   4.293   9.886 -0.2653 -0.4489 -1.9824
14863SOL    HW247128   5.642   4.219   9.874 -0.3127 -0.7423  0.2130
14864SOL     OW47129   2.024   0.478   9.614  0.6243 -0.2007  0.0597
14864SOL    HW147130   2.041   0.530   9.693  1.0091 -1.1166  0.5900
14864SOL    HW247131   2.101   0.422   9.606 -0.4339 -1.7064  0.2995
14865SOL     OW47132   1.716   1.120   1.290  0.2863  0.2851 -0.0899
14865SOL    HW147133   1.627   1.112   1.256  0.0970  0.7436  0.3038
14865SOL    HW247134   1.706   1.110   1.385  0.4651  1.8671  0.1052
14866SOL     OW47135   2.843   7.992   6.838 -0.0240  0.1895 -0.8024
14866SOL    HW147136   2.820   7.956   6.924 -0.6168 -2.0447 -1.8602
14866SOL    HW247137   2.937   7.978   6.831  0.0777  0.6444 -0.4033
14867SOL     OW47138   4.096   3.861   3.607  0.1020  0.0139 -0.3892
14867SOL    HW147139   4.184   3.873   3.571  0.3600  0.9765  0.5186
14867SOL    HW247140   4.111   3.815   3.690 -0.0787  1.5947  0.5533
14868SOL     OW47141   5.130   0.683   4.130 -0.1090  0.5367 -0.3924
14868SOL    HW147142   5.072   0.731   4.071 -1.0705 -0.0353  0.0667
14868SOL    HW247143   5.152   0.746   4.198 -1.8281  0.1839  0.5188
14869SOL     OW47144   8.340   2.305   6.100 -0.6593  0.0381  0.0840
14869SOL    HW147145   8.363   2.233   6.159  0.3400 -1.3588 -1.9576
14869SOL    HW247146   8.349   2.268   6.012  1.3847  3.0877 -1.0785
14870SOL     OW47147   2.399   7.451   0.382 -0.3276  0.4132  0.4000
14870SOL    HW147148   2.489   7.421   0.387  0.1383  1.8654  1.0138
14870SOL    HW247149   2.351   7.393   0.441  0.2054 -0.3537  0.0816
14871SOL     OW47150   1.402   5.017   2.495 -0.3133  0.3986  0.0750
14871SOL    HW147151   1.322   5.044   2.540  0.4640  0.1450  1.6101
14871SOL    HW247152   1.441   4.951   2.552  2.3548  2.3969  0.6406
14872SOL     OW47153   5.669   1.867   8.829  0.4502 -0.1014 -0.3432
14872SOL    HW147154   5.649   1.932   8.897 -0.9159  0.4479 -1.2551
14872SOL    HW247155   5.739   1.814   8.867 -0.0172  0.4491  1.3378
14873SOL     OW47156   2.217   0.525   0.746 -0.0147 -0.8258  0.0899
14873SOL    HW147157   2.131   0.548   0.709 -0.1608 -0.4608  0.6497
14873SOL    HW247158   2.220   0.571   0.830  1.0732 -0.1524 -0.3023
14874SOL     OW47159   3.990   4.346   5.579  0.2229 -0.7481  0.1498
14874SOL    HW147160   3.904   4.373   5.545  0.5333 -1.0915 -0.9368
14874SOL    HW247161   4.016   4.273   5.523  1.7452  0.0917 -0.2829
14875SOL     OW47162   4.806   1.824   1.970  0.1002  0.0040 -0.1391
14875SOL    HW147163   4.755   1.897   2.004  0.0333  0.5348 -1.3664
14875SOL    HW247164   4.740   1.761   1.940  0.1692  0.3955 -1.1049
14876SOL     OW47165   7.703   9.486   1.699  0.0483  0.0973 -0.3450
14876SOL    HW147166   7.771   9.425   1.671 -0.5281 -0.8081  0.2192
14876SOL    HW247167   7.708   9.558   1.636  1.5368  0.0520 -0.3102
14877SOL     OW47168   2.075   8.309   9.600 -0.1381  0.5846 -0.4508
14877SOL    HW147169   2.140   8.245   9.631  1.0348  1.6279 -0.7412
14877SOL    HW247170   2.026   8.262   9.533  1.1030  0.1578 -1.0795
14878SOL     OW47171  10.170   0.916   4.240  0.3363 -0.2626 -0.2729
14878SOL    HW147172  10.215   0.900   4.157 -0.8098 -0.3294 -0.8922
14878SOL    HW247173  10.187   1.008   4.260  0.5739 -0.2331 -0.6048
14879SOL     OW47174   8.971   8.209   5.132  0.2306 -0.1153  0.2236
14879SOL    HW147175   8.993   8.184   5.043  1.0148 -1.8377  0.8852
14879SOL    HW247176   8.875   8.208   5.135  0.1703  0.8849 -0.8331
14880SOL     OW47177  10.078   0.591   0.298  0.3209 -0.6618 -0.1715
14880SOL    HW147178  10.105   0.500   0.284 -2.0481 -1.0476 -2.5540
14880SOL    HW247179   9.985   0.592   0.278 -0.0978  1.9433  1.6491
14881SOL     OW47180   2.738   0.796   5.349 -0.1299  0.0341  0.1989
14881SOL    HW147181   2.792   0.785   5.271  1.3165  0.6757  1.0951
14881SOL    HW247182   2.662   0.845   5.319  1.2646  1.8163 -0.4661
14882SOL     OW47183   7.393   2.463   3.185  0.1583  0.2519  0.4932
14882SOL    HW147184   7.342   2.527   3.135 -0.1025 -0.7129 -0.4933
14882SOL    HW247185   7.441   2.516   3.249  0.1259  1.4631 -0.4540
14883SOL     OW47186   1.683   2.437   3.552 -0.2632  0.1837  0.7099
14883SOL    HW147187   1.625   2.380   3.502  0.1621 -0.9470  1.4854
14883SOL    HW247188   1.638   2.522   3.554 -1.5133 -0.4686  0.6627
14884SOL     OW47189   2.181   8.317   5.087  0.0346 -0.5995 -0.1885
14884SOL    HW147190   2.201   8.397   5.039  0.7101 -1.3440 -1.1658
14884SOL    HW247191   2.086   8.307   5.078  0.0962 -0.4935 -0.9909
14885SOL     OW47192   2.263  10.166   8.195  0.6852  0.4159  0.0252
14885SOL    HW147193   2.295  10.256   8.185 -0.5569  0.9785  1.0417
14885SOL    HW247194   2.187  10.161   8.137  0.3015  0.2426  0.5435
14886SOL     OW47195   1.132   1.685   9.673 -0.6860  0.1290 -0.0513
14886SOL    HW147196   1.091   1.610   9.717  2.5731 -0.9713  1.2206
14886SOL    HW247197   1.143   1.656   9.583  1.7291 -1.4783  0.7195
14887SOL     OW47198   0.440   8.662   0.995  0.6334 -0.1112 -0.6486
14887SOL    HW147199   0.512   8.621   0.946  2.1677  2.5575 -0.7073
14887SOL    HW247200   0.389   8.708   0.928 -0.0391 -0.4084 -0.3443
14888SOL     OW47201   9.012   1.750   7.468 -0.4525 -0.0199 -0.1303
14888SOL    HW147202   9.045   1.698   7.394  1.6533  1.1434 -0.0258
14888SOL    HW247203   9.089   1.771   7.519 -1.5432  1.6237  0.8596
14889SOL     OW47204   8.154   6.939   3.288 -0.1573 -0.5135  0.3300
14889SOL    HW147205   8.194   7.010   3.338  1.6011 -1.4298  0.2683
14889SOL    HW247206   8.166   6.963   3.197 -1.3445  0.0652  0.3212
14890SOL     OW47207   5.326   2.362   1.895 -0.1031  0.4565 -0.2183
14890SOL    HW147208   5.235   2.359   1.924  0.7637 -0.3284  2.5335
14890SOL    HW247209   5.330   2.440   1.839 -2.0596  1.5506  1.0923
14891SOL     OW47210   5.422   4.745   4.470 -0.5283 -0.2271 -0.3363
14891SOL    HW147211   5.351   4.681   4.467 -0.7944 -0.0201  1.3906
14891SOL    HW247212   5.480   4.719   4.399 -1.9798 -0.8033 -1.3426
14892SOL     OW47213   7.407   4.004   0.070  0.2221  0.0222 -0.1088
14892SOL    HW147214   7.409   4.050   0.154  2.4001  1.5648 -0.9615
14892SOL    HW247215   7.316   4.011   0.041 -0.3545  0.2217  1.7013
14893SOL     OW47216   9.066   5.365   7.130 -0.3392 -0.0258 -0.1049
14893SOL    HW147217   9.149   5.358   7.083  1.3395 -1.3357  2.8860
14893SOL    HW247218   9.018   5.285   7.107  0.3146 -0.4848  0.1094
14894SOL     OW47219  10.120   3.707   4.697 -0.1211 -0.6512  0.8547
14894SOL    HW147220  10.103   3.617   4.724 -0.0903 -1.6521 -2.2250
14894SOL    HW247221  10.215   3.713   4.690 -0.2129 -1.2782 -1.5806
14895SOL     OW47222   0.481   2.837   6.306 -0.1142  0.6996  0.2603
14895SOL    HW147223   0.521   2.831   6.393 -1.6664 -0.4106  0.9273
14895SOL    HW247224   0.388   2.851   6.324 -0.3756  0.8724 -1.2354
14896SOL     OW47225   8.786   8.258   2.934  0.4084 -0.3663  0.0518
14896SOL    HW147226   8.836   8.332   2.968 -0.2068 -0.6612  1.6503
14896SOL    HW247227   8.694   8.283   2.946  0.1947 -0.7831 -0.7089
14897SOL     OW47228   6.228   5.961   1.191  0.1553 -0.1806 -0.1982
14897SOL    HW147229   6.283   5.972   1.114  0.4579 -1.6179 -0.2077
14897SOL    HW247230   6.289   5.963   1.265  0.0507 -0.2949 -0.1072
14898SOL     OW47231   6.910   8.963   2.078  0.3546  0.2432  0.4567
14898SOL    HW147232   6.863   8.915   2.010  0.4802 -0.3901  0.8169
14898SOL    HW247233   6.928   9.048   2.039 -0.0006  0.0499 -0.1284
14899SOL     OW47234   6.833   8.201   6.341  0.0040  0.0302  0.4561
14899SOL    HW147235   6.775   8.274   6.365  0.0365  0.3567 -0.4387
14899SOL    HW247236   6.917   8.223   6.381  0.3906  1.1785 -0.9490
14900SOL     OW47237   3.076   5.166   8.344 -0.3645  0.1331 -0.3629
14900SOL    HW147238   2.996   5.217   8.361  0.4120  1.2954 -0.1378
14900SOL    HW247239   3.100   5.189   8.254 -0.1832 -0.0846 -0.3698
14901SOL     OW47240   1.703   6.590   5.953 -0.3557  0.4156  0.2182
14901SOL    HW147241   1.743   6.559   5.872  0.6112  0.8997  0.5063
14901SOL    HW247242   1.712   6.517   6.014 -0.5470  0.2657  0.0645
14902SOL     OW47243   7.080   8.785   6.692  0.2861 -0.7358  0.1025
14902SOL    HW147244   7.083   8.713   6.755  0.0439  0.2366  1.2406
14902SOL    HW247245   7.162   8.831   6.704 -0.3474  0.2569  0.6622
14903SOL     OW47246   0.748   3.877   6.518  0.1650  0.3418  0.2175
14903SOL    HW147247   0.813   3.938   6.553  0.1491  1.1230 -1.1000
14903SOL    HW247248   0.791   3.838   6.442  0.5280 -1.9869  1.5560
14904SOL     OW47249   3.903   0.788   7.268 -0.7506  0.3229  0.8606
14904SOL    HW147250   3.861   0.848   7.330 -1.9836  0.4387 -0.0797
14904SOL    HW247251   3.919   0.841   7.190  0.5837  0.1156  0.9844
14905SOL     OW47252   6.743   5.158   1.703 -0.1693  0.1276 -0.1483
14905SOL    HW147253   6.705   5.230   1.753  0.2703  0.4049 -0.2088
14905SOL    HW247254   6.802   5.201   1.641 -1.4854 -0.1302 -1.6267
14906SOL     OW47255   6.041   0.796   6.508 -0.3801  0.3886  0.1793
14906SOL    HW147256   5.992   0.859   6.456  0.4124  1.2747  0.4955
14906SOL    HW247257   6.042   0.716   6.455  0.6013  1.3396 -1.2643
14907SOL     OW47258   2.618   7.475   0.125 -0.1450  0.1787  1.0726
14907SOL    HW147259   2.555   7.537   0.089  0.9732  0.1458 -1.0393
14907SOL    HW247260   2.690   7.530   0.156  0.0061  0.0565  0.9392
14908SOL     OW47261   8.619  10.038   8.385 -0.1803 -0.1672 -0.6650
14908SOL    HW147262   8.638  10.131   8.374  1.8661 -0.3193  1.2952
14908SOL    HW247263   8.539  10.036   8.438 -0.2395  0.4823 -0.7300
14909SOL     OW47264   7.174   9.624   5.423 -0.4304 -0.3539  0.2911
14909SOL    HW147265   7.158   9.531   5.437  0.5536 -0.5897 -0.1697
14909SOL    HW247266   7.241   9.647   5.488 -0.1564 -0.1216 -0.0744
14910SOL     OW47267   2.134   4.157   0.796 -0.2044  0.4986  0.4716
14910SOL    HW147268   2.144   4.218   0.869 -0.0143  2.5732 -1.2371
14910SOL    HW247269   2.040   4.149   0.784 -0.2306  0.4798  0.6948
14911SOL     OW47270   0.187   9.757  10.016  0.5183  0.0240 -0.1415
14911SOL    HW147271   0.203   9.670  10.054 -0.6021  0.1385  0.6219
14911SOL    HW247272   0.272   9.799  10.015  0.7682 -0.4286  1.1389
14912SOL     OW47273   5.218   3.726   2.667  0.2418 -0.6568  0.1325
14912SOL    HW147274   5.157   3.770   2.608 -0.3628 -0.2084  1.0766
14912SOL    HW247275   5.207   3.633   2.647  2.3643 -0.3897 -2.6817
14913SOL     OW47276   2.691  10.089   1.884  0.1565 -0.1534  0.6832
14913SOL    HW147277   2.696  10.151   1.957  1.4368  0.4305  0.1022
14913SOL    HW247278   2.602  10.054   1.890 -0.7678  2.0875  0.7439
14914SOL     OW47279   4.775   2.592   8.200 -0.3463 -0.2223 -0.2645
14914SOL    HW147280   4.810   2.515   8.154 -2.2831 -0.3866 -1.5287
14914SOL    HW247281   4.726   2.555   8.273 -1.3880 -0.2170 -0.9480
14915SOL     OW47282   9.412   3.226   5.707  0.1888 -0.4834  0.7812
14915SOL    HW147283   9.455   3.303   5.669 -0.6363 -0.3638  0.0768
14915SOL    HW247284   9.320   3.252   5.716 -0.0460 -1.3017  0.7674
14916SOL     OW47285   2.991   1.568   7.680  0.8903  0.1977 -0.4665
14916SOL    HW147286   2.897   1.580   7.688  0.7891 -0.7774 -0.1705
14916SOL    HW247287   3.027   1.656   7.691 -0.0508  0.7643 -1.7623
14917SOL     OW47288   3.568   2.159   2.431  0.7787 -0.0526  0.0539
14917SOL    HW147289   3.503   2.217   2.469 -1.3161 -2.5988  0.5256
14917SOL    HW247290   3.578   2.089   2.496  0.7918 -1.9151 -1.9101
14918SOL     OW47291   2.356   4.002   0.900  0.1757  0.2584  0.5303
14918SOL    HW147292   2.355   3.918   0.855 -1.2624 -1.0049  2.8036
14918SOL    HW247293   2.277   4.047   0.870 -1.0070 -0.7558  1.9986
14919SOL     OW47294   4.987   5.727   8.585  0.4479 -0.3603 -0.2278
14919SOL    HW147295   4.984   5.635   8.611 -2.0820 -0.4743 -0.8169
14919SOL    HW247296   4.962   5.775   8.664 -1.3412 -0.3772 -0.7617
14920SOL     OW47297   8.794   0.987   6.614 -0.0678 -0.5616  0.7224
14920SOL    HW147298   8.771   1.003   6.706 -1.8338  0.4259  0.1398
14920SOL    HW247299   8.886   1.013   6.607  0.1023 -0.7108  2.2200
14921SOL     OW47300   6.791   6.556   6.829 -0.4770  0.2334  0.7228
14921SOL    HW147301   6.781   6.461   6.832 -0.8515  0.2414 -0.1812
14921SOL    HW247302   6.768   6.580   6.740 -3.0058  1.4585  1.6504
14922SOL     OW47303   0.189   5.787   1.330 -0.2258 -0.2546  0.1418
14922SOL    HW147304   0.240   5.732   1.390  1.5879  0.5592 -0.6323
14922SOL    HW247305   0.119   5.823   1.385  1.7961  0.9918  1.9627
14923SOL     OW47306   3.538   7.499   1.304 -0.1468  0.5902  0.0171
14923SOL    HW147307   3.542   7.410   1.339  1.7310  0.8240  0.4415
14923SOL    HW247308   3.580   7.493   1.218  2.7246  1.6248  1.2973
14924SOL     OW47309   0.624   1.269   5.364  0.0807  0.6227  0.1523
14924SOL    HW147310   0.596   1.185   5.400  0.1640  0.7402  0.4977
14924SOL    HW247311   0.548   1.302   5.317  0.6517 -0.5519 -1.6532
14925SOL     OW47312   7.350   8.615   0.134  0.0018  0.1091 -0.3548
14925SOL    HW147313   7.406   8.608   0.211 -1.9566 -0.1427  1.0959
14925SOL    HW247314   7.374   8.539   0.080  0.7915 -0.1852  0.4032
14926SOL     OW47315   3.629   8.706   0.350 -0.0526 -0.5256  0.2155
14926SOL    HW147316   3.685   8.669   0.418 -0.7936  0.9519  1.6874
14926SOL    HW247317   3.685   8.713   0.273  1.1018 -1.2664  0.9727
14927SOL     OW47318   9.651   0.453   2.666 -0.5586  0.0244 -0.1439
14927SOL    HW147319   9.667   0.446   2.572  1.7135  0.2064  0.2232
14927SOL    HW247320   9.671   0.544   2.688 -1.1867  0.0118  0.5091
14928SOL     OW47321   9.263   5.191   3.672 -0.4519  0.0869  0.1668
14928SOL    HW147322   9.298   5.154   3.753  0.6905  1.9526  0.5420
14928SOL    HW247323   9.194   5.250   3.701 -0.0145  0.7847 -0.2149
14929SOL     OW47324   3.918   0.812   8.926 -0.0535 -0.2250  0.0123
14929SOL    HW147325   3.893   0.847   9.012  1.5090 -0.8702  0.7454
14929SOL    HW247326   3.925   0.718   8.940  1.0536 -0.2326 -0.6065
14930SOL     OW47327   8.504   2.309   6.540  0.5404  0.4952  0.4393
14930SOL    HW147328   8.415   2.288   6.511  0.5496 -0.6539  1.2054
14930SOL    HW247329   8.511   2.404   6.533 -0.8405  0.6089  0.6568
14931SOL     OW47330   7.279   1.844   3.232  0.1670 -0.1960  0.0164
14931SOL    HW147331   7.350   1.807   3.285 -0.1964 -0.5587  0.2536
14931SOL    HW247332   7.244   1.770   3.184  1.1202  0.2955 -1.4755
14932SOL     OW47333   7.788   7.598   0.801  0.6382  0.0058 -0.6830
14932SOL    HW147334   7.734   7.534   0.847  1.4961 -0.5075 -0.3574
14932SOL    HW247335   7.765   7.682   0.840 -1.6510  0.1122 -2.2038
14933SOL     OW47336   6.228   1.726   1.114  0.1645 -0.8471  0.6232
14933SOL    HW147337   6.229   1.775   1.196 -0.6302  0.9932 -0.4586
14933SOL    HW247338   6.290   1.654   1.129  1.8010  0.8149  1.9921
14934SOL     OW47339   6.441   6.419   5.425 -0.0860 -0.0463  0.0508
14934SOL    HW147340   6.512   6.383   5.478 -0.4272 -0.9425 -0.0915
14934SOL    HW247341   6.433   6.359   5.351 -0.2578  0.6621 -0.5151
14935SOL     OW47342   2.728   0.499   2.337 -0.0427 -0.4289 -0.0692
14935SOL    HW147343   2.693   0.437   2.273 -0.9737 -1.8599  1.8071
14935SOL    HW247344   2.681   0.581   2.318 -0.7045 -0.9835 -0.8676
14936SOL     OW47345   0.920   7.132   9.461 -0.0167  0.5111  0.7590
14936SOL    HW147346   0.975   7.070   9.413 -1.1454 -0.6410  0.9358
14936SOL    HW247347   0.981   7.200   9.490  1.5123 -1.2427  1.7944
14937SOL     OW47348   1.867   9.484   9.353  1.0501 -0.0539 -0.3274
14937SOL    HW147349   1.886   9.394   9.381  0.1786  0.0823  0.7051
14937SOL    HW247350   1.901   9.539   9.423  2.3239  0.4889 -1.3323
14938SOL     OW47351   0.613   9.094   5.204  0.0174  0.0135 -0.0375
14938SOL    HW147352   0.554   9.081   5.129 -0.2466 -0.8075  0.3052
14938SOL    HW247353   0.580   9.033   5.270  0.6267  0.2991  0.5245
14939SOL     OW47354   2.936   6.376   8.073  0.0169 -0.1742  0.0153
14939SOL    HW147355   2.973   6.381   8.161  0.1789 -0.9008 -0.0069
14939SOL    HW247356   2.941   6.283   8.050  2.1585  0.3293 -1.7074
14940SOL     OW47357   2.309   8.540   6.477 -0.6822 -0.2386  0.2497
14940SOL    HW147358   2.337   8.450   6.495 -2.7683 -0.5591  2.0581
14940SOL    HW247359   2.356   8.593   6.541  0.6644  0.0270 -0.9138
14941SOL     OW47360   8.201   9.701   9.796 -0.2924  0.2970  0.1689
14941SOL    HW147361   8.258   9.731   9.725 -0.8629 -0.3225 -0.5593
14941SOL    HW247362   8.251   9.633   9.841  0.3654  1.2126  0.8282
14942SOL     OW47363  10.106   8.145   4.716 -0.1147 -0.2399 -0.1493
14942SOL    HW147364  10.131   8.052   4.715  2.4256  0.4151 -0.5323
14942SOL    HW247365  10.151   8.180   4.793 -2.2924  0.3867  0.8741
14943SOL     OW47366   1.073   4.338   1.698  0.0128  0.3281 -0.7058
14943SOL    HW147367   1.148   4.287   1.669 -0.2940 -0.5154 -0.0309
14943SOL    HW247368   1.084   4.423   1.656  2.8419  1.1849  1.6083
14944SOL     OW47369   7.055   8.548   2.048 -0.3537  0.6565  0.1777
14944SOL    HW147370   7.021   8.579   2.131 -0.4011 -0.6832  0.6767
14944SOL    HW247371   7.071   8.627   1.997 -1.2853  1.4369  1.0780
14945SOL     OW47372   1.582   3.153   3.361  0.1448  0.2989  0.4919
14945SOL    HW147373   1.609   3.204   3.437  1.1910  0.6234 -0.0824
14945SOL    HW247374   1.607   3.207   3.286 -1.8546  0.4634 -0.0831
14946SOL     OW47375   0.912   6.291   3.456 -0.1009  0.2089  0.0782
14946SOL    HW147376   0.955   6.239   3.524 -1.4724 -0.5479  0.3918
14946SOL    HW247377   0.960   6.271   3.376 -0.1420 -0.9422  0.3395
14947SOL     OW47378   1.055   9.824   7.975 -0.5459  0.0482  0.4760
14947SOL    HW147379   1.012   9.779   7.902 -1.0575  2.2627 -0.6369
14947SOL    HW247380   1.144   9.789   7.975 -0.8648 -0.8042 -0.5051
14948SOL     OW47381   0.601   9.310   5.983  0.3777 -0.5119  0.0695
14948SOL    HW147382   0.649   9.389   5.958  1.6399 -0.9670  0.9946
14948SOL    HW247383   0.547   9.290   5.907  0.9331  0.5662 -0.6287
14949SOL     OW47384   8.441   7.532   5.396  0.2390 -0.1170 -0.0293
14949SOL    HW147385   8.399   7.461   5.444  0.3470 -0.9169 -1.1101
14949SOL    HW247386   8.530   7.536   5.432 -0.4217  0.9331  1.5690
14950SOL     OW47387   5.513   6.279   5.178  0.2532  0.0458  0.4696
14950SOL    HW147388   5.476   6.240   5.098  1.0337  0.1698  0.0399
14950SOL    HW247389   5.581   6.338   5.146  1.6129 -1.0489  1.3041
14951SOL     OW47390   4.275   7.975   1.537 -0.2017 -0.0360 -0.0526
14951SOL    HW147391   4.225   8.006   1.461 -0.2677  0.3410  0.1411
14951SOL    HW247392   4.360   8.018   1.529 -0.0761 -0.2996 -0.1242
14952SOL     OW47393   5.357   1.443   9.932 -0.0626 -0.6447 -0.0701
14952SOL    HW147394   5.339   1.500   9.857 -1.0427  1.8156  1.9332
14952SOL    HW247395   5.451   1.428   9.928  0.1345  0.7099 -0.9779
14953SOL     OW47396   8.711   6.881   0.248  0.4761 -0.0894  0.0977
14953SOL    HW147397   8.714   6.971   0.281 -0.8996  0.5687 -1.5343
14953SOL    HW247398   8.668   6.831   0.317  1.4363  0.4483  1.1025
14954SOL     OW47399   8.601   7.100   1.735 -0.0851  0.3627 -0.5229
14954SOL    HW147400   8.680   7.105   1.789 -0.1929  1.0198 -0.4224
14954SOL    HW247401   8.554   7.024   1.768 -1.0463  1.8170  1.5215
14955SOL     OW47402   2.925   6.257   2.557 -0.0308 -0.1983 -0.9216
14955SOL    HW147403   2.964   6.311   2.488 -1.1055  0.4155 -1.0520
14955SOL    HW247404   2.935   6.167   2.526 -1.6911  0.1419 -2.4808
14956SOL     OW47405   3.664   7.423   4.325 -0.2186  0.3258  0.1970
14956SOL    HW147406   3.720   7.361   4.371 -0.3831 -0.5237 -0.7352
14956SOL    HW247407   3.658   7.389   4.236 -0.6339  1.4680 -0.2246
14957SOL     OW47408   0.484   4.197   8.840  0.0003  0.1086 -0.0041
14957SOL    HW147409   0.433   4.120   8.864  1.6051 -1.1603 -0.5719
14957SOL    HW247410   0.497   4.188   8.746  0.3947  0.9469 -0.0311
14958SOL     OW47411   2.140   4.745   7.799  0.0072  0.0615 -0.1919
14958SOL    HW147412   2.093   4.674   7.842 -0.7126  0.3810 -0.4383
14958SOL    HW247413   2.156   4.809   7.868  1.6867 -0.8480  0.2860
14959SOL     OW47414   3.368   3.794   1.565 -0.6095 -0.3299 -0.3720
14959SOL    HW147415   3.300   3.855   1.538  0.8435  1.2326 -0.5508
14959SOL    HW247416   3.434   3.848   1.608  1.2854 -1.5753 -1.6254
14960SOL     OW47417   7.635   1.968   4.872 -0.1782  0.2113 -0.5021
14960SOL    HW147418   7.664   1.882   4.901  1.9131  0.7747 -0.8263
14960SOL    HW247419   7.649   2.025   4.948 -0.9003  0.3938 -0.5073
14961SOL     OW47420   1.859   7.600   3.304 -0.3591 -0.0225 -0.5939
14961SOL    HW147421   1.916   7.531   3.339  0.2157  0.6138 -0.2666
14961SOL    HW247422   1.838   7.654   3.381  0.3216  0.9686 -1.0990
14962SOL     OW47423   9.406   3.009   3.799  0.3028  0.8494 -0.8705
14962SOL    HW147424   9.409   2.921   3.836  0.2567  1.2318  0.0512
14962SOL    HW247425   9.497   3.038   3.799  0.3860  0.6007 -1.6755
14963SOL     OW47426   5.061   1.461   0.702  0.5774  0.2111 -0.3165
14963SOL    HW147427   5.019   1.425   0.625  2.8495 -0.1512 -1.4358
14963SOL    HW247428   4.989   1.484   0.761 -1.0733 -1.8535 -1.4835
14964SOL     OW47429   9.239   8.616   4.658  0.0361  0.4978  0.1773
14964SOL    HW147430   9.287   8.534   4.657 -0.0876  0.4320 -0.2327
14964SOL    HW247431   9.307   8.684   4.658  0.1446  0.3972  1.0298
14965SOL     OW47432   3.996   1.019   3.341 -0.5297  0.3132  0.4376
14965SOL    HW147433   3.943   0.994   3.265  0.3268 -1.7101  0.4730
14965SOL    HW247434   3.932   1.048   3.406 -1.3325  1.2447 -0.7489
14966SOL     OW47435   1.497   1.040   2.795  0.0097 -0.1373  0.3028
14966SOL    HW147436   1.540   1.110   2.746  0.2716  0.8604  1.9019
14966SOL    HW247437   1.524   1.055   2.886 -2.5154 -0.3768  1.1218
14967SOL     OW47438   9.600   6.661   8.618  0.1567  0.1560  0.0243
14967SOL    HW147439   9.671   6.614   8.661  1.3195  1.5600 -0.3618
14967SOL    HW247440   9.559   6.712   8.687 -0.1310 -0.2112  0.1300
14968SOL     OW47441   5.174   6.317   2.888  0.4071  0.6219 -0.1535
14968SOL    HW147442   5.110   6.370   2.842  0.5057  0.3573 -0.6047
14968SOL    HW247443   5.256   6.367   2.884  0.3122  0.7994  0.1188
14969SOL     OW47444   0.384   2.146   6.874 -0.1454 -0.3571  0.3610
14969SOL    HW147445   0.316   2.125   6.810 -0.0087 -0.3570  0.2172
14969SOL    HW247446   0.466   2.119   6.833 -0.0666 -0.4375  0.5711
14970SOL     OW47447   9.215   5.067   7.236  0.4905  0.1499 -0.2215
14970SOL    HW147448   9.248   5.140   7.183 -0.2561 -1.0134 -2.3258
14970SOL    HW247449   9.294   5.021   7.264  0.8545 -0.0386 -1.5198
14971SOL     OW47450   4.766   7.241   1.126  0.3715  0.2970  0.4096
14971SOL    HW147451   4.769   7.324   1.174  0.4648  0.8028 -0.4526
14971SOL    HW247452   4.824   7.183   1.175  0.5615  0.8477  0.8391
14972SOL     OW47453   3.119   5.045   0.192  0.7333  0.2397  0.8731
14972SOL    HW147454   3.135   4.952   0.174  0.0603  0.0903  1.0451
14972SOL    HW247455   3.185   5.069   0.257  0.4930 -0.2816  1.3122
14973SOL     OW47456   6.469   5.168   4.245 -0.2434  0.0225  0.3113
14973SOL    HW147457   6.493   5.221   4.169  1.4617  0.6066  1.2344
14973SOL    HW247458   6.541   5.106   4.255  0.2824  0.9080  2.3238
14974SOL     OW47459  10.146   1.533   7.387  0.7398  0.4280  0.0063
14974SOL    HW147460  10.082   1.539   7.316  3.3120  0.4145 -2.3968
14974SOL    HW247461  10.207   1.605   7.371  2.2114 -0.4816  1.3335
14975SOL     OW47462   9.241   4.395   4.647 -0.5473  0.3648 -0.1964
14975SOL    HW147463   9.207   4.390   4.736  0.1434 -2.0364 -0.0177
14975SOL    HW247464   9.314   4.333   4.645  0.0536  1.0869 -2.1690
14976SOL     OW47465   5.837   0.767   1.376  0.4349  0.5614  0.6965
14976SOL    HW147466   5.873   0.844   1.420  1.2318  0.5275  0.1065
14976SOL    HW247467   5.778   0.802   1.309  1.2664  0.6694  0.0224
14977SOL     OW47468   7.622   2.839   3.762  0.5045 -0.0023  0.1063
14977SOL    HW147469   7.583   2.753   3.747  0.2070  0.4751 -1.9381
14977SOL    HW247470   7.661   2.863   3.678  2.7438  0.7891  1.3312
14978SOL     OW47471   4.141   4.432   8.033 -0.1660 -0.0513 -0.1797
14978SOL    HW147472   4.071   4.432   8.097 -0.9784  0.1792 -1.0499
14978SOL    HW247473   4.133   4.348   7.988 -0.1422  0.1447 -0.5552
14979SOL     OW47474   6.364   8.272   0.387  0.4392  0.4871 -0.1684
14979SOL    HW147475   6.280   8.228   0.375  0.1544  0.5640  1.3547
14979SOL    HW247476   6.395   8.289   0.299 -0.4191 -0.9241 -0.7614
14980SOL     OW47477   4.327   1.575   9.400 -0.5970  0.4938  0.0817
14980SOL    HW147478   4.401   1.536   9.353  0.0801  0.8094  0.8726
14980SOL    HW247479   4.298   1.647   9.344  1.2804  1.9391  0.9148
14981SOL     OW47480   3.995   5.271   2.667  0.3012 -0.1069 -0.2709
14981SOL    HW147481   3.908   5.266   2.627  0.3403 -1.7077 -0.1777
14981SOL    HW247482   4.043   5.197   2.628  1.9816  1.4275 -1.1785
14982SOL     OW47483   0.637   2.061   1.888 -0.6383  0.2385 -0.0746
14982SOL    HW147484   0.661   2.130   1.826 -0.4613 -0.0420 -0.3180
14982SOL    HW247485   0.683   2.083   1.969  0.2773 -0.1922 -0.4786
14983SOL     OW47486   7.624   2.274   2.356 -0.2306 -0.2719 -0.5470
14983SOL    HW147487   7.601   2.305   2.268 -0.0409 -0.7799 -0.7754
14983SOL    HW247488   7.654   2.352   2.402 -0.9478  0.1192 -0.7294
14984SOL     OW47489   6.398   0.060   7.190  0.6974  0.1830 -0.5979
14984SOL    HW147490   6.380  -0.003   7.120  1.9401  0.2933 -1.0187
14984SOL    HW247491   6.481   0.032   7.227  0.2237  0.3409  0.6079
14985SOL     OW47492   6.578   4.826   5.602 -0.0958 -0.0910  0.8456
14985SOL    HW147493   6.643   4.854   5.538 -1.4594 -0.5259 -0.7403
14985SOL    HW247494   6.611   4.861   5.685  1.6145  0.5889 -0.0878
14986SOL     OW47495   5.050   7.464   9.596 -0.4176  0.3654  0.6502
14986SOL    HW147496   5.135   7.434   9.565  0.0618  1.5176  0.8620
14986SOL    HW247497   5.000   7.482   9.516 -0.0154  0.9785  0.5434
14987SOL     OW47498   1.908   3.260   6.463 -0.8505 -0.3018  0.8045
14987SOL    HW147499   2.001   3.245   6.445 -0.6939 -0.8997  2.0873
14987SOL    HW247500   1.864   3.182   6.429 -0.8965  0.0336  0.0930
14988SOL     OW47501   6.654   5.162   3.134  0.9146 -0.1016  0.3352
14988SOL    HW147502   6.572   5.145   3.180  1.4282 -2.9645  0.2874
14988SOL    HW247503   6.718   5.177   3.204  1.0857 -1.4937  0.4859
14989SOL     OW47504   6.529   4.619   3.599  0.1937  0.2127  0.2458
14989SOL    HW147505   6.544   4.699   3.649  0.3625 -0.0437  0.6007
14989SOL    HW247506   6.524   4.549   3.664  1.6874 -0.2964 -0.1823
14990SOL     OW47507   7.196   7.442   5.769  0.1596 -0.7505 -0.6382
14990SOL    HW147508   7.195   7.349   5.746  0.1685 -0.6811 -0.9175
14990SOL    HW247509   7.145   7.447   5.850  0.3665 -1.0338 -0.4906
14991SOL     OW47510   7.855   2.185   8.008 -0.2103 -0.3042  0.1523
14991SOL    HW147511   7.788   2.118   7.994 -0.5873 -0.3282  2.0087
14991SOL    HW247512   7.819   2.264   7.967  0.1948 -1.1768 -1.9735
14992SOL     OW47513   5.319   9.417   0.052  0.2047  0.5950 -0.3010
14992SOL    HW147514   5.286   9.375  -0.028 -0.7141  1.8224 -0.5747
14992SOL    HW247515   5.412   9.392   0.055 -0.3040 -1.4153 -0.4753
14993SOL     OW47516  10.162   3.819   9.286 -0.9812  0.6225 -0.0466
14993SOL    HW147517  10.172   3.889   9.350  1.4218  0.2647  0.0517
14993SOL    HW247518  10.082   3.839   9.239 -1.6835  2.0170  1.7059
14994SOL     OW47519   6.613   6.620   0.270  0.2036  0.1834  0.6926
14994SOL    HW147520   6.599   6.649   0.180  1.5707  2.3201  1.1400
14994SOL    HW247521   6.685   6.557   0.264 -0.0562 -0.0645  0.2174
14995SOL     OW47522   6.161   3.343   7.115 -0.3325 -0.1716  0.0993
14995SOL    HW147523   6.127   3.283   7.182 -0.3582  0.0089  0.2468
14995SOL    HW247524   6.250   3.363   7.143 -0.1619 -0.5067 -0.1969
14996SOL     OW47525   7.045   3.198   6.092 -0.5118 -0.1382  0.1338
14996SOL    HW147526   7.035   3.242   6.176 -0.1595 -1.0221  0.6418
14996SOL    HW247527   6.978   3.130   6.092 -0.3919 -0.2562 -0.2256
14997SOL     OW47528   3.730   0.678   9.714 -0.3989  0.0525  0.1936
14997SOL    HW147529   3.774   0.759   9.739 -0.2507  0.4120 -1.2332
14997SOL    HW247530   3.752   0.665   9.622 -3.7339  0.5421 -0.7407
14998SOL     OW47531   1.784   4.261   8.294 -0.2824 -0.4060  0.2434
14998SOL    HW147532   1.709   4.210   8.264 -0.3257  0.2287 -0.7589
14998SOL    HW247533   1.859   4.225   8.246 -0.0770 -0.4868  0.6187
14999SOL     OW47534   4.581   0.002   3.133  0.9549 -0.2427  0.2540
14999SOL    HW147535   4.669  -0.013   3.166  0.6775 -0.5669  0.8460
14999SOL    HW247536   4.567  -0.069   3.069  1.0881 -0.2442  0.2264
15000SOL     OW47537   4.923   1.608   0.014 -1.1473  0.3600  0.0546
15000SOL    HW147538   4.970   1.604  -0.069 -0.4680  0.0833  0.4410
15000SOL    HW247539   4.981   1.658   0.072 -2.5112  2.2794 -0.2032
15001SOL     OW47540   2.738   9.544   9.490  0.3060 -0.1213 -0.1110
15001SOL    HW147541   2.715   9.455   9.515 -0.7109  0.3829  0.8094
15001SOL    HW247542   2.667   9.598   9.525  0.7280  1.0108 -0.9653
15002SOL     OW47543   4.194   7.176   1.354 -0.1926  0.7821 -0.1282
15002SOL    HW147544   4.194   7.246   1.288  0.7633  1.0479  0.1455
15002SOL    HW247545   4.145   7.213   1.428  0.2082  1.1210 -0.0298
15003SOL     OW47546   2.931   5.026   0.949  0.2257  0.2371 -0.5509
15003SOL    HW147547   2.878   5.065   1.018  0.8590  0.0357  0.0644
15003SOL    HW247548   3.008   5.082   0.943  0.4928 -0.1317 -0.6184
15004SOL     OW47549   3.132   9.712   0.144  0.5656  0.4614 -0.2221
15004SOL    HW147550   3.214   9.717   0.094  0.2398  1.2599 -0.6797
15004SOL    HW247551   3.161   9.701   0.235  1.1843  0.8309 -0.3691
15005SOL     OW47552   3.907   0.742   2.620  0.3546  0.0236 -0.4353
15005SOL    HW147553   3.944   0.830   2.616 -0.2828  0.2810 -0.7049
15005SOL    HW247554   3.947   0.703   2.698  0.6238  0.5530 -0.3030
15006SOL     OW47555   9.315   2.935   4.550  0.2337 -0.0081  0.1958
15006SOL    HW147556   9.305   3.030   4.542  0.9326 -0.0669 -1.4894
15006SOL    HW247557   9.371   2.910   4.476 -0.6105 -1.8356  0.1426
15007SOL     OW47558   9.183   7.609   7.721  0.1643 -0.6617 -0.3465
15007SOL    HW147559   9.201   7.692   7.677  0.1060  0.2830  1.3714
15007SOL    HW247560   9.134   7.558   7.657 -3.3550  2.1462 -0.1143
15008SOL     OW47561   2.637   7.364   4.561  0.2059 -0.3781 -0.0624
15008SOL    HW147562   2.576   7.411   4.617 -0.1019  0.8881 -1.4324
15008SOL    HW247563   2.672   7.430   4.502 -0.4192 -1.8743 -2.1939
15009SOL     OW47564   0.980   3.787   7.238 -0.4849  0.2575 -0.3398
15009SOL    HW147565   0.934   3.804   7.320 -1.8319  1.3836 -1.3066
15009SOL    HW247566   0.952   3.700   7.212  0.1933 -0.2370  0.5416
15010SOL     OW47567   4.015   6.718   2.156 -0.3354  0.4093  0.3953
15010SOL    HW147568   4.009   6.813   2.161 -0.5357  0.4947 -1.3190
15010SOL    HW247569   4.100   6.697   2.194  0.1694  1.3561 -0.2085
15011SOL     OW47570   3.703   7.951   0.128  0.3776  0.1979 -0.3561
15011SOL    HW147571   3.699   7.863   0.090  0.5176  0.0531 -0.0476
15011SOL    HW247572   3.794   7.978   0.116  0.3855  0.2129 -0.2668
15012SOL     OW47573   0.833   7.049   5.592  0.4569  0.1945 -0.1697
15012SOL    HW147574   0.880   7.016   5.516  2.7662  0.2015  1.2287
15012SOL    HW247575   0.848   7.144   5.590  0.3981  0.2113  0.2258
15013SOL     OW47576   9.617   4.628   2.343  0.0520 -0.2780 -0.5061
15013SOL    HW147577   9.523   4.612   2.338  0.2104 -1.0031 -1.3242
15013SOL    HW247578   9.644   4.591   2.427 -0.5313  0.7050  0.1212
15014SOL     OW47579   1.556   6.505   5.315 -0.3079 -0.1163  0.4688
15014SOL    HW147580   1.491   6.514   5.385 -0.3921 -0.2675  0.4093
15014SOL    HW247581   1.632   6.554   5.347 -0.9561  1.2940 -0.0859
15015SOL     OW47582   9.800   0.202   8.382 -0.1950 -0.0196  0.4438
15015SOL    HW147583   9.706   0.212   8.391 -0.1256  0.8974  0.2724
15015SOL    HW247584   9.836   0.286   8.414  0.4318  0.5173 -1.6125
15016SOL     OW47585   1.045   9.756   1.369  0.6609  0.0316 -0.1941
15016SOL    HW147586   1.042   9.759   1.274 -0.3411  0.0202 -0.1676
15016SOL    HW247587   1.132   9.789   1.391  1.2899 -0.9491 -1.1439
15017SOL     OW47588   2.571   0.428   3.139  1.1435  0.2660 -0.1747
15017SOL    HW147589   2.590   0.346   3.094  0.4053 -0.8328  1.4706
15017SOL    HW247590   2.475   0.436   3.134  1.2728  1.4288 -1.0009
15018SOL     OW47591   6.143   2.308   1.466 -0.0424 -0.7912  0.1537
15018SOL    HW147592   6.065   2.341   1.511 -0.7393 -0.4395 -1.2929
15018SOL    HW247593   6.118   2.221   1.435  0.2859 -0.8481  0.0454
15019SOL     OW47594   9.769   5.254   2.555  0.5798  0.2614  0.0007
15019SOL    HW147595   9.802   5.245   2.465 -1.1462 -0.5916 -0.5663
15019SOL    HW247596   9.748   5.347   2.563  1.3232  0.4593 -0.2598
15020SOL     OW47597   2.905   2.629   1.046  0.0344 -0.0259 -0.5362
15020SOL    HW147598   2.924   2.536   1.036 -0.8457 -0.4563  1.6404
15020SOL    HW247599   2.990   2.669   1.068 -0.0529 -0.7229  1.1304
15021SOL     OW47600   1.891   7.015   8.117 -0.2099 -0.5747  0.4652
15021SOL    HW147601   1.808   6.968   8.128 -0.5736 -0.5481 -1.9406
15021SOL    HW247602   1.900   7.027   8.023  2.6291 -0.7354  0.6626
15022SOL     OW47603   8.210   5.385   6.259 -0.0340 -0.0303  0.1759
15022SOL    HW147604   8.259   5.436   6.194 -0.3248  1.0040  0.7573
15022SOL    HW247605   8.268   5.311   6.280  0.6020  0.3208 -0.3240
15023SOL     OW47606   8.905   6.405   1.753  0.1984  0.4700 -0.1608
15023SOL    HW147607   8.948   6.327   1.717 -1.0278 -0.0330 -0.5865
15023SOL    HW247608   8.909   6.470   1.683 -1.8676 -0.3900 -1.1182
15024SOL     OW47609   1.898   7.632   9.184 -0.4073  0.4204 -0.9292
15024SOL    HW147610   1.926   7.647   9.094  1.7175  0.2016 -0.3244
15024SOL    HW247611   1.807   7.603   9.176 -0.4592  1.0807 -2.9494
15025SOL     OW47612   8.244   8.079  10.194 -0.2695  0.1529 -0.1654
15025SOL    HW147613   8.291   8.095  10.112 -0.4158  0.4957 -0.1802
15025SOL    HW247614   8.158   8.117  10.181  0.2213  1.6076  0.7112
15026SOL     OW47615   7.630   3.458   3.042  0.2875  0.1803  0.1749
15026SOL    HW147616   7.574   3.531   3.067  0.4423  0.5808 -0.6644
15026SOL    HW247617   7.587   3.381   3.080 -0.5771  0.5393 -0.0753
15027SOL     OW47618   1.572   4.092   3.882 -0.2576 -0.0496  0.2695
15027SOL    HW147619   1.509   4.139   3.935  0.9687  0.6870  1.1002
15027SOL    HW247620   1.652   4.090   3.935  0.9046  0.4401 -1.3884
15028SOL     OW47621   3.538   6.771   3.496 -0.3199  0.0447  0.0014
15028SOL    HW147622   3.592   6.830   3.548  0.0750 -0.1232 -0.2200
15028SOL    HW247623   3.501   6.826   3.427  0.9796 -0.2171 -0.8996
15029SOL     OW47624   3.314   5.727   2.668 -0.1809  0.4230 -0.2497
15029SOL    HW147625   3.391   5.767   2.708  0.0240 -1.6228  1.5591
15029SOL    HW247626   3.323   5.634   2.689 -1.7867 -0.2278 -2.3187
15030SOL     OW47627   9.018   3.778   0.638  0.2369  0.1841  0.4098
15030SOL    HW147628   9.068   3.697   0.641  0.9786  0.5922 -0.5891
15030SOL    HW247629   9.078   3.845   0.670  0.0908  0.5478 -0.0645
15031SOL     OW47630   2.954   4.080   2.278  0.3095 -0.0750 -0.4819
15031SOL    HW147631   2.876   4.110   2.231  0.3398 -0.5934 -0.8599
15031SOL    HW247632   2.943   3.986   2.286 -0.5119  0.2067  2.0627
15032SOL     OW47633   3.160   8.130   1.137  0.1052 -0.4338 -0.0941
15032SOL    HW147634   3.100   8.091   1.200 -1.5582  0.1745 -1.2730
15032SOL    HW247635   3.234   8.069   1.133  1.2498  0.5685  3.9695
15033SOL     OW47636   4.403   3.194   3.442  0.7183  0.2599  0.1897
15033SOL    HW147637   4.310   3.197   3.468  0.6805  1.4494 -0.0177
15033SOL    HW247638   4.444   3.263   3.495  1.2047  0.7233 -0.7858
15034SOL     OW47639   7.873   8.222   1.469 -0.4887  0.5166  0.4841
15034SOL    HW147640   7.829   8.279   1.533 -0.8233  1.5829 -0.6879
15034SOL    HW247641   7.935   8.171   1.522 -0.7564  1.3848  1.6575
15035SOL     OW47642   6.340   1.319   4.551 -0.2638  0.6393  0.0762
15035SOL    HW147643   6.301   1.403   4.572 -2.3164 -0.7157  1.8987
15035SOL    HW247644   6.366   1.282   4.636  1.7168 -0.0725 -0.7937
15036SOL     OW47645   9.085   9.974   1.713  0.2772  0.3726 -0.0346
15036SOL    HW147646   9.096  10.068   1.726 -0.6212  0.3747  0.7458
15036SOL    HW247647   9.138   9.935   1.783 -0.3760  0.3203  0.4368
15037SOL     OW47648   1.441   7.434   8.454 -0.3274  0.0145  0.0405
15037SOL    HW147649   1.419   7.415   8.545 -1.1041  0.0004 -0.1476
15037SOL    HW247650   1.408   7.359   8.404  1.1507 -0.5495 -0.1335
15038SOL     OW47651   9.330   7.798   4.792 -0.1535 -0.0357 -0.1349
15038SOL    HW147652   9.237   7.814   4.774  0.2449  1.8440 -0.5670
15038SOL    HW247653   9.369   7.885   4.798  1.5396 -0.8056  0.3354
15039SOL     OW47654   8.870   1.157   9.342  0.4363  0.8078 -0.1302
15039SOL    HW147655   8.917   1.206   9.409  0.8499  0.5519 -0.2280
15039SOL    HW247656   8.938   1.135   9.277  0.4234 -0.5484  0.2908
15040SOL     OW47657   5.589   3.987   6.006 -0.3839  0.2969 -0.6988
15040SOL    HW147658   5.641   4.067   6.014 -0.6898  0.3391  1.2106
15040SOL    HW247659   5.650   3.916   6.025 -0.7556  0.2775  0.4639
15041SOL     OW47660   2.070   9.111   5.275 -0.0903  0.1516 -0.5462
15041SOL    HW147661   2.021   9.055   5.216 -0.8301  0.4261 -0.1983
15041SOL    HW247662   2.146   9.059   5.301 -0.4864 -0.4818 -0.6514
15042SOL     OW47663   1.590   8.204   1.787 -0.3071 -0.2460  0.1694
15042SOL    HW147664   1.650   8.145   1.740  0.5388  1.0340 -0.3837
15042SOL    HW247665   1.625   8.207   1.876 -0.6382 -0.9606  0.3255
15043SOL     OW47666   7.507   1.396   1.970  0.0103  0.2311 -0.6617
15043SOL    HW147667   7.513   1.351   2.054  0.3006  1.0098 -0.2577
15043SOL    HW247668   7.570   1.350   1.914  0.8269  0.5737 -0.0412
15044SOL     OW47669   1.704   9.278   8.414 -0.1155  0.6404 -0.0364
15044SOL    HW147670   1.732   9.347   8.354  1.8086  0.1303  0.2408
15044SOL    HW247671   1.615   9.257   8.386  0.1619  1.5480 -1.6697
15045SOL     OW47672   5.536   0.261   7.522  0.7179 -0.7329 -0.7380
15045SOL    HW147673   5.572   0.345   7.492  1.2324 -1.1294 -1.2318
15045SOL    HW247674   5.583   0.242   7.603  0.0876 -0.1876 -0.2423
15046SOL     OW47675   2.798   4.839   3.022 -0.2138  0.1071 -0.2567
15046SOL    HW147676   2.863   4.770   3.009  1.4826  2.2326 -3.7196
15046SOL    HW247677   2.847   4.911   3.062 -0.4300  1.6775 -2.7505
15047SOL     OW47678  10.023   0.573   5.776 -0.4251  0.7484  0.0508
15047SOL    HW147679  10.028   0.652   5.830 -0.9661  1.0164 -0.2850
15047SOL    HW247680   9.942   0.584   5.726 -1.1021 -0.5612  0.8476
15048SOL     OW47681   1.373   4.235   4.051  0.1056 -0.3469 -0.2647
15048SOL    HW147682   1.301   4.287   4.086  0.7572  0.6361 -0.3868
15048SOL    HW247683   1.447   4.251   4.109  0.6861 -0.0862 -1.0537
15049SOL     OW47684   1.910   7.972   8.510  0.1703 -0.1199  0.0523
15049SOL    HW147685   1.830   7.959   8.560  0.8289  2.0225  1.7576
15049SOL    HW247686   1.886   8.033   8.441 -0.1604 -1.1812 -0.7864
15050SOL     OW47687   3.534   4.712   2.883 -0.2140 -0.5849 -0.9007
15050SOL    HW147688   3.492   4.678   2.962  0.2792 -0.7768 -0.7159
15050SOL    HW247689   3.544   4.636   2.826 -1.0444 -0.3481 -1.3667
15051SOL     OW47690   7.515   0.068   7.984 -0.0327 -0.4105  0.0482
15051SOL    HW147691   7.460   0.029   7.915 -2.2100  0.2314  1.3592
15051SOL    HW247692   7.515   0.162   7.964 -0.2467 -0.2878  0.6152
15052SOL     OW47693   2.382   9.593   5.607  0.0037  0.4814 -0.5579
15052SOL    HW147694   2.430   9.513   5.589 -1.5454 -1.4349  3.3180
15052SOL    HW247695   2.317   9.599   5.537 -2.7241 -4.1030  1.3495
15053SOL     OW47696   2.811   1.725   3.903  0.2741  0.6596  0.1231
15053SOL    HW147697   2.803   1.659   3.834 -0.6893  2.3646 -1.4374
15053SOL    HW247698   2.892   1.771   3.883  0.7062  0.2706  0.9475
15054SOL     OW47699   9.047   3.910   1.567 -0.1354 -0.0118  0.3342
15054SOL    HW147700   9.119   3.917   1.630 -0.1314 -0.8168  0.4205
15054SOL    HW247701   9.013   3.821   1.579 -3.0912  1.3389  2.3646
15055SOL     OW47702  10.129   4.475   9.301 -0.1652  0.0697  0.1278
15055SOL    HW147703  10.114   4.400   9.244  2.6503  0.6023 -1.4035
15055SOL    HW247704  10.104   4.551   9.248 -0.7349  0.3813  0.8258
15056SOL     OW47705   8.248   6.411   8.765  0.2512  0.1434 -0.4628
15056SOL    HW147706   8.233   6.485   8.706 -0.3664  1.2541  1.0656
15056SOL    HW247707   8.303   6.446   8.834 -0.6208 -0.6462  0.6467
15057SOL     OW47708   2.053   1.517   3.427 -0.1450 -0.1005 -0.5121
15057SOL    HW147709   2.126   1.541   3.485 -3.1496  0.7742  3.1696
15057SOL    HW247710   2.004   1.599   3.416 -1.1892 -0.8978 -1.9578
15058SOL     OW47711   2.003   1.450   8.030 -0.4401  0.5864 -0.1843
15058SOL    HW147712   2.029   1.500   8.108  0.5382  0.5268 -0.4581
15058SOL    HW247713   2.070   1.472   7.965 -1.4963  0.9673 -1.1461
15059SOL     OW47714   7.134   5.136   6.757  0.5544  0.4436  0.3328
15059SOL    HW147715   7.107   5.045   6.748 -0.7712  0.7806  0.7891
15059SOL    HW247716   7.155   5.164   6.668 -0.8333  0.2327 -0.0698
15060SOL     OW47717   4.234   1.830   9.309 -0.0348 -0.7636 -0.6375
15060SOL    HW147718   4.270   1.919   9.314  2.5422 -1.8767  2.3515
15060SOL    HW247719   4.189   1.817   9.392 -0.8660 -2.0665 -1.2784
15061SOL     OW47720   8.999   8.137   9.998  0.6597 -0.1652 -0.0109
15061SOL    HW147721   9.062   8.198  10.038  0.7804 -0.5876  0.4608
15061SOL    HW247722   9.054   8.073   9.953  0.5551 -0.2517 -0.0134
15062SOL     OW47723   4.559   0.944   0.133 -0.0588  0.8112  0.2348
15062SOL    HW147724   4.552   0.957   0.038 -1.5213 -0.6931  0.1203
15062SOL    HW247725   4.521   1.024   0.171 -0.4125  0.9642 -0.4408
15063SOL     OW47726   2.964   6.292   8.436 -0.4456  0.2192  0.3769
15063SOL    HW147727   2.935   6.223   8.496 -0.8109 -0.5337 -0.6490
15063SOL    HW247728   3.039   6.333   8.480  2.2557 -3.3592 -0.6831
15064SOL     OW47729   5.423   9.571   8.283 -0.0059  0.0427 -0.0751
15064SOL    HW147730   5.385   9.645   8.331 -0.0364  0.1113 -0.2060
15064SOL    HW247731   5.453   9.609   8.201  1.7330  0.2956  0.6486
15065SOL     OW47732   9.539   1.531   3.260  0.2178  0.4075 -0.5596
15065SOL    HW147733   9.476   1.577   3.205  1.4453  1.1636 -1.3756
15065SOL    HW247734   9.509   1.544   3.349 -1.7896 -0.7869 -1.0422
15066SOL     OW47735   0.440   2.433   0.658  0.0610 -0.1377 -0.5886
15066SOL    HW147736   0.415   2.450   0.567 -0.4420  0.7236 -0.2891
15066SOL    HW247737   0.521   2.481   0.670 -0.3600  0.5113 -0.3103
15067SOL     OW47738   6.864   7.136   4.203 -0.0658  0.3910  0.0287
15067SOL    HW147739   6.791   7.120   4.262  1.2796  0.5250  1.7798
15067SOL    HW247740   6.900   7.049   4.185 -1.1131  0.2449 -1.4784
15068SOL     OW47741   1.605   4.648   1.626 -0.0563 -0.7615  0.8125
15068SOL    HW147742   1.599   4.569   1.679  3.1080 -1.8476 -0.3295
15068SOL    HW247743   1.643   4.619   1.543  2.0889  2.0541  0.7154
15069SOL     OW47744   7.530   5.637   9.535 -0.2060 -0.1727 -0.5807
15069SOL    HW147745   7.484   5.621   9.453 -1.8252  1.2136  0.0402
15069SOL    HW247746   7.497   5.721   9.566  1.5313  0.0659  0.7138
15070SOL     OW47747   3.392   0.123   6.922 -0.2970 -0.5370 -0.1045
15070SOL    HW147748   3.389   0.110   6.828 -2.9234 -1.0578  0.0070
15070SOL    HW247749   3.413   0.036   6.957  1.1709 -0.2386 -0.2052
15071SOL     OW47750   6.225   7.531   3.412  0.5034  0.6313  0.3660
15071SOL    HW147751   6.236   7.536   3.507  0.7263  0.7659  0.3331
15071SOL    HW247752   6.314   7.532   3.377  0.3941  1.4497  0.1120
15072SOL     OW47753   2.789   6.495   7.194  0.1327  0.2866 -0.3683
15072SOL    HW147754   2.827   6.554   7.258 -0.0792  0.7606 -0.6764
15072SOL    HW247755   2.734   6.435   7.246  1.3395 -0.4451  0.0751
15073SOL     OW47756   5.818   0.987   2.692  0.3026 -0.0271 -0.3885
15073SOL    HW147757   5.795   0.919   2.629 -0.8434  1.0266 -1.1314
15073SOL    HW247758   5.790   0.952   2.777 -0.6470 -0.2979 -0.8179
15074SOL     OW47759   7.352   2.110   1.365 -0.0917 -0.4276 -0.0461
15074SOL    HW147760   7.279   2.169   1.380 -0.3145 -0.9946  1.1592
15074SOL    HW247761   7.427   2.167   1.347 -0.6642  0.1671 -0.5572
15075SOL     OW47762   0.483   2.243   5.544  0.6772  0.1107  0.0627
15075SOL    HW147763   0.426   2.183   5.496  0.2545  0.5848 -0.0334
15075SOL    HW247764   0.553   2.188   5.578  0.1467 -0.4887  0.1984
15076SOL     OW47765   2.657   6.803   8.129  0.2502 -0.8980 -0.0550
15076SOL    HW147766   2.667   6.709   8.116 -0.5522 -1.1112  0.8133
15076SOL    HW247767   2.650   6.814   8.224  0.6494  0.0684 -0.1298
15077SOL     OW47768   7.515   3.509   5.398  0.5804  0.3662 -0.2103
15077SOL    HW147769   7.463   3.445   5.447 -0.6396  1.4412 -0.0761
15077SOL    HW247770   7.483   3.502   5.308 -0.8619  2.0676  0.1468
15078SOL     OW47771   9.438   9.851   5.169 -0.2710 -0.2796  0.0031
15078SOL    HW147772   9.383   9.783   5.130 -0.5730 -0.0167 -0.0266
15078SOL    HW247773   9.527   9.815   5.165 -0.3049 -0.2783 -0.8707
15079SOL     OW47774   2.526   6.309  10.038  0.6387  0.0446  1.2083
15079SOL    HW147775   2.529   6.218  10.008 -0.7701  0.3923 -0.0065
15079SOL    HW247776   2.552   6.303  10.131  0.8092 -1.5533  1.0848
15080SOL     OW47777   7.631   3.347   6.180  0.2616 -0.5576  0.0074
15080SOL    HW147778   7.600   3.410   6.245  2.4577  0.7360 -0.1396
15080SOL    HW247779   7.557   3.288   6.166 -1.5883  1.5259  0.7334
15081SOL     OW47780   7.821   4.264   4.471  0.4571  0.3892 -0.2145
15081SOL    HW147781   7.883   4.334   4.447  1.1066  0.3755  1.3742
15081SOL    HW247782   7.854   4.231   4.555 -0.4498 -1.1284 -0.4517
15082SOL     OW47783   9.419   5.092   2.102  0.3261  0.2176  0.4825
15082SOL    HW147784   9.458   5.139   2.176  2.6828  0.7689 -1.0708
15082SOL    HW247785   9.439   5.000   2.119  1.1856  0.3784  0.3525
15083SOL     OW47786   1.217   8.547   2.303  0.3314  0.0298  0.0808
15083SOL    HW147787   1.301   8.582   2.334  0.4304 -0.1557  0.0292
15083SOL    HW247788   1.175   8.512   2.382 -0.6192  1.9705  0.4498
15084SOL     OW47789   7.697   9.221   7.193  0.0337  0.7785 -0.0785
15084SOL    HW147790   7.683   9.144   7.138  0.3104  0.8784 -0.2952
15084SOL    HW247791   7.644   9.290   7.153  0.1025  0.8067 -0.1213
15085SOL     OW47792   2.609   1.045   9.619  1.0394 -0.1472  0.6567
15085SOL    HW147793   2.682   1.107   9.619  0.6573  0.3515  2.8740
15085SOL    HW247794   2.554   1.073   9.692 -1.0306 -0.9346 -0.5506
15086SOL     OW47795   4.226   4.628   3.509  0.5740 -0.5887 -0.6833
15086SOL    HW147796   4.194   4.612   3.598  2.6066  0.8279  0.3297
15086SOL    HW247797   4.268   4.546   3.483 -0.9717 -1.3632 -0.7713
15087SOL     OW47798   7.558   2.865   8.655  0.0015 -0.1871  0.2047
15087SOL    HW147799   7.574   2.771   8.649  2.1105  0.1810 -0.2877
15087SOL    HW247800   7.484   2.873   8.715 -1.2512 -2.2377 -1.0024
15088SOL     OW47801   8.690   6.976   3.354  0.4268  0.7696  0.6504
15088SOL    HW147802   8.624   7.045   3.344  2.1792  2.3215 -0.7081
15088SOL    HW247803   8.757   7.015   3.410  2.1165  0.7145 -1.2749
15089SOL     OW47804   9.439   6.480   8.792  0.1022  0.0628  0.1938
15089SOL    HW147805   9.413   6.463   8.702  0.1732  1.8258 -0.1885
15089SOL    HW247806   9.535   6.473   8.791  0.0746 -0.3009  0.2179
15090SOL     OW47807   5.335   7.016   3.015  0.4991 -0.0155  0.2403
15090SOL    HW147808   5.420   7.047   3.045  1.0949 -0.5521 -0.8678
15090SOL    HW247809   5.294   7.091   2.973 -0.0237  0.5286  1.6697
15091SOL     OW47810   5.275   6.335   5.686 -0.0055 -0.0700  0.0516
15091SOL    HW147811   5.291   6.292   5.602 -0.3959 -1.5295  0.7126
15091SOL    HW247812   5.182   6.319   5.704  0.4234 -1.0454  1.4664
15092SOL     OW47813   6.221   2.801   9.665 -0.1590 -0.0965  0.3257
15092SOL    HW147814   6.192   2.868   9.604 -0.2131  1.1349  1.6844
15092SOL    HW247815   6.259   2.849   9.738  2.1122 -1.5852  0.1937
15093SOL     OW47816   3.485   9.971   0.949 -0.3834  0.0227 -0.4338
15093SOL    HW147817   3.500  10.006   0.861  0.4539  0.5149 -0.1036
15093SOL    HW247818   3.428  10.035   0.992 -0.9931 -0.3429 -0.6984
15094SOL     OW47819   3.020   7.391   6.320  0.3275  1.1209 -0.0133
15094SOL    HW147820   2.962   7.315   6.318 -1.0393  2.1487 -0.0660
15094SOL    HW247821   3.076   7.381   6.242 -0.2771  0.5148 -0.3719
15095SOL     OW47822   0.649  10.012   0.957  0.3979 -0.3499 -0.4874
15095SOL    HW147823   0.688  10.099   0.952 -0.3668 -0.0214 -0.7484
15095SOL    HW247824   0.660   9.986   1.049  0.0331  0.2882 -0.2648
15096SOL     OW47825   8.352   2.687   8.817 -0.3678 -0.2988  0.5059
15096SOL    HW147826   8.431   2.718   8.862 -0.3248  1.2893 -0.5977
15096SOL    HW247827   8.317   2.618   8.873  2.8510 -2.3716  0.0434
15097SOL     OW47828   6.195   1.053   0.613  0.3168  0.4730  0.4230
15097SOL    HW147829   6.113   1.058   0.663 -1.3098 -2.6466 -1.7712
15097SOL    HW247830   6.179   1.106   0.535 -1.2144 -3.2804 -1.9613
15098SOL     OW47831   4.076   4.129   5.430  0.0937  0.4019  0.5194
15098SOL    HW147832   4.014   4.061   5.402  0.1849 -0.1999  1.7505
15098SOL    HW247833   4.160   4.102   5.394  0.4138 -0.9203  2.1737
15099SOL     OW47834   3.191   5.069   8.016  0.2350 -0.0776 -0.1963
15099SOL    HW147835   3.273   5.087   8.063  2.9449  0.9362 -4.8987
15099SOL    HW247836   3.184   4.973   8.016  1.0542 -0.1482  0.8457
15100SOL     OW47837   2.799   7.592   1.024 -0.8725  0.5785  0.0926
15100SOL    HW147838   2.829   7.502   1.033 -0.8777  0.6757  1.1802
15100SOL    HW247839   2.806   7.611   0.930 -2.2283 -1.0198 -0.3676
15101SOL     OW47840   8.457   3.013   7.981  0.2879 -0.2050 -0.1776
15101SOL    HW147841   8.364   3.013   8.001  0.4039 -3.1304  0.6131
15101SOL    HW247842   8.461   3.023   7.886 -0.8691 -1.1427 -0.3279
15102SOL     OW47843   6.580   3.546   1.359 -0.4427  0.0630 -0.0536
15102SOL    HW147844   6.650   3.607   1.338 -1.2353  0.1317 -2.7247
15102SOL    HW247845   6.623   3.476   1.409  0.9124  1.5875  0.9537
15103SOL     OW47846  10.149   7.356   1.352  0.4117  0.1048  0.3631
15103SOL    HW147847  10.082   7.406   1.305  0.9689 -1.0004 -1.6582
15103SOL    HW247848  10.220   7.420   1.365 -0.9300  1.2364  2.3843
15104SOL     OW47849   1.301   0.842   0.576 -0.6736 -0.2812 -0.3966
15104SOL    HW147850   1.371   0.853   0.640  0.3453 -0.4531 -1.4654
15104SOL    HW247851   1.222   0.872   0.622 -0.2183 -1.8027  1.4458
15105SOL     OW47852   9.149   1.848   9.870 -0.3571  0.3806  0.2531
15105SOL    HW147853   9.082   1.815   9.929  1.4945  0.6856  2.6201
15105SOL    HW247854   9.148   1.789   9.795 -1.6241 -1.0243  1.3655
15106SOL     OW47855   9.190   6.500   2.471  0.0281 -0.5133  0.1655
15106SOL    HW147856   9.182   6.479   2.564 -1.9561 -1.9980 -0.3212
15106SOL    HW247857   9.231   6.423   2.433 -1.8214 -1.1112 -0.6521
15107SOL     OW47858   5.103   5.813   7.404 -0.0011  0.1043  0.0966
15107SOL    HW147859   5.031   5.852   7.455  1.2101  1.4066  0.8541
15107SOL    HW247860   5.182   5.856   7.438  1.2095 -1.8040 -0.2416
15108SOL     OW47861   6.677   3.926   9.957 -0.1559 -0.1329  0.0298
15108SOL    HW147862   6.738   3.866  10.000 -2.2400 -1.2859  1.4645
15108SOL    HW247863   6.646   3.878   9.881 -0.9510 -0.4563  0.5455
15109SOL     OW47864   9.056   0.584   7.251  0.2447  0.4050 -0.5446
15109SOL    HW147865   9.069   0.571   7.345  1.6184  0.4954 -0.7151
15109SOL    HW247866   9.131   0.636   7.223  0.3950 -0.5170 -1.8927
15110SOL     OW47867   9.147   8.155   2.704 -0.5157 -0.0743 -0.4284
15110SOL    HW147868   9.209   8.113   2.764 -0.3570  0.5742 -0.1422
15110SOL    HW247869   9.076   8.091   2.695 -0.6395 -0.0912  0.6009
15111SOL     OW47870   7.017   3.944   9.326 -0.3137 -0.2163 -0.3169
15111SOL    HW147871   7.097   3.971   9.282 -0.5502  0.5417 -0.2978
15111SOL    HW247872   7.033   3.963   9.418 -0.2858 -0.6334 -0.2365
15112SOL     OW47873   6.310   0.825   0.001  0.5221  0.2090 -0.2743
15112SOL    HW147874   6.307   0.901   0.059 -2.9035 -0.5527  0.6436
15112SOL    HW247875   6.284   0.751   0.056 -0.2272 -0.9693 -2.1405
15113SOL     OW47876   4.490   5.939   7.479  0.1811 -0.5412  0.6722
15113SOL    HW147877   4.541   5.895   7.547 -0.4208 -0.0201  1.4660
15113SOL    HW247878   4.537   5.918   7.398  1.9220  0.3112  1.4269
15114SOL     OW47879   5.964   5.936   6.995 -0.1848  0.4245 -0.1608
15114SOL    HW147880   5.884   5.931   7.048 -1.1654 -0.0624 -1.6620
15114SOL    HW247881   5.987   6.029   6.996 -1.4735  0.7629 -0.7176
15115SOL     OW47882   4.734   2.407  10.010  0.2231 -0.5063 -0.2656
15115SOL    HW147883   4.811   2.373   9.965 -0.1203 -1.7317  0.0658
15115SOL    HW247884   4.766   2.433  10.097  0.8424  1.6733 -1.1201
15116SOL     OW47885   3.553   1.431   5.791 -0.6099 -0.0518 -0.3357
15116SOL    HW147886   3.497   1.363   5.752 -1.9825  1.6532 -1.3700
15116SOL    HW247887   3.533   1.426   5.885 -1.7085 -0.1873 -0.5624
15117SOL     OW47888   2.028   8.668   4.765  0.4593 -0.1555 -0.3545
15117SOL    HW147889   1.990   8.605   4.704  1.0674  0.4767 -1.4000
15117SOL    HW247890   2.070   8.733   4.709 -0.7346  1.5584  0.6714
15118SOL     OW47891   7.942   8.777   1.828  0.4954 -0.0437 -0.1184
15118SOL    HW147892   7.939   8.861   1.874  0.3907  0.2633 -0.6856
15118SOL    HW247893   7.851   8.759   1.806  0.2260 -1.3636  1.8880
15119SOL     OW47894   0.451   1.447   4.498 -0.3136 -0.5808 -0.1585
15119SOL    HW147895   0.383   1.437   4.432  0.8424 -0.2564 -1.4217
15119SOL    HW247896   0.505   1.369   4.488  1.6858  0.9514 -1.7789
15120SOL     OW47897   7.627   6.924   2.331  0.1121  0.2800 -0.0259
15120SOL    HW147898   7.673   6.913   2.248 -1.0390  0.8558 -0.7572
15120SOL    HW247899   7.539   6.951   2.306 -1.3363 -3.0128  1.2454
15121SOL     OW47900   7.166   1.940  10.062 -0.0796 -0.2268 -0.0087
15121SOL    HW147901   7.218   1.972   9.989  2.6074 -0.9582  1.5070
15121SOL    HW247902   7.200   1.986  10.139 -2.7104  0.3906  0.8392
15122SOL     OW47903   0.803   9.653  10.090  0.0220 -0.0020 -0.4490
15122SOL    HW147904   0.840   9.739  10.108 -1.8254  0.9560 -1.1027
15122SOL    HW247905   0.729   9.646  10.151 -0.1344 -0.9168 -0.7387
15123SOL     OW47906   4.494   0.175   2.124  0.2199 -0.2831  0.2659
15123SOL    HW147907   4.436   0.190   2.198 -0.6012 -1.7605 -0.0624
15123SOL    HW247908   4.460   0.232   2.055 -0.4290 -0.6259  0.2982
15124SOL     OW47909   0.508   8.936   7.146 -0.1718  0.2475 -0.0357
15124SOL    HW147910   0.512   9.030   7.127 -0.1940  0.1885 -0.3323
15124SOL    HW247911   0.599   8.908   7.147 -0.1850  0.1854 -0.3905
15125SOL     OW47912   7.630   8.240   1.335  0.4743  0.0459  0.5894
15125SOL    HW147913   7.595   8.157   1.303 -0.1963  1.2735 -2.0246
15125SOL    HW247914   7.699   8.215   1.397 -1.7219 -2.4132  2.1497
15126SOL     OW47915   1.015   2.657   9.014  0.2290  0.4126  0.2254
15126SOL    HW147916   0.996   2.566   8.991 -0.0273  0.4893  0.1340
15126SOL    HW247917   1.080   2.651   9.084  0.4469  0.1631  0.0076
15127SOL     OW47918   5.628   3.781   9.438 -0.3594 -0.1454  0.2132
15127SOL    HW147919   5.679   3.727   9.498  0.3416  0.9863  0.6382
15127SOL    HW247920   5.572   3.834   9.494 -0.6101  0.0144 -0.1827
15128SOL     OW47921   2.102   2.808   3.370  0.3753  0.1389 -0.3822
15128SOL    HW147922   2.041   2.749   3.414 -1.8663  2.2897 -0.5227
15128SOL    HW247923   2.086   2.794   3.277  0.5189  0.3107 -0.4332
15129SOL     OW47924   9.914   6.826   5.377  0.2279  0.2650  0.3514
15129SOL    HW147925   9.835   6.793   5.420 -0.7110  1.4257 -0.4352
15129SOL    HW247926   9.970   6.750   5.368  0.5446  0.0021  3.7811
15130SOL     OW47927   5.477   9.268   9.160  1.0656 -0.1620  0.5172
15130SOL    HW147928   5.402   9.296   9.108  0.1331  0.6575  2.2712
15130SOL    HW247929   5.533   9.222   9.097 -1.2946 -1.5613 -0.6472
15131SOL     OW47930   7.050   1.925   9.212 -0.4459 -0.2890  0.1309
15131SOL    HW147931   7.016   2.013   9.225 -2.5185 -0.5869 -2.7306
15131SOL    HW247932   6.981   1.867   9.245  1.1859 -0.8987  2.6158
15132SOL     OW47933   1.496   0.188   4.965 -0.0114 -0.0486 -0.4777
15132SOL    HW147934   1.520   0.143   5.045 -0.8135  2.5647  1.2954
15132SOL    HW247935   1.542   0.272   4.970 -2.0638  1.1832 -1.4973
15133SOL     OW47936   8.524   5.082   1.861 -0.5863 -0.0255  0.4022
15133SOL    HW147937   8.521   4.990   1.834 -0.7022  0.3580 -0.9566
15133SOL    HW247938   8.617   5.103   1.863 -0.6098  0.2323 -0.7667
15134SOL     OW47939   2.950   3.081   7.950 -0.2287  0.7804  0.0882
15134SOL    HW147940   2.944   3.167   7.992 -1.4215  0.1283  1.3059
15134SOL    HW247941   2.995   3.098   7.867 -0.7509  2.6410  0.1537
15135SOL     OW47942   7.311   3.099   6.769 -0.1136  0.0581  0.3608
15135SOL    HW147943   7.384   3.132   6.822  0.3329  1.3159 -0.9824
15135SOL    HW247944   7.233   3.118   6.821  0.4701 -1.0256  1.6803
15136SOL     OW47945   5.189   7.618   2.790 -0.0527  0.8233 -0.5033
15136SOL    HW147946   5.142   7.638   2.871  0.6020 -0.4051  0.1931
15136SOL    HW247947   5.232   7.700   2.766  0.1106  1.0828  0.6321
15137SOL     OW47948   5.080   7.679   9.050 -0.1288 -0.1171 -0.4393
15137SOL    HW147949   5.000   7.676   9.103 -0.2103 -0.3195 -0.5724
15137SOL    HW247950   5.050   7.660   8.961 -0.2155  1.7362 -0.8244
15138SOL     OW47951   3.943   5.992   4.710  0.1858  0.0615 -0.2561
15138SOL    HW147952   4.003   6.057   4.747  0.0544 -0.5160  1.0042
15138SOL    HW247953   3.972   5.909   4.748  0.7285 -0.7016 -2.3203
15139SOL     OW47954   2.094   0.935   4.175 -0.8135 -0.3993  0.3289
15139SOL    HW147955   2.100   1.030   4.186 -2.0531 -0.5441  2.5608
15139SOL    HW247956   2.177   0.902   4.207 -1.1144 -0.1804  1.3648
15140SOL     OW47957   3.660   5.385   0.646  0.2260 -0.5756  0.0369
15140SOL    HW147958   3.699   5.361   0.562  0.9105  0.2407  0.1124
15140SOL    HW247959   3.723   5.446   0.685 -0.8095  0.2519  0.4493
15141SOL     OW47960   5.216   8.713   2.280 -0.9910  0.5506  0.2137
15141SOL    HW147961   5.221   8.707   2.184  0.8039  0.0452  0.3098
15141SOL    HW247962   5.177   8.630   2.307  0.2646 -0.1166  0.0203
15142SOL     OW47963   9.864   2.463   4.474 -0.5662 -0.0412 -0.1311
15142SOL    HW147964   9.799   2.411   4.426 -0.6488 -0.4759  0.4462
15142SOL    HW247965   9.816   2.495   4.551 -0.7036  1.4514 -0.8301
15143SOL     OW47966   1.887   7.963   0.837  0.0084  0.0829 -0.2260
15143SOL    HW147967   1.958   7.963   0.901  0.7423 -0.0849 -1.0185
15143SOL    HW247968   1.807   7.969   0.889  0.5855 -0.1600  0.7050
15144SOL     OW47969   3.036  10.119   1.114 -0.4450  0.1695  0.6514
15144SOL    HW147970   3.011  10.155   1.199 -0.1225  0.1432  0.7571
15144SOL    HW247971   2.952  10.102   1.071 -0.6012  0.7532  0.7202
15145SOL     OW47972   7.336   6.508   7.698 -0.1174  0.0967 -0.9602
15145SOL    HW147973   7.295   6.588   7.732  0.6105 -0.3144  0.9281
15145SOL    HW247974   7.285   6.487   7.620 -3.4521 -0.3369  1.2224
15146SOL     OW47975   8.772   4.976   1.309 -0.3237  0.1366  0.0869
15146SOL    HW147976   8.830   5.028   1.253 -0.3460 -0.6773 -0.7004
15146SOL    HW247977   8.686   4.985   1.269 -0.5427  0.4578  0.6316
15147SOL     OW47978   1.178   7.047   4.874  0.2420  0.4548  0.5877
15147SOL    HW147979   1.235   6.970   4.877 -2.1146 -1.3942 -0.7839
15147SOL    HW247980   1.209   7.103   4.946  1.9255 -1.8066  1.6670
15148SOL     OW47981   3.009   7.708   9.191  0.2789 -0.0469 -0.4947
15148SOL    HW147982   3.058   7.745   9.264 -1.5153  0.4023  0.5127
15148SOL    HW247983   3.021   7.771   9.119  0.4613  0.4882  0.0007
15149SOL     OW47984   2.885   9.394   6.665  0.4411 -0.7632  0.2970
15149SOL    HW147985   2.911   9.462   6.603 -0.2397  1.1283  2.0228
15149SOL    HW247986   2.952   9.399   6.734  1.4396 -3.1337 -0.4454
15150SOL     OW47987   2.377   5.777   7.840 -0.2102  0.0493 -0.0787
15150SOL    HW147988   2.293   5.794   7.798  0.0692  2.1110  0.1377
15150SOL    HW247989   2.354   5.745   7.927 -0.8039  2.1992  0.5895
15151SOL     OW47990   2.444   7.492   3.965  0.4784 -0.3313  0.7150
15151SOL    HW147991   2.434   7.464   3.874  1.5780  2.0080 -0.1771
15151SOL    HW247992   2.427   7.413   4.016 -0.7819 -1.5465 -1.4811
15152SOL     OW47993   3.498   4.865   3.865  0.1051  0.3665  0.4918
15152SOL    HW147994   3.453   4.844   3.783  0.0459  2.1683  0.0345
15152SOL    HW247995   3.427   4.870   3.929 -0.0122  0.3231  0.3684
15153SOL     OW47996  10.114   4.813   6.389 -0.1770 -0.3561  0.1856
15153SOL    HW147997  10.071   4.729   6.405  1.9390 -1.4260  0.4113
15153SOL    HW247998  10.133   4.848   6.476  0.7924 -0.6397  0.0990
15154SOL     OW47999   1.143   3.730   2.756 -0.0023  0.2679  0.1069
15154SOL    HW148000   1.119   3.803   2.699 -0.6937 -0.1707 -0.1660
15154SOL    HW248001   1.101   3.749   2.840 -0.4962 -0.0084 -0.0782
15155SOL     OW48002   7.467   2.626  10.187 -0.5536 -0.4613  0.1019
15155SOL    HW148003   7.424   2.560  10.241 -0.2992  0.1883  1.0931
15155SOL    HW248004   7.399   2.691  10.170 -0.6764 -0.7423 -0.4903
15156SOL     OW48005   0.903   1.227   7.161 -0.0280  0.2217 -0.0113
15156SOL    HW148006   0.808   1.235   7.146  0.0566  0.2957 -0.5109
15156SOL    HW248007   0.926   1.305   7.210  0.3435  1.8350 -2.6681
15157SOL     OW48008   7.889   6.816   8.320 -0.1079  0.0499  0.3214
15157SOL    HW148009   7.969   6.799   8.269  1.3038 -0.1913  2.5288
15157SOL    HW248010   7.908   6.898   8.368 -0.9895 -0.2577  1.2204
15158SOL     OW48011   2.349   7.736   2.843  0.3853 -0.1511  0.1747
15158SOL    HW148012   2.263   7.757   2.878  0.0254  1.8302 -1.7537
15158SOL    HW248013   2.349   7.774   2.755  1.5795 -4.0564 -1.6492
15159SOL     OW48014   2.158   4.852   5.584 -0.2592  0.3090 -0.2340
15159SOL    HW148015   2.120   4.831   5.669 -0.3836  1.2079 -0.0643
15159SOL    HW248016   2.107   4.926   5.552  0.2752  0.4605 -0.7508
15160SOL     OW48017   9.418   2.388   7.805  0.6093  0.3049 -0.1017
15160SOL    HW148018   9.487   2.396   7.870  1.4025 -0.5746 -0.8241
15160SOL    HW248019   9.428   2.466   7.750  0.6239  0.4953  0.1681
15161SOL     OW48020   8.759   2.467   9.506 -0.3738 -0.1571 -0.2518
15161SOL    HW148021   8.849   2.464   9.539  0.0490  0.0993 -1.3473
15161SOL    HW248022   8.759   2.407   9.431 -1.1575 -0.2818 -0.1576
15162SOL     OW48023   5.029   0.496   0.433  0.3812  0.3252  0.0159
15162SOL    HW148024   4.959   0.541   0.385 -0.0063  1.9261  2.0409
15162SOL    HW248025   5.008   0.403   0.425  0.2637  0.5452 -2.8092
15163SOL     OW48026   3.013   1.352   1.777 -0.3710 -0.5947  0.1964
15163SOL    HW148027   2.991   1.419   1.713 -2.8978 -2.0092 -0.4603
15163SOL    HW248028   3.006   1.397   1.862  0.4431  0.5920 -0.3499
15164SOL     OW48029   9.281   3.202   0.956  0.2967  0.6860  0.5553
15164SOL    HW148030   9.312   3.167   1.039 -1.5608 -1.8446  0.2536
15164SOL    HW248031   9.314   3.141   0.890  0.4766  1.8155 -0.4188
15165SOL     OW48032   9.021   9.524   5.864  0.1344  0.0813  0.3126
15165SOL    HW148033   8.992   9.587   5.930 -1.3749  2.9707 -2.9499
15165SOL    HW248034   8.946   9.465   5.853 -0.6841  1.2801 -0.7293
15166SOL     OW48035   8.486   2.115   2.739 -0.0246  0.3834 -0.6058
15166SOL    HW148036   8.479   2.020   2.723 -2.2427  0.6876 -1.7507
15166SOL    HW248037   8.515   2.151   2.655  1.0398  0.7023 -0.1035
15167SOL     OW48038   9.198   6.379   2.726 -0.8254 -0.2833  0.3928
15167SOL    HW148039   9.128   6.314   2.716 -0.3295 -0.4982 -2.0360
15167SOL    HW248040   9.268   6.332   2.770 -1.2829 -0.7785  0.6021
15168SOL     OW48041   9.149   8.816   0.012 -0.3302 -0.3035 -0.2869
15168SOL    HW148042   9.090   8.890  -0.003  0.8408  0.6933 -0.0362
15168SOL    HW248043   9.181   8.792  -0.075  1.8360  1.6321 -0.0749
15169SOL     OW48044   8.872   3.512   3.266 -0.3975  0.3790  0.6101
15169SOL    HW148045   8.848   3.589   3.318 -3.3004  0.4819 -0.7892
15169SOL    HW248046   8.826   3.525   3.183  1.4681 -1.4349 -0.7446
15170SOL     OW48047   4.684   2.725   5.914  0.8090 -0.3144  0.6039
15170SOL    HW148048   4.598   2.741   5.876  1.3422  0.0431 -0.4417
15170SOL    HW248049   4.687   2.630   5.926 -0.4295 -0.1754  2.3295
15171SOL     OW48050   3.760   1.390   1.289  0.4642 -0.4198  0.8503
15171SOL    HW148051   3.675   1.428   1.268  1.0861 -0.7589 -2.4731
15171SOL    HW248052   3.804   1.456   1.343 -0.6715  1.1338 -0.0966
15172SOL     OW48053   2.453   5.935   1.435  0.7412 -0.4205 -0.1730
15172SOL    HW148054   2.438   6.018   1.390  0.1404 -1.2955 -1.6096
15172SOL    HW248055   2.395   5.873   1.391  0.6523 -1.4544  1.3637
15173SOL     OW48056   6.158   6.004   4.083 -0.1701 -0.2938 -0.1478
15173SOL    HW148057   6.099   5.945   4.037 -0.3931  0.5952 -1.0214
15173SOL    HW248058   6.105   6.041   4.154 -0.8021  0.8109 -1.1756
15174SOL     OW48059   3.190   3.678   6.212 -0.6324  0.0000  0.2174
15174SOL    HW148060   3.165   3.669   6.304  1.3884  1.0058  0.8694
15174SOL    HW248061   3.193   3.772   6.196  0.0142 -0.1487 -0.6014
15175SOL     OW48062   1.876   9.547   9.103 -0.2252  0.2938 -0.0828
15175SOL    HW148063   1.895   9.504   9.187 -0.2530 -1.1492 -0.8094
15175SOL    HW248064   1.857   9.638   9.127  1.4965  0.3199  1.2988
15176SOL     OW48065   4.314   7.405   7.128 -0.3211 -0.1179 -0.3350
15176SOL    HW148066   4.303   7.392   7.222  0.6123 -0.4139 -0.2539
15176SOL    HW248067   4.324   7.316   7.093  0.8733  0.0689 -0.4990
15177SOL     OW48068   4.425   8.863   1.284  0.5003  0.3450  0.7192
15177SOL    HW148069   4.441   8.823   1.198  1.7934 -0.5365  1.3591
15177SOL    HW248070   4.494   8.929   1.292  0.7475  0.0052  1.3482
15178SOL     OW48071   2.617   6.228   2.378 -0.5405  0.1463  0.3232
15178SOL    HW148072   2.668   6.148   2.390  0.1979  0.5324 -0.2251
15178SOL    HW248073   2.619   6.244   2.284  1.1010  1.9839  0.6486
15179SOL     OW48074   3.239   2.910   1.802  0.2729  0.5391 -0.0189
15179SOL    HW148075   3.329   2.881   1.789 -0.1893 -0.2071 -1.6392
15179SOL    HW248076   3.195   2.835   1.843 -0.0251  0.2528 -0.8437
15180SOL     OW48077   1.637   6.820   3.114  0.4553  0.1325  0.2257
15180SOL    HW148078   1.588   6.892   3.073  0.4541 -0.1975 -0.3641
15180SOL    HW248079   1.587   6.797   3.192 -1.1331 -1.1770 -1.1483
15181SOL     OW48080   1.144  10.083   7.537  0.0048 -0.1408 -0.4536
15181SOL    HW148081   1.185  10.159   7.497 -0.6572  0.2014 -0.4822
15181SOL    HW248082   1.050  10.103   7.539  0.0087 -0.1578  1.2157
15182SOL     OW48083   3.729   9.584   4.091  0.3152  0.3341  0.1992
15182SOL    HW148084   3.755   9.555   4.178  1.0366 -0.0137 -0.1227
15182SOL    HW248085   3.663   9.652   4.106 -1.5190 -1.5657  0.9648
15183SOL     OW48086   4.438   1.147   8.835 -0.2477 -0.4340  0.1084
15183SOL    HW148087   4.442   1.112   8.746 -0.0666 -0.6864  0.2180
15183SOL    HW248088   4.362   1.206   8.834 -1.2987 -1.7807  0.2661
15184SOL     OW48089   3.975   1.167   7.811  0.1646 -0.1434 -0.0787
15184SOL    HW148090   3.905   1.125   7.862 -0.3702  0.2366 -0.4902
15184SOL    HW248091   4.041   1.099   7.801  0.3068 -0.1969  1.1827
15185SOL     OW48092   5.407   1.687   2.462  0.1502  0.6420 -0.4154
15185SOL    HW148093   5.500   1.706   2.456  0.2748  0.5049  0.9124
15185SOL    HW248094   5.370   1.764   2.505 -0.2868  0.5512 -0.6308
15186SOL     OW48095  10.043   6.398   3.149  0.1045  0.0562  0.0116
15186SOL    HW148096   9.997   6.334   3.202 -0.1134  0.4363  0.2821
15186SOL    HW248097  10.116   6.349   3.110 -1.2842 -0.9037 -1.4987
15187SOL     OW48098   3.532   6.173   5.172  0.3385 -0.5236  0.0407
15187SOL    HW148099   3.583   6.155   5.251  0.8196 -0.1593 -0.1809
15187SOL    HW248100   3.454   6.219   5.203  0.3245 -0.7540  0.3431
15188SOL     OW48101   2.805   8.959   0.393  0.4644 -0.4544  0.1001
15188SOL    HW148102   2.771   9.014   0.463  1.8428  0.6307 -0.0499
15188SOL    HW248103   2.736   8.957   0.328  0.0548  0.4001  0.4958
15189SOL     OW48104   0.392   6.620   2.439 -0.1374 -0.5226 -0.0267
15189SOL    HW148105   0.425   6.537   2.404  1.5404  0.2242 -0.2944
15189SOL    HW248106   0.342   6.659   2.368  0.5436 -0.5189 -0.5103
15190SOL     OW48107   5.778   3.793   2.926  0.8264 -0.3243  0.5823
15190SOL    HW148108   5.739   3.821   2.843  0.6602  3.6437  1.8766
15190SOL    HW248109   5.864   3.759   2.902  0.7433  0.6805 -1.2310
15191SOL     OW48110   2.888   1.364   3.109 -0.0150 -0.0469  0.6562
15191SOL    HW148111   2.871   1.278   3.148  0.6445 -0.3960  0.1689
15191SOL    HW248112   2.878   1.351   3.015 -1.3524  0.7423  0.6716
15192SOL     OW48113   7.507   0.116   5.050 -0.4864 -0.0877  0.1001
15192SOL    HW148114   7.590   0.164   5.059  0.5381 -2.0148  1.2105
15192SOL    HW248115   7.450   0.154   5.117 -0.2531  0.7266 -0.1596
15193SOL     OW48116   3.564   9.071   5.651  0.6643 -0.0463 -0.1729
15193SOL    HW148117   3.533   9.088   5.562  1.6362  0.3371 -0.4385
15193SOL    HW248118   3.658   9.088   5.648  0.8946 -1.1451  0.6501
15194SOL     OW48119   6.754   5.327   4.262  0.0726  0.3133 -0.7160
15194SOL    HW148120   6.802   5.309   4.181 -0.0672  0.6110 -0.8658
15194SOL    HW248121   6.816   5.305   4.331  0.8564  1.7849 -0.9159
15195SOL     OW48122   5.368   6.955   5.465  0.1235 -0.2444  0.6746
15195SOL    HW148123   5.319   7.027   5.426  0.1999 -0.1691  0.7172
15195SOL    HW248124   5.459   6.981   5.457  0.1099  0.0227  1.4095
15196SOL     OW48125   0.146   7.322   4.369 -0.4316  0.2638  0.3091
15196SOL    HW148126   0.096   7.398   4.341 -0.3515  0.4596  0.7056
15196SOL    HW248127   0.206   7.355   4.436  2.0463  0.5718 -1.9852
15197SOL     OW48128   0.633   8.842   4.997  0.1476  0.6428  0.2916
15197SOL    HW148129   0.604   8.924   4.957  1.0876  0.4592 -0.7916
15197SOL    HW248130   0.688   8.801   4.931 -0.4238 -0.9442  0.7695
15198SOL     OW48131   6.754   7.845   1.712  0.0510 -0.4727  0.1449
15198SOL    HW148132   6.696   7.890   1.774  0.0562 -0.1426 -0.0890
15198SOL    HW248133   6.696   7.813   1.643  0.4897  2.6684 -1.7859
15199SOL     OW48134   1.376   4.560   6.493 -0.1884 -0.6686  0.3084
15199SOL    HW148135   1.304   4.579   6.433 -0.0489  0.6213  0.5443
15199SOL    HW248136   1.340   4.577   6.580 -0.2024 -1.9452  0.5586
15200SOL     OW48137   8.386   6.716   9.251 -0.2325 -0.0973  0.4644
15200SOL    HW148138   8.413   6.784   9.190 -0.2064 -0.0729  0.5034
15200SOL    HW248139   8.468   6.682   9.287 -0.1902 -0.8164 -0.2837
15201SOL     OW48140   8.239   0.832   7.451  0.1960  0.0317  0.5180
15201SOL    HW148141   8.161   0.860   7.403  0.8897  0.7032 -0.2440
15201SOL    HW248142   8.233   0.877   7.535  1.0614  2.1864 -0.5233
15202SOL     OW48143   5.320   5.289   1.970 -0.2958  0.3415  0.3418
15202SOL    HW148144   5.341   5.381   1.952 -2.1663  0.8801  0.8147
15202SOL    HW248145   5.233   5.277   1.932  0.5916 -1.6773 -1.1021
15203SOL     OW48146   3.809   8.947   9.850 -0.0370  0.4387 -0.1194
15203SOL    HW148147   3.748   8.888   9.894  1.9505 -1.8173 -0.3004
15203SOL    HW248148   3.797   8.929   9.757 -0.8580  1.8057 -0.2929
15204SOL     OW48149   4.597   6.434   5.600 -0.1170 -0.6433  0.6045
15204SOL    HW148150   4.659   6.467   5.535  1.4418 -0.6946  2.0461
15204SOL    HW248151   4.532   6.385   5.549 -0.9741  2.3712 -1.2964
15205SOL     OW48152   8.897   9.234   4.791  0.2212  0.2559 -0.0674
15205SOL    HW148153   8.950   9.305   4.755 -0.6268  0.9599  0.0677
15205SOL    HW248154   8.823   9.226   4.730  1.1923 -1.6610 -1.0423
15206SOL     OW48155   2.096   4.960   5.895 -0.1460 -0.3439 -0.8542
15206SOL    HW148156   2.136   5.032   5.847 -0.6960 -0.1558 -1.0279
15206SOL    HW248157   2.041   5.003   5.961  0.8923 -0.5896  0.2004
15207SOL     OW48158   5.023   5.336   3.756  0.2790 -0.2451  0.0583
15207SOL    HW148159   4.996   5.399   3.689  0.6208 -2.3289 -2.0872
15207SOL    HW248160   5.117   5.353   3.768  0.1434  0.3621  0.2835
15208SOL     OW48161   0.856   7.733   5.161 -0.4068  0.5746  0.4123
15208SOL    HW148162   0.813   7.689   5.087  1.3462  1.3124 -1.1018
15208SOL    HW248163   0.931   7.778   5.121 -0.1025  1.9533  2.4847
15209SOL     OW48164   3.450   5.245   2.804  0.1409  0.0324  0.1408
15209SOL    HW148165   3.488   5.165   2.769 -0.5046 -1.4221  2.6199
15209SOL    HW248166   3.517   5.279   2.864 -0.9520 -0.5627  1.7357
15210SOL     OW48167   0.014   1.943   2.780 -0.0146  0.1556  0.0141
15210SOL    HW148168   0.029   2.019   2.836 -0.7882  0.8113 -0.6498
15210SOL    HW248169   0.003   1.870   2.841  1.3978  0.4437  0.6327
15211SOL     OW48170   7.788   9.861   0.530  0.1074 -0.4046  0.3956
15211SOL    HW148171   7.775   9.922   0.602  2.2012  0.5223  0.0404
15211SOL    HW248172   7.729   9.891   0.461  2.3862  2.3370 -0.4225
15212SOL     OW48173   5.517   4.608   1.188  0.0420 -0.3087  0.3843
15212SOL    HW148174   5.546   4.540   1.249  0.7292  0.2272  0.6526
15212SOL    HW248175   5.549   4.579   1.102  3.0131  1.1920  0.9247
15213SOL     OW48176   0.576   3.975   4.412  0.6223 -0.1837  0.0924
15213SOL    HW148177   0.593   3.881   4.406 -3.8090 -1.0835 -0.1093
15213SOL    HW248178   0.549   4.001   4.324 -0.1075  0.7986  0.5828
15214SOL     OW48179   2.330   2.878   0.319  0.3111  0.2364 -1.0619
15214SOL    HW148180   2.380   2.959   0.326 -1.8196  1.4445  0.8944
15214SOL    HW248181   2.347   2.832   0.402  1.5547 -1.4123 -2.1752
15215SOL     OW48182   1.624   0.325   4.322  0.3406  0.1242  0.0027
15215SOL    HW148183   1.614   0.231   4.338  1.0907 -0.0939 -0.7982
15215SOL    HW248184   1.536   0.353   4.295 -0.0322 -0.2217  0.8300
15216SOL     OW48185   5.816   0.943   1.679 -0.2210 -0.5664  0.5504
15216SOL    HW148186   5.908   0.941   1.654  0.0623  2.2148  1.2456
15216SOL    HW248187   5.769   0.964   1.598 -0.0789 -0.1111  0.5877
15217SOL     OW48188   9.462   7.018   3.763 -0.4110  1.0823  0.4296
15217SOL    HW148189   9.533   6.958   3.784  0.2426  1.4502 -0.6725
15217SOL    HW248190   9.407   6.970   3.702 -0.5592  1.1594  0.5028
15218SOL     OW48191   5.964   9.288   9.379 -0.3512 -0.5178  0.1783
15218SOL    HW148192   5.875   9.323   9.370  0.3243  1.9321  2.1480
15218SOL    HW248193   5.953   9.207   9.427 -1.4589  0.3897  1.5046
15219SOL     OW48194   2.569   8.898   1.144  0.0788 -0.5454 -0.2343
15219SOL    HW148195   2.607   8.886   1.231  1.4992 -0.7936 -0.8774
15219SOL    HW248196   2.639   8.939   1.093 -1.8918  2.9174 -0.3111
15220SOL     OW48197   9.179   8.948   0.866  0.1073 -0.2039 -0.2051
15220SOL    HW148198   9.249   8.885   0.885 -0.7031 -0.7948  0.8971
15220SOL    HW248199   9.104   8.894   0.842 -0.3738  0.3765 -0.0213
15221SOL     OW48200   2.509   1.648   7.178 -0.3974 -0.1165  0.0481
15221SOL    HW148201   2.562   1.596   7.238 -1.3731 -0.8753  0.2648
15221SOL    HW248202   2.502   1.733   7.220 -0.4610 -0.4190  0.6545
15222SOL     OW48203   0.360   3.251   0.603 -0.3620 -0.3294  0.5347
15222SOL    HW148204   0.290   3.270   0.665  0.1939 -1.0320  1.4018
15222SOL    HW248205   0.392   3.337   0.576 -0.9199 -0.0144  0.8662
15223SOL     OW48206   3.785   5.914   2.826  0.8980  0.2363  0.3404
15223SOL    HW148207   3.827   5.902   2.741  1.7360 -0.0142  0.7789
15223SOL    HW248208   3.838   5.861   2.886  0.3677  0.4797  1.0295
15224SOL     OW48209   7.129   1.599   0.195 -0.3891 -0.2977 -0.0211
15224SOL    HW148210   7.162   1.681   0.160 -1.9261  0.3275 -0.0585
15224SOL    HW248211   7.161   1.532   0.135  1.2257  0.2187  0.2455
15225SOL     OW48212   9.290   1.979   4.198  0.3521 -0.3962  0.0361
15225SOL    HW148213   9.358   1.981   4.266  1.2590  0.5100 -0.8639
15225SOL    HW248214   9.305   1.897   4.152  0.0811 -0.7602  0.6032
15226SOL     OW48215   4.162   2.251   6.049  0.0934 -0.7556  0.4425
15226SOL    HW148216   4.218   2.270   6.124 -0.6101  1.4590  0.4413
15226SOL    HW248217   4.210   2.288   5.974 -1.0529  0.5892  0.3590
15227SOL     OW48218   6.539   4.994   3.627 -0.2787  0.2815  0.2675
15227SOL    HW148219   6.534   5.089   3.625  0.0859  0.3809  2.3039
15227SOL    HW248220   6.472   4.968   3.691 -0.8536 -0.8743 -0.7937
15228SOL     OW48221   3.423   0.568   4.669  0.4354  0.0655 -0.1246
15228SOL    HW148222   3.446   0.602   4.756  0.7521 -1.7843  0.5365
15228SOL    HW248223   3.486   0.499   4.652 -1.9458 -2.1894 -0.1476
15229SOL     OW48224   4.246   8.996   8.247  0.1351 -0.2205 -0.2452
15229SOL    HW148225   4.265   9.087   8.225 -1.8192  0.1464 -0.5425
15229SOL    HW248226   4.163   9.000   8.294  0.4311 -1.7826  0.4510
15230SOL     OW48227   2.088   3.175   3.322  0.2690 -0.5350 -0.2202
15230SOL    HW148228   2.107   3.185   3.229  0.0018  1.9180 -0.0410
15230SOL    HW248229   2.162   3.216   3.367 -1.9670  2.8326  0.5463
15231SOL     OW48230   4.768   1.710   9.334  0.1405  0.6084  1.0998
15231SOL    HW148231   4.776   1.616   9.320 -0.5366  1.0432 -2.8471
15231SOL    HW248232   4.853   1.737   9.368  1.2975 -1.0313 -0.4426
15232SOL     OW48233   1.017   9.713   4.117  0.0979  0.6007  0.3426
15232SOL    HW148234   0.948   9.707   4.183  0.0625 -1.3153  0.1727
15232SOL    HW248235   1.032   9.622   4.090  0.2472  1.3099 -2.1426
15233SOL     OW48236   2.761   0.224   6.114  0.0703 -0.4488 -0.7637
15233SOL    HW148237   2.851   0.256   6.105  0.0098 -0.6914 -2.3489
15233SOL    HW248238   2.753   0.156   6.047 -1.0876 -0.9006 -0.1783
15234SOL     OW48239   7.275   8.885   4.479  0.7458 -0.1842 -0.4067
15234SOL    HW148240   7.322   8.852   4.402 -0.7516 -0.6075 -1.1569
15234SOL    HW248241   7.299   8.977   4.485 -1.1212  0.5032 -2.9154
15235SOL     OW48242   4.993   9.672   4.023  0.0717  0.4461 -0.4671
15235SOL    HW148243   4.978   9.765   4.042  0.0948  0.5216 -0.8158
15235SOL    HW248244   4.939   9.655   3.946 -2.1160 -0.5118  1.2393
15236SOL     OW48245   8.083   2.981   5.770  0.1323 -0.3548  0.6694
15236SOL    HW148246   8.075   2.891   5.802 -0.7338  0.0957  1.7241
15236SOL    HW248247   8.067   3.035   5.847 -0.9557  0.7241 -0.3104
15237SOL     OW48248   6.452   7.628   1.855 -0.1063  0.1929  0.6027
15237SOL    HW148249   6.499   7.551   1.888  1.7132  0.7986 -0.5345
15237SOL    HW248250   6.369   7.627   1.903  0.5323 -1.6065  1.7287
15238SOL     OW48251   6.051   4.201   3.630  0.0111  0.4383  0.1900
15238SOL    HW148252   6.144   4.181   3.636  0.5102  2.0079 -1.9206
15238SOL    HW248253   6.034   4.215   3.537 -2.2201  0.7298  0.5928
15239SOL     OW48254   4.659   1.945   2.941  0.6163  0.5648  0.0983
15239SOL    HW148255   4.686   2.009   3.006  2.5013  0.8506 -0.9401
15239SOL    HW248256   4.611   1.878   2.991  2.1354  0.7107  1.7776
15240SOL     OW48257   6.608   6.029   5.828  0.0776 -0.0039 -0.3791
15240SOL    HW148258   6.700   6.001   5.826  0.4735  1.3468 -1.8379
15240SOL    HW248259   6.602   6.096   5.760 -2.3773 -1.2414 -1.4084
15241SOL     OW48260   3.485   5.512   5.414 -0.0858 -0.3540 -0.3722
15241SOL    HW148261   3.450   5.424   5.430  1.0584 -0.7882 -0.1947
15241SOL    HW248262   3.485   5.522   5.319 -2.0239  0.2146 -0.3408
15242SOL     OW48263   2.371   6.422   7.156 -0.1468 -0.2845  0.2216
15242SOL    HW148264   2.285   6.464   7.149 -0.3885 -0.9173 -0.6386
15242SOL    HW248265   2.363   6.365   7.233 -0.5731 -0.5223  0.0003
15243SOL     OW48266   5.367   0.296   4.529  0.3235  0.6773  0.3642
15243SOL    HW148267   5.275   0.301   4.503  0.3221  1.6170  0.5507
15243SOL    HW248268   5.399   0.216   4.486 -0.1589  1.2302 -1.0515
15244SOL     OW48269   0.119   4.059   2.081 -0.2630 -0.8697 -0.0615
15244SOL    HW148270   0.084   3.970   2.086  1.8922 -1.9052 -1.9333
15244SOL    HW248271   0.110   4.083   1.989 -1.0559  0.9601  0.4851
15245SOL     OW48272   0.842   2.561   7.409 -0.7161  0.0436  0.0754
15245SOL    HW148273   0.854   2.656   7.414  1.7322 -0.2902  1.8061
15245SOL    HW248274   0.906   2.533   7.343  0.9541 -0.7198  1.9703
15246SOL     OW48275   1.998   7.192   4.518 -0.3007  0.0689 -0.3881
15246SOL    HW148276   1.947   7.111   4.526 -1.0483  0.2398 -2.9101
15246SOL    HW248277   1.968   7.246   4.591 -1.4853 -1.0364 -0.0304
15247SOL     OW48278   1.041   0.029   9.752  0.2772  0.6511 -0.2155
15247SOL    HW148279   1.131   0.014   9.725 -0.1964  0.8046 -1.9522
15247SOL    HW248280   1.020   0.117   9.718 -1.2486 -0.3105 -1.9252
15248SOL     OW48281   7.926   4.129   4.704  0.3329 -0.2435 -0.4308
15248SOL    HW148282   7.895   4.108   4.792  1.2724 -0.9914 -0.2629
15248SOL    HW248283   8.008   4.175   4.718  1.3218 -1.7976 -0.9323
15249SOL     OW48284   0.536   0.393   6.706  0.0050  0.0397 -0.6263
15249SOL    HW148285   0.458   0.339   6.701  0.2976 -0.3985 -0.4554
15249SOL    HW248286   0.515   0.460   6.771  0.0932 -0.6051  0.0703
15250SOL     OW48287   7.814   2.059   0.496  0.1792 -0.0749  0.4720
15250SOL    HW148288   7.766   1.984   0.461 -1.2160  0.7529  0.5695
15250SOL    HW248289   7.746   2.114   0.538  1.3861  0.4692  1.7626
15251SOL     OW48290   9.977   3.336   1.575  1.0748 -0.1263  0.0307
15251SOL    HW148291   9.995   3.259   1.522  0.7000  0.1145 -0.4487
15251SOL    HW248292  10.061   3.381   1.583  0.9971  0.1891 -0.9137
15252SOL     OW48293   0.914   3.241   1.551 -0.6173 -0.4260 -0.3968
15252SOL    HW148294   0.877   3.214   1.467 -0.5641 -0.6068 -0.3628
15252SOL    HW248295   0.839   3.248   1.609 -1.1979  3.5396 -1.4344
15253SOL     OW48296   0.593   1.505   2.812  0.1708  0.0099  0.0265
15253SOL    HW148297   0.636   1.545   2.737 -0.1348  2.1730  0.9702
15253SOL    HW248298   0.665   1.487   2.873  0.2051 -0.0735 -0.0384
15254SOL     OW48299   7.353   0.167   9.708  0.1737  0.5081  0.5409
15254SOL    HW148300   7.375   0.238   9.769  2.1530 -1.4504  2.1657
15254SOL    HW248301   7.257   0.163   9.710  0.0922  2.2988  1.3873
15255SOL     OW48302   4.017   5.249   0.832 -0.2039 -0.5694 -0.6275
15255SOL    HW148303   4.109   5.266   0.855 -0.5465  1.7677 -0.8874
15255SOL    HW248304   4.014   5.263   0.737 -0.6267 -1.6657 -0.7824
15256SOL     OW48305   0.359   9.173   8.704 -0.4884  0.0916  0.2133
15256SOL    HW148306   0.331   9.127   8.625  1.0509  1.1337 -0.9877
15256SOL    HW248307   0.449   9.200   8.685 -0.3751  1.0748  2.0149
15257SOL     OW48308   5.527   1.778   1.704  0.1302 -0.2168 -0.0665
15257SOL    HW148309   5.525   1.765   1.609  0.4646 -0.0391 -0.0967
15257SOL    HW248310   5.525   1.689   1.739 -2.4408 -0.2492 -0.1895
15258SOL     OW48311   4.996   9.627   1.945 -0.9460  0.7846  0.3557
15258SOL    HW148312   5.023   9.700   2.001  2.4115 -0.5699  0.6430
15258SOL    HW248313   5.015   9.656   1.856 -1.3429  0.9482  0.3236
15259SOL     OW48314   0.648   9.007   3.546  0.1935 -0.1727 -0.0910
15259SOL    HW148315   0.682   8.989   3.458  1.6222  3.4522 -0.3525
15259SOL    HW248316   0.559   9.037   3.530 -0.0451 -0.8809 -0.1425
15260SOL     OW48317   7.032   9.464   5.144 -0.3661 -0.6370 -0.0485
15260SOL    HW148318   7.111   9.517   5.136 -0.7316 -0.2389 -1.1570
15260SOL    HW248319   7.031   9.435   5.235 -1.0888  2.7085  1.0609
15261SOL     OW48320   8.057   1.435   1.422  0.3179 -0.1594  0.0877
15261SOL    HW148321   8.129   1.426   1.359  1.4237 -1.1851  1.4417
15261SOL    HW248322   8.017   1.519   1.401 -0.6889 -1.4207 -3.3187
15262SOL     OW48323   8.998   9.531   0.812  0.2073 -0.2509 -0.8115
15262SOL    HW148324   8.965   9.617   0.787  0.0595 -0.2469 -0.6093
15262SOL    HW248325   9.010   9.485   0.729  1.2105  0.3007 -0.9700
15263SOL     OW48326   4.893   2.504   4.383  0.5457 -0.2428  0.0096
15263SOL    HW148327   4.846   2.427   4.415 -0.1499  0.1326 -0.0934
15263SOL    HW248328   4.824   2.566   4.360  1.1034  0.4177  0.1064
15264SOL     OW48329   9.240   7.698   8.200  0.0944  0.3680 -0.2790
15264SOL    HW148330   9.301   7.744   8.257 -3.5145  2.8428  1.7668
15264SOL    HW248331   9.223   7.760   8.129 -0.3944 -0.1142 -0.5859
15265SOL     OW48332   2.777   1.716   1.503  0.4874  0.4915  0.2618
15265SOL    HW148333   2.740   1.779   1.564  0.4253  0.0610  0.6734
15265SOL    HW248334   2.865   1.749   1.485  1.1165 -0.2552  1.8810
15266SOL     OW48335   7.159   6.811   6.540  0.0339 -0.2604  0.4104
15266SOL    HW148336   7.142   6.901   6.511 -1.3443 -0.8584 -0.6569
15266SOL    HW248337   7.089   6.792   6.603  2.4670  0.7028  3.5824
15267SOL     OW48338   1.837   0.069   0.047  0.7445 -0.3075  0.4245
15267SOL    HW148339   1.931   0.088   0.048  0.7765 -0.4016 -0.2436
15267SOL    HW248340   1.796   0.151   0.019  0.8424 -1.0053 -1.9394
15268SOL     OW48341   6.572   0.887   5.361 -0.3482 -0.0909  0.1590
15268SOL    HW148342   6.494   0.842   5.394  1.4910 -3.0628  0.5772
15268SOL    HW248343   6.547   0.916   5.273 -2.0750 -0.6270  0.4521
15269SOL     OW48344   4.776   5.861   2.034  0.5949  0.3986 -0.0155
15269SOL    HW148345   4.816   5.916   1.967  2.0165 -0.0190  0.4815
15269SOL    HW248346   4.800   5.902   2.117  1.8572 -1.0667  0.3666
15270SOL     OW48347   9.439   5.539   3.143 -0.6647 -0.1227 -0.1689
15270SOL    HW148348   9.446   5.618   3.090 -1.6969 -0.2713 -0.5481
15270SOL    HW248349   9.476   5.470   3.087  1.3877  0.2844  0.6484
15271SOL     OW48350   8.048   2.494   9.765  0.4306 -0.2863  0.8181
15271SOL    HW148351   8.028   2.558   9.697  0.8446  0.2638  1.2087
15271SOL    HW248352   8.137   2.464   9.745 -0.7823 -2.8781 -1.0375
15272SOL     OW48353   3.017   0.767   0.377 -0.2633  0.1366 -0.8585
15272SOL    HW148354   2.966   0.773   0.457 -0.1599 -1.9914 -0.5916
15272SOL    HW248355   3.108   0.774   0.406 -0.2734  0.4877 -0.9159
15273SOL     OW48356   1.659   1.060   6.798  0.2171  0.0198 -0.4235
15273SOL    HW148357   1.575   1.048   6.844  0.1297  1.1028 -0.2953
15273SOL    HW248358   1.712   1.111   6.858  0.7772 -0.1765 -0.7499
15274SOL     OW48359   5.429  10.134   4.836  0.1061  0.5145 -0.5590
15274SOL    HW148360   5.374  10.184   4.775 -0.0520 -0.9881 -1.6748
15274SOL    HW248361   5.490  10.086   4.779  1.7577  1.1775  0.6025
15275SOL     OW48362   1.486   6.266   5.144  0.2724 -0.3690 -0.0189
15275SOL    HW148363   1.430   6.293   5.071 -0.6186  0.4183  0.9443
15275SOL    HW248364   1.523   6.347   5.178 -0.7105 -0.5469  1.5131
15276SOL     OW48365   2.634   3.552   6.116  0.2521  0.3619  0.2468
15276SOL    HW148366   2.588   3.469   6.119 -1.0410  1.1169  2.1755
15276SOL    HW248367   2.660   3.569   6.206  0.4048  2.1094 -0.1027
15277SOL     OW48368   4.326   6.970   6.690  0.2744  0.6716  0.2894
15277SOL    HW148369   4.233   6.993   6.688  0.2346  0.6691  1.6279
15277SOL    HW248370   4.331   6.881   6.656 -0.1641  0.8410 -0.2059
15278SOL     OW48371   4.666   0.877   7.671  0.1703 -0.1197  0.5167
15278SOL    HW148372   4.676   0.936   7.597  0.2391 -1.1694 -0.3089
15278SOL    HW248373   4.750   0.832   7.678 -0.1781 -0.7682  0.5853
15279SOL     OW48374   0.922   0.357   7.547  0.4728 -0.2093 -0.0226
15279SOL    HW148375   0.861   0.299   7.501  0.2367  1.8677 -2.4698
15279SOL    HW248376   0.866   0.424   7.587  0.8017 -1.1465  2.0774
15280SOL     OW48377   4.038   3.688   5.230 -0.4574 -0.0609  0.3580
15280SOL    HW148378   4.116   3.639   5.203 -0.3279  0.9828 -1.1948
15280SOL    HW248379   3.981   3.688   5.153 -0.5891  1.9395  0.4209
15281SOL     OW48380   7.108   9.749   8.659  0.4475  0.4833  0.4552
15281SOL    HW148381   7.179   9.805   8.690 -0.0876  1.7386 -0.5460
15281SOL    HW248382   7.031   9.807   8.655 -0.5188 -0.7342  1.0458
15282SOL     OW48383   5.329   0.627   4.527  0.6248  0.3030 -0.0498
15282SOL    HW148384   5.341   0.557   4.463 -1.8616  0.9420 -1.3078
15282SOL    HW248385   5.297   0.582   4.606 -0.6494 -0.0329 -0.7441
15283SOL     OW48386   9.335   6.267   0.186  0.3166 -0.6313 -0.1557
15283SOL    HW148387   9.404   6.264   0.119  0.3771  0.1394 -0.1343
15283SOL    HW248388   9.254   6.278   0.136  0.0646 -2.6313 -0.2526
15284SOL     OW48389   1.885   4.484   0.787 -0.9335  0.1875  0.2516
15284SOL    HW148390   1.882   4.400   0.833  2.0047  0.2598  0.6317
15284SOL    HW248391   1.793   4.513   0.785 -1.9482 -2.8592  0.3706
15285SOL     OW48392   9.556   0.295   9.342  0.5567  0.3234 -0.5553
15285SOL    HW148393   9.541   0.214   9.390 -0.6532 -0.7444 -2.6899
15285SOL    HW248394   9.573   0.361   9.411  1.0334 -1.5869  1.2079
15286SOL     OW48395   9.684   2.740   6.075 -0.0333 -0.2455 -0.4996
15286SOL    HW148396   9.723   2.730   5.988 -1.7424 -2.2449 -1.0721
15286SOL    HW248397   9.606   2.794   6.060  0.1371  0.1164 -0.0782
15287SOL     OW48398   8.390   0.436   4.771  0.3034 -0.4925  0.2257
15287SOL    HW148399   8.310   0.486   4.790 -0.0223 -0.7860 -0.3801
15287SOL    HW248400   8.436   0.488   4.706  0.5629 -0.3704  0.5056
15288SOL     OW48401   0.581   5.502   7.652 -0.0552 -0.0778 -0.6307
15288SOL    HW148402   0.497   5.458   7.649 -1.0533  1.5632  1.4383
15288SOL    HW248403   0.645   5.434   7.629 -1.9529 -1.1675 -2.8746
15289SOL     OW48404   1.624   9.477   3.651 -0.5682 -0.3589 -0.1368
15289SOL    HW148405   1.561   9.446   3.717  0.3134 -0.7753  0.5210
15289SOL    HW248406   1.596   9.435   3.570 -0.6987 -1.1274  0.2997
15290SOL     OW48407   5.535   5.836   1.828 -0.0026 -0.1561  0.6423
15290SOL    HW148408   5.528   5.924   1.791 -2.8451 -0.3001  0.6833
15290SOL    HW248409   5.537   5.778   1.753 -0.8839 -0.1862  0.6358
15291SOL     OW48410   5.457   6.795   3.704 -0.2549  0.3207  0.4658
15291SOL    HW148411   5.379   6.820   3.654 -1.1844 -1.7615  0.7856
15291SOL    HW248412   5.495   6.877   3.733 -1.7424  1.4199 -0.6183
15292SOL     OW48413   8.839   6.981   2.235 -0.2988  0.1536  0.1657
15292SOL    HW148414   8.896   6.912   2.203  0.5215  0.3353  1.2327
15292SOL    HW248415   8.889   7.062   2.223 -0.7660  0.4386  0.0833
15293SOL     OW48416   9.026   7.823   5.645  0.1995  0.1170 -0.0887
15293SOL    HW148417   9.073   7.863   5.719  0.0561  0.3305 -0.1126
15293SOL    HW248418   8.988   7.743   5.681  2.7702 -1.4608 -0.7143
15294SOL     OW48419   9.754   4.197   1.519 -0.1351 -0.1311  0.0907
15294SOL    HW148420   9.687   4.242   1.468 -1.1314 -0.4162  1.1261
15294SOL    HW248421   9.837   4.221   1.476 -0.7632  1.4418 -0.2837
15295SOL     OW48422   9.727   3.047   7.562 -0.6539  0.0722 -0.0857
15295SOL    HW148423   9.790   3.120   7.566 -1.7869  1.1828 -1.8820
15295SOL    HW248424   9.697   3.038   7.652  1.1205  0.3685  0.5717
15296SOL     OW48425   0.667   4.017   0.885  0.4507 -0.5360  0.0724
15296SOL    HW148426   0.581   3.981   0.864  0.4366  0.1838 -1.1960
15296SOL    HW248427   0.715   4.011   0.802  1.0629  0.6160  0.3401
15297SOL     OW48428   2.643   4.654   2.151 -0.3751 -0.2181 -0.2863
15297SOL    HW148429   2.616   4.723   2.212 -0.9329 -0.4005 -0.3233
15297SOL    HW248430   2.725   4.619   2.188  0.8562  1.6374 -1.1869
15298SOL     OW48431   8.728   4.690   1.071  0.3761  0.0398 -0.3409
15298SOL    HW148432   8.672   4.613   1.061 -0.2387  0.3305  0.7425
15298SOL    HW248433   8.720   4.713   1.164  0.1587  1.7047 -0.7542
15299SOL     OW48434   0.870   7.181   8.707  0.0410  0.7596  0.0816
15299SOL    HW148435   0.836   7.270   8.706 -1.7922  0.0912 -0.1330
15299SOL    HW248436   0.879   7.159   8.800 -0.4382  0.8241  0.1418
15300SOL     OW48437   3.500   9.902   2.299 -0.1641 -0.2555 -0.5709
15300SOL    HW148438   3.483   9.876   2.389  0.8357 -1.6891 -0.7907
15300SOL    HW248439   3.537   9.990   2.307  0.1397 -0.4659  0.4309
15301SOL     OW48440   2.775   3.669   4.748 -0.0543  0.3998  0.0136
15301SOL    HW148441   2.843   3.671   4.681 -1.9193 -1.7504 -2.0658
15301SOL    HW248442   2.756   3.761   4.766  1.2266  1.0162 -1.6606
15302SOL     OW48443   6.634   6.817   5.952  0.2571  0.2723 -0.2129
15302SOL    HW148444   6.582   6.772   5.885  0.2235  0.3411 -0.2342
15302SOL    HW248445   6.679   6.887   5.903  1.1523 -0.4149 -0.3796
15303SOL     OW48446   8.726   9.914   5.415  0.1174 -0.3593 -0.0032
15303SOL    HW148447   8.782   9.967   5.357 -0.4188  0.6569  0.3859
15303SOL    HW248448   8.642   9.911   5.370 -0.1596  0.0241  0.4836
15304SOL     OW48449   5.883   6.150   9.708  0.1099 -0.4494 -0.0610
15304SOL    HW148450   5.972   6.145   9.743  0.7311 -1.1947 -1.6920
15304SOL    HW248451   5.876   6.073   9.651 -1.2883  0.0676 -0.5958
15305SOL     OW48452   8.990   8.426   3.832 -0.2066 -0.0758 -0.3909
15305SOL    HW148453   9.042   8.440   3.911 -1.6211  1.4067  0.3140
15305SOL    HW248454   9.005   8.505   3.780  0.1894 -0.7479 -1.3168
15306SOL     OW48455   4.910   3.250   7.580 -0.1364  0.3840  0.2103
15306SOL    HW148456   4.972   3.178   7.585  2.0835  2.0757 -2.1384
15306SOL    HW248457   4.937   3.310   7.650  0.9819  1.1666 -0.8738
15307SOL     OW48458  10.102   0.315   1.881 -0.1446 -0.4403  0.0906
15307SOL    HW148459  10.031   0.251   1.880  1.1462 -1.8928 -1.6001
15307SOL    HW248460  10.169   0.277   1.824  0.1333  3.0035 -2.0404
15308SOL     OW48461   1.963   8.109   2.387  0.2126 -0.3971 -0.3969
15308SOL    HW148462   2.039   8.162   2.366  3.4874 -4.3660  0.8917
15308SOL    HW248463   1.925   8.152   2.464 -0.3615  2.9654 -2.4592
15309SOL     OW48464   1.347   8.866   5.257  0.2552  0.2587  0.0080
15309SOL    HW148465   1.375   8.877   5.348  1.4887  1.0564 -0.4524
15309SOL    HW248466   1.353   8.954   5.219 -0.8047  0.0391 -0.6998
15310SOL     OW48467   0.151   2.014   1.001 -0.4478 -0.0916  0.3014
15310SOL    HW148468   0.235   1.990   0.964 -0.9327  1.5597 -1.9569
15310SOL    HW248469   0.088   1.955   0.960 -0.8063  0.8243 -0.4782
15311SOL     OW48470   1.675   5.899   1.783 -0.3508 -0.4994  0.6460
15311SOL    HW148471   1.696   5.953   1.858  0.6006  0.1609 -0.0822
15311SOL    HW248472   1.650   5.961   1.714  0.0963 -1.0086  0.0115
15312SOL     OW48473   9.523   6.933   2.252  0.1224  0.6276 -0.3463
15312SOL    HW148474   9.519   6.876   2.329  0.5117  0.3749 -0.5155
15312SOL    HW248475   9.564   7.014   2.285 -0.2983  0.7578 -0.1407
15313SOL     OW48476   1.554   2.434   4.681  0.1811  0.0396  0.3407
15313SOL    HW148477   1.515   2.376   4.615  0.7606  1.0056 -0.8681
15313SOL    HW248478   1.503   2.514   4.676  0.4699  0.2573  0.8065
15314SOL     OW48479   7.069   6.944   4.423 -0.0004 -0.0836  0.0017
15314SOL    HW148480   7.097   6.958   4.513  0.7463 -0.0744 -0.2244
15314SOL    HW248481   7.077   7.030   4.381 -1.1038  0.0856  0.1255
15315SOL     OW48482   5.368   9.191   9.395  0.0542 -0.2205  0.4592
15315SOL    HW148483   5.419   9.214   9.317  0.5707  0.3831  0.9601
15315SOL    HW248484   5.369   9.271   9.448  0.5110 -0.9102  1.5134
15316SOL     OW48485   9.208   1.769   9.042 -0.5626  0.3568 -0.3073
15316SOL    HW148486   9.166   1.685   9.027 -0.4390  0.2751 -0.1936
15316SOL    HW248487   9.174   1.825   8.973 -0.8356  0.2812 -0.2339
15317SOL     OW48488   6.063   2.137   0.288  0.3886 -0.1696 -0.1522
15317SOL    HW148489   6.130   2.069   0.290  1.0233  0.4166 -0.9362
15317SOL    HW248490   5.980   2.090   0.281  0.8733 -0.8449 -1.5512
15318SOL     OW48491   7.940   3.940   3.903  0.8137  0.0527  0.2444
15318SOL    HW148492   8.022   3.924   3.948  1.0216  1.6428  0.4584
15318SOL    HW248493   7.876   3.884   3.948  1.9040 -1.7369 -0.4033
15319SOL     OW48494   9.062   4.847   4.382  0.6877 -0.4196 -0.3107
15319SOL    HW148495   9.133   4.894   4.425  1.0426 -1.3621  0.1364
15319SOL    HW248496   9.101   4.766   4.350  0.5547  0.5084 -2.9280
15320SOL     OW48497   6.843   5.050   2.122 -0.1880  0.1784 -0.2462
15320SOL    HW148498   6.771   5.111   2.108  0.5963  1.3028  0.5900
15320SOL    HW248499   6.800   4.969   2.150 -1.1125  0.9342  0.5665
15321SOL     OW48500   3.713  10.203   7.484  0.0164 -0.0599  0.5345
15321SOL    HW148501   3.676  10.249   7.409 -0.7315 -0.0670  0.8978
15321SOL    HW248502   3.666  10.119   7.486  1.5721 -0.9832 -0.3004
15322SOL     OW48503   2.618   5.703   7.728 -0.6604  0.0795 -0.5453
15322SOL    HW148504   2.672   5.765   7.681 -1.2221 -0.2349 -1.6341
15322SOL    HW248505   2.537   5.751   7.749 -0.4146  0.2186  0.1097
15323SOL     OW48506   1.371   2.254   1.901  0.3900  0.2570  0.4608
15323SOL    HW148507   1.304   2.299   1.952 -0.0593 -0.2031  0.2783
15323SOL    HW248508   1.406   2.322   1.842 -1.1751  0.0788 -0.7147
15324SOL     OW48509   4.683   3.375   1.463  0.3194  0.5395  0.3566
15324SOL    HW148510   4.761   3.390   1.515 -0.3983  2.0813  1.0133
15324SOL    HW248511   4.672   3.454   1.411 -0.1788 -0.1241 -0.5773
15325SOL     OW48512   9.331   8.943   7.903  0.4835 -0.1831  0.4978
15325SOL    HW148513   9.421   8.923   7.929 -0.2907 -1.9757  1.9271
15325SOL    HW248514   9.278   8.878   7.949 -1.7933  2.5348  1.8481
15326SOL     OW48515   6.533   6.759   3.774 -0.0166  0.1207  0.0849
15326SOL    HW148516   6.551   6.677   3.729  0.2993  1.0060 -1.4507
15326SOL    HW248517   6.524   6.735   3.866 -0.3743 -1.6903 -0.4059
15327SOL     OW48518   3.158   8.597   7.597  0.1073 -1.1831 -0.1196
15327SOL    HW148519   3.166   8.505   7.622 -0.4400 -1.2503 -0.1870
15327SOL    HW248520   3.071   8.623   7.630  0.3357 -0.6422  0.0642
15328SOL     OW48521   3.928   6.887   7.092 -0.0036  0.4514  1.0099
15328SOL    HW148522   3.861   6.886   7.025  1.1099 -1.7677 -0.1090
15328SOL    HW248523   3.976   6.969   7.077  0.7379 -0.3855 -1.4363
15329SOL     OW48524   7.525   5.913   9.508  0.2055 -0.1623 -0.1257
15329SOL    HW148525   7.478   5.996   9.519  0.1702 -0.3939  1.6920
15329SOL    HW248526   7.545   5.909   9.415 -2.3569  0.4974 -0.7459
15330SOL     OW48527   8.470   2.833   0.022  0.2957 -0.0479  0.2229
15330SOL    HW148528   8.499   2.794  -0.061  0.0520  0.7317 -0.2450
15330SOL    HW248529   8.433   2.760   0.072  0.6356 -0.5623 -0.2754
15331SOL     OW48530   1.078   6.404   5.201 -0.3705  0.1102  0.0055
15331SOL    HW148531   1.099   6.337   5.136  3.0997  0.1144  1.0141
15331SOL    HW248532   0.994   6.377   5.238 -0.6364 -1.8525 -1.9183
15332SOL     OW48533   2.546   9.950   3.441 -0.1769 -0.2060 -0.0001
15332SOL    HW148534   2.560  10.001   3.520 -1.4232 -1.3453  0.9689
15332SOL    HW248535   2.478   9.997   3.394 -0.7756 -0.5456  0.5206
15333SOL     OW48536   7.328   6.984   5.253 -0.3686  0.3081 -0.3988
15333SOL    HW148537   7.296   6.898   5.279 -0.8977 -0.3007 -2.8886
15333SOL    HW248538   7.423   6.975   5.252 -0.3919  0.0292  0.2725
15334SOL     OW48539   4.962   7.649   1.465  0.0125 -0.1410  0.4184
15334SOL    HW148540   5.029   7.581   1.454  1.0008  0.8365  0.2637
15334SOL    HW248541   4.939   7.645   1.558  0.7071 -0.1015  0.5956
15335SOL     OW48542   6.772   5.420   0.380  0.3926  0.0763  0.1363
15335SOL    HW148543   6.780   5.467   0.463  0.0321  1.1282 -0.4140
15335SOL    HW248544   6.861   5.418   0.345  0.5008 -0.1396  0.4173
15336SOL     OW48545   8.828   6.111   9.063  1.5208  0.6606 -0.4450
15336SOL    HW148546   8.776   6.031   9.071  1.9691  0.6587  3.3223
15336SOL    HW248547   8.849   6.116   8.970 -0.0384 -2.6189 -1.0684
15337SOL     OW48548   4.996   8.742   1.102 -0.0260  0.4524 -0.0825
15337SOL    HW148549   5.036   8.662   1.135  1.2326  1.4038  0.7444
15337SOL    HW248550   5.059   8.775   1.038 -0.8552  0.4345 -0.9176
15338SOL     OW48551   5.321   5.098   3.814  0.5258  0.1429  0.5489
15338SOL    HW148552   5.332   5.032   3.746  1.1487  1.4888 -0.6991
15338SOL    HW248553   5.320   5.181   3.767 -0.9327  0.9944  2.0172
15339SOL     OW48554   6.762   0.156   1.199 -0.0606  0.1451  0.4610
15339SOL    HW148555   6.749   0.063   1.180  1.5791  0.2214 -1.1792
15339SOL    HW248556   6.831   0.184   1.139 -0.0097  2.2604  1.4342
15340SOL     OW48557   0.351   5.834   7.150  0.3730 -0.1839 -0.5097
15340SOL    HW148558   0.276   5.819   7.094  1.6499  0.5814 -2.4752
15340SOL    HW248559   0.420   5.863   7.091  1.8914  0.2270  1.3997
15341SOL     OW48560   2.584  10.152   5.168  0.0652  0.0425  0.4971
15341SOL    HW148561   2.637  10.073   5.156  0.2135  0.1271  0.5985
15341SOL    HW248562   2.568  10.183   5.079  0.3640  0.1324  0.4712
15342SOL     OW48563   5.609   3.128   3.938 -0.4224 -0.2919  0.7856
15342SOL    HW148564   5.529   3.093   3.900  1.9463 -2.7793 -2.1154
15342SOL    HW248565   5.638   3.060   4.000  2.1750 -1.9091 -2.0767
15343SOL     OW48566   6.815   7.093   3.689  0.6894  0.0220 -0.4330
15343SOL    HW148567   6.814   7.020   3.628 -0.8639  0.6222 -1.1680
15343SOL    HW248568   6.830   7.170   3.634  0.6777  0.4207  0.1142
15344SOL     OW48569   4.423   9.079   9.795  0.0902  0.6483  0.5016
15344SOL    HW148570   4.423   9.165   9.836 -0.8277  1.2833 -0.7707
15344SOL    HW248571   4.358   9.028   9.844  0.4899  0.7372  1.1265
15345SOL     OW48572   3.873   6.061   0.483 -0.0760  0.0730  0.2427
15345SOL    HW148573   3.816   6.113   0.540  0.3576 -0.7412  1.4246
15345SOL    HW248574   3.890   6.119   0.408 -1.3785  0.8131  0.4999
15346SOL     OW48575   2.820   0.530   3.135  0.5665  0.3243  0.4071
15346SOL    HW148576   2.732   0.495   3.150 -0.1739  1.8127 -0.3571
15346SOL    HW248577   2.828   0.535   3.039  1.4642  0.2451  0.4718
15347SOL     OW48578   5.932   1.820   1.252  0.5164 -0.6882 -0.0572
15347SOL    HW148579   5.848   1.777   1.271  1.2813 -1.3474  2.0155
15347SOL    HW248580   5.995   1.776   1.310  1.5482  2.4438  1.3199
15348SOL     OW48581   9.916   0.803   4.286  0.5635  0.5911  0.7203
15348SOL    HW148582   9.882   0.879   4.333  0.8375  0.3692  1.2913
15348SOL    HW248583  10.005   0.829   4.260  0.8839  0.2572  1.4450
15349SOL     OW48584   1.968   2.036   1.118  0.2080  0.3551 -0.5478
15349SOL    HW148585   1.935   2.028   1.208 -0.2797 -0.4865 -0.7955
15349SOL    HW248586   1.889   2.043   1.064  0.4800  0.1496 -0.9800
15350SOL     OW48587   7.829   9.477   1.283 -0.3805  0.5779  0.3164
15350SOL    HW148588   7.847   9.495   1.191  0.6647 -0.3264  0.3263
15350SOL    HW248589   7.893   9.410   1.307  0.0783  1.6061  2.0058
15351SOL     OW48590   2.831   2.224   3.367 -0.0295 -0.3202  0.1157
15351SOL    HW148591   2.812   2.265   3.283  0.1829  0.4183  0.4279
15351SOL    HW248592   2.920   2.253   3.388 -0.6914  0.8089  1.3812
15352SOL     OW48593   7.428   6.883   5.733 -0.1467  0.4235  0.6458
15352SOL    HW148594   7.428   6.826   5.810 -0.7464 -1.2680 -0.5755
15352SOL    HW248595   7.350   6.858   5.684 -0.8562  2.8617  0.4724
15353SOL     OW48596   8.225   5.476   4.497 -0.0016 -0.3611  0.6068
15353SOL    HW148597   8.300   5.442   4.448  1.1616  0.4080  1.8159
15353SOL    HW248598   8.196   5.403   4.551 -0.1100 -0.6480  0.1685
15354SOL     OW48599  10.185   1.223   9.671  0.2908  0.1826 -0.2699
15354SOL    HW148600  10.091   1.222   9.688 -0.0516 -0.7339 -2.0903
15354SOL    HW248601  10.211   1.131   9.674  1.1871  0.4508  0.5049
15355SOL     OW48602   4.808   1.313   9.031  0.0462 -0.0610  0.0872
15355SOL    HW148603   4.760   1.267   9.100 -1.2983  0.3854 -0.5211
15355SOL    HW248604   4.899   1.289   9.044 -0.3041 -0.6251  1.5208
15356SOL     OW48605   8.143   4.459   7.090  0.6593  0.0925  0.1915
15356SOL    HW148606   8.079   4.478   7.022 -0.9560 -1.1500  1.3236
15356SOL    HW248607   8.211   4.409   7.045 -0.1338 -0.2764 -0.6260
15357SOL     OW48608   2.001   7.025   5.973  0.1049  0.1191 -0.3974
15357SOL    HW148609   1.958   6.977   6.044 -0.4660 -1.6689 -1.8873
15357SOL    HW248610   1.929   7.051   5.916  0.6556  0.5531 -0.8950
15358SOL     OW48611   9.861   4.481   5.344 -0.8085 -0.9890  0.0791
15358SOL    HW148612   9.815   4.455   5.424 -1.9720 -0.0780 -0.2747
15358SOL    HW248613   9.941   4.523   5.375  0.1794 -3.2472  0.6849
15359SOL     OW48614   9.899   1.580   3.305 -0.1546 -0.3216  0.1980
15359SOL    HW148615   9.812   1.612   3.280 -1.4969 -3.2744  0.8244
15359SOL    HW248616   9.897   1.578   3.401 -0.1199 -2.1868  0.1811
15360SOL     OW48617   6.816   7.578   3.616  0.3783  0.1973 -0.0164
15360SOL    HW148618   6.851   7.522   3.547  0.7121  0.1882  0.1633
15360SOL    HW248619   6.893   7.616   3.659  0.1411  2.0842 -1.2045
15361SOL     OW48620   9.699   8.786   1.326 -0.5225  0.1375  0.0341
15361SOL    HW148621   9.794   8.774   1.338 -0.4840  1.0378  0.7157
15361SOL    HW248622   9.664   8.786   1.415 -1.0193  0.9443 -0.1573
15362SOL     OW48623   3.114   5.191   7.581  0.5988  0.1011  0.0801
15362SOL    HW148624   3.066   5.153   7.654 -1.4125  0.4581 -1.0146
15362SOL    HW248625   3.146   5.115   7.532 -3.4627 -0.3535 -2.1399
15363SOL     OW48626   9.731   3.021   5.251  0.3865 -0.1320 -0.1128
15363SOL    HW148627   9.823   3.033   5.226  0.2182 -0.2691 -0.8090
15363SOL    HW248628   9.707   3.102   5.295 -0.1400  1.3113 -2.9417
15364SOL     OW48629   9.274   0.522   6.438  0.0225 -0.1142  0.7014
15364SOL    HW148630   9.356   0.571   6.440 -0.2999  0.4090  1.1295
15364SOL    HW248631   9.231   0.550   6.358  1.0180 -1.6323 -0.3876
15365SOL     OW48632   4.539   1.847   9.246 -0.0547 -0.2937 -0.0639
15365SOL    HW148633   4.613   1.811   9.295 -0.5707 -1.1615  0.0889
15365SOL    HW248634   4.471   1.780   9.252 -0.3853 -0.0927 -1.3375
15366SOL     OW48635   4.886   7.074   1.301  0.4099 -0.1973 -1.0234
15366SOL    HW148636   4.892   6.996   1.245 -1.5065 -1.7511  0.8492
15366SOL    HW248637   4.955   7.061   1.367 -1.0425 -1.2341  0.3356
15367SOL     OW48638   7.554   3.684   8.888  0.1280 -0.0447 -0.1912
15367SOL    HW148639   7.472   3.723   8.858  0.2419 -1.0734 -1.9510
15367SOL    HW248640   7.622   3.732   8.841  0.4507 -0.1480  0.1689
15368SOL     OW48641   4.089  10.182   9.306 -0.0856  0.1549 -0.1612
15368SOL    HW148642   4.066  10.205   9.396  0.1658 -0.8796  0.1748
15368SOL    HW248643   4.091  10.086   9.305  1.1963  0.1671 -0.9398
15369SOL     OW48644   8.654   9.526   1.719  0.3670  0.4286  0.2017
15369SOL    HW148645   8.600   9.478   1.656 -0.9992  0.5886  1.2385
15369SOL    HW248646   8.731   9.553   1.669 -0.9775  1.0625 -1.5501
15370SOL     OW48647   6.866   9.048   5.338 -0.7699  0.4537 -0.1253
15370SOL    HW148648   6.878   8.967   5.289  0.7555  0.6529 -0.1297
15370SOL    HW248649   6.892   9.026   5.427 -1.0270  0.7489  0.0224
15371SOL     OW48650   1.566   1.064   8.991 -0.2109  0.4062  0.1135
15371SOL    HW148651   1.637   1.030   8.935 -0.6669 -0.8018  0.2485
15371SOL    HW248652   1.609   1.129   9.046  0.6957  0.0702 -0.1701
15372SOL     OW48653   6.338   4.583   6.336  0.1081 -0.0203 -0.3724
15372SOL    HW148654   6.346   4.489   6.322 -1.5166 -0.2019 -0.1657
15372SOL    HW248655   6.310   4.619   6.252 -0.0787  0.1685 -0.2322
15373SOL     OW48656   0.206   9.998   7.264 -0.2685 -1.0485  0.3040
15373SOL    HW148657   0.113   9.978   7.249 -0.2117 -2.6191  1.8421
15373SOL    HW248658   0.241   9.918   7.304  1.6669 -0.3392  0.0651
15374SOL     OW48659   4.777   0.628   4.238 -0.0748  0.0491  0.3893
15374SOL    HW148660   4.855   0.683   4.244 -1.0496  1.2719  1.9895
15374SOL    HW248661   4.752   0.632   4.145  0.9819  0.7138  0.1278
15375SOL     OW48662   5.213   1.950   1.513  0.3306  0.2703 -0.1217
15375SOL    HW148663   5.277   1.985   1.450  0.3842  1.3439  0.5048
15375SOL    HW248664   5.180   2.028   1.558 -0.1397 -0.4372  0.7681
15376SOL     OW48665   7.135   7.981   1.549 -0.0763  0.2188  0.4417
15376SOL    HW148666   7.179   7.911   1.598  3.9043  2.7196  0.6318
15376SOL    HW248667   7.170   7.973   1.460 -1.1875  0.6801 -0.0447
15377SOL     OW48668   7.686   4.691   2.429 -0.6494  0.1037 -0.5132
15377SOL    HW148669   7.770   4.684   2.473 -0.1043 -1.6123 -1.7649
15377SOL    HW248670   7.633   4.747   2.487  1.1714  0.8025  0.5092
15378SOL     OW48671   5.645   2.043   5.873  0.0554  0.2107  0.0547
15378SOL    HW148672   5.649   1.966   5.815  2.5059 -0.3582  0.8963
15378SOL    HW248673   5.620   2.007   5.958  0.1028  0.4930  0.1876
15379SOL     OW48674   7.675   0.720   3.592  0.1655 -0.7388 -0.2439
15379SOL    HW148675   7.637   0.741   3.506  0.3377 -0.4061 -0.2402
15379SOL    HW248676   7.756   0.673   3.571  0.5068 -0.1427 -0.2747
15380SOL     OW48677   8.418   2.163   1.304 -0.4907 -0.5364  0.2215
15380SOL    HW148678   8.460   2.247   1.324 -0.9488 -0.9102  2.9470
15380SOL    HW248679   8.475   2.123   1.238  1.3107  0.6858  0.9854
15381SOL     OW48680   5.431   7.016   3.857 -0.3273 -0.0778 -0.6802
15381SOL    HW148681   5.399   7.098   3.895  1.9213  0.7520 -0.5009
15381SOL    HW248682   5.388   6.947   3.909 -1.0783  0.9959  0.1391
15382SOL     OW48683   2.688   4.454   1.776  0.0996  0.1661  0.5507
15382SOL    HW148684   2.709   4.362   1.786  0.0811  0.0649 -0.2908
15382SOL    HW248685   2.772   4.497   1.761 -0.0365  0.0629 -0.6037
15383SOL     OW48686   8.267   1.658   8.728 -0.1624  0.0529  0.2885
15383SOL    HW148687   8.263   1.699   8.814  1.1923  0.8603 -0.0219
15383SOL    HW248688   8.322   1.716   8.676 -1.1239 -0.3257 -1.1893
15384SOL     OW48689   7.402   2.537   2.348 -0.4108 -0.3594 -0.0218
15384SOL    HW148690   7.450   2.618   2.363 -1.0314  0.1812 -0.8801
15384SOL    HW248691   7.385   2.536   2.253  0.0710 -1.7588 -0.1164
15385SOL     OW48692   3.860   1.119   8.835  0.8076 -0.1670 -0.8692
15385SOL    HW148693   3.933   1.092   8.779  2.0656 -0.2591  0.7918
15385SOL    HW248694   3.823   1.036   8.866 -0.3672 -0.1376 -2.1252
15386SOL     OW48695   5.918   1.045   8.093 -0.2207  0.0236  0.1390
15386SOL    HW148696   5.868   1.025   8.173 -0.5295  2.3215  0.5616
15386SOL    HW248697   5.980   1.113   8.121  1.6647 -1.2486 -0.9041
15387SOL     OW48698   1.513   6.843   7.758  0.0151  0.3549 -0.1619
15387SOL    HW148699   1.603   6.838   7.726 -0.1360 -0.3460 -0.4854
15387SOL    HW248700   1.520   6.833   7.853  0.1296 -1.5313 -0.3502
15388SOL     OW48701   1.417   3.261   1.741 -0.2328  0.4806 -0.2345
15388SOL    HW148702   1.373   3.273   1.656 -0.8236  1.2913  0.1747
15388SOL    HW248703   1.373   3.324   1.799  0.7977  0.5890  0.4332
15389SOL     OW48704   4.149   0.753   7.367  0.1048 -0.1924  0.2839
15389SOL    HW148705   4.062   0.755   7.327 -0.1689 -0.6732  0.8648
15389SOL    HW248706   4.209   0.751   7.292 -0.3932 -0.4651 -0.1140
15390SOL     OW48707   4.778   0.659   2.370 -0.2338  0.2300 -0.0582
15390SOL    HW148708   4.852   0.658   2.310  0.5150 -0.0198  0.8569
15390SOL    HW248709   4.708   0.613   2.323  0.7574 -1.1312 -0.2428
15391SOL     OW48710   6.303   1.266   3.783  0.2819  0.0325 -0.2348
15391SOL    HW148711   6.366   1.194   3.783  2.2425  1.7058 -0.9264
15391SOL    HW248712   6.349   1.339   3.740 -1.8609  1.5217 -0.0980
15392SOL     OW48713   4.203   1.755   1.202  0.3974 -0.5945 -0.1699
15392SOL    HW148714   4.258   1.686   1.238  1.4044  0.2672 -0.0330
15392SOL    HW248715   4.260   1.832   1.198 -1.1024  0.6141  1.0042
15393SOL     OW48716   8.429   0.737   7.257 -0.3692 -0.2636  0.2946
15393SOL    HW148717   8.370   0.751   7.331 -1.1276  0.1807 -0.3897
15393SOL    HW248718   8.446   0.643   7.258 -0.9036 -0.3608  0.6407
15394SOL     OW48719   7.405   9.923   6.205  0.0386 -0.0849 -0.0824
15394SOL    HW148720   7.348   9.895   6.134  0.3384  0.1009 -0.3933
15394SOL    HW248721   7.345   9.939   6.278 -0.2519 -0.4158 -0.2439
15395SOL     OW48722   8.031   6.745   0.494  0.1615 -0.5642 -0.4838
15395SOL    HW148723   8.112   6.766   0.448  0.0720 -1.3414 -1.0015
15395SOL    HW248724   8.048   6.768   0.585  0.8700 -0.4857 -0.6330
15396SOL     OW48725   2.540   4.143   6.660 -0.4509 -0.2286  0.2357
15396SOL    HW148726   2.606   4.115   6.596 -0.3134 -0.2178  0.3730
15396SOL    HW248727   2.479   4.197   6.610 -0.8205 -0.9255 -0.0763
15397SOL     OW48728   2.216   9.583   5.052 -0.2842 -0.2052 -0.0467
15397SOL    HW148729   2.180   9.665   5.087 -0.2932 -0.0430 -0.4355
15397SOL    HW248730   2.160   9.515   5.088 -0.0443 -0.0694  0.5871
15398SOL     OW48731   9.889   4.153   7.535 -0.1479 -0.1257  0.4727
15398SOL    HW148732   9.912   4.062   7.553 -0.4221 -0.0158  1.3740
15398SOL    HW248733   9.914   4.166   7.443 -1.8545 -1.6435 -0.2338
15399SOL     OW48734   4.074   9.398   4.233  0.0583 -0.3794 -0.0806
15399SOL    HW148735   4.142   9.457   4.265  3.0545 -4.3094  1.1359
15399SOL    HW248736   4.015   9.386   4.308 -1.2982  1.8951 -0.7082
15400SOL     OW48737   2.121   0.479   4.163 -0.1565 -0.0479 -0.3110
15400SOL    HW148738   2.043   0.435   4.198 -0.4701  0.6302 -0.1576
15400SOL    HW248739   2.100   0.495   4.071 -1.6573  3.3702  0.5691
15401SOL     OW48740   7.199   4.076   6.410  0.1227  0.1016  0.1586
15401SOL    HW148741   7.204   4.027   6.328  0.5846  1.2733 -0.5109
15401SOL    HW248742   7.278   4.050   6.458 -1.5693 -2.8443  1.5374
15402SOL     OW48743   9.692   4.536   3.524  0.3714  0.1457  0.3358
15402SOL    HW148744   9.644   4.613   3.553  0.6848  0.8886 -1.1257
15402SOL    HW248745   9.625   4.468   3.515 -0.1624  0.7336 -0.1317
15403SOL     OW48746   6.405   6.253   5.859 -0.9082 -0.7232  0.1527
15403SOL    HW148747   6.479   6.268   5.800  0.5138 -0.2377  2.0240
15403SOL    HW248748   6.376   6.164   5.838 -0.8282 -0.3433 -1.6789
15404SOL     OW48749   1.457   5.504   5.819 -0.1141 -0.0368 -0.0402
15404SOL    HW148750   1.407   5.522   5.740 -2.2093 -2.0461  0.7708
15404SOL    HW248751   1.548   5.494   5.789 -0.7273  0.2859 -2.0179
15405SOL     OW48752   7.068   5.585   5.764  0.5554 -0.1234 -0.3472
15405SOL    HW148753   7.159   5.613   5.764  0.0106  1.7525 -1.7131
15405SOL    HW248754   7.041   5.587   5.856  1.1514  1.8075 -0.2102
15406SOL     OW48755   0.519   5.587   2.445 -0.2355  0.1258 -0.1104
15406SOL    HW148756   0.506   5.528   2.370 -1.5071  0.7695 -0.4112
15406SOL    HW248757   0.470   5.546   2.516 -0.1625  0.2184 -0.0064
15407SOL     OW48758   4.475   6.261   5.421 -0.0689  0.2451  0.1868
15407SOL    HW148759   4.435   6.182   5.458 -0.3820  0.7013  0.8403
15407SOL    HW248760   4.410   6.294   5.359 -0.1855  0.3058  0.3405
15408SOL     OW48761   1.182   2.697   0.912 -0.1000 -0.2237 -0.3105
15408SOL    HW148762   1.166   2.734   0.825  0.3413  1.2177  0.2084
15408SOL    HW248763   1.103   2.646   0.932 -1.3723  1.6647 -0.4213
15409SOL     OW48764   1.747   9.112   9.691  0.6160 -0.5404  0.4809
15409SOL    HW148765   1.840   9.134   9.691  0.7825 -1.1364  2.1683
15409SOL    HW248766   1.703   9.195   9.707  0.8651 -0.2855 -0.1402
15410SOL     OW48767   7.151   6.974   9.954 -0.2596 -0.1916  0.1650
15410SOL    HW148768   7.091   6.901   9.969 -0.6656  0.1906  0.4224
15410SOL    HW248769   7.238   6.933   9.953 -0.4512 -0.6296  0.7016
15411SOL     OW48770   6.150   8.908   7.074 -0.0173  0.7310  0.3759
15411SOL    HW148771   6.149   8.830   7.018 -1.9170 -0.9009  2.5698
15411SOL    HW248772   6.088   8.968   7.031 -2.1729 -0.8679  1.1323
15412SOL     OW48773   9.889   7.366   7.020  0.0027  0.1442  0.2543
15412SOL    HW148774   9.883   7.457   7.048 -0.9073 -0.2565  1.4139
15412SOL    HW248775   9.932   7.370   6.934 -1.6526  1.8198 -0.5407
15413SOL     OW48776   2.685   6.495   8.752  0.0992  0.5115 -0.5245
15413SOL    HW148777   2.622   6.463   8.687  1.5974 -0.6454 -1.4194
15413SOL    HW248778   2.712   6.417   8.800 -0.1460  1.2041  0.7706
15414SOL     OW48779   3.123   9.280   5.150  0.1582  0.4152  0.1193
15414SOL    HW148780   3.111   9.323   5.065 -0.1728  1.4079  0.6601
15414SOL    HW248781   3.152   9.191   5.128  0.1246  0.6788 -1.0287
15415SOL     OW48782   9.984   5.156   0.973 -0.3779  0.2694  0.3280
15415SOL    HW148783   9.931   5.231   0.946 -1.8412 -1.1727 -0.9482
15415SOL    HW248784   9.975   5.094   0.901  0.3153 -1.3680  1.6263
15416SOL     OW48785   5.524   3.993   2.878  0.2651  0.0696  0.6843
15416SOL    HW148786   5.470   4.072   2.867  0.7817  0.0115 -2.7751
15416SOL    HW248787   5.461   3.921   2.877  0.2671  0.0772 -2.2245
15417SOL     OW48788   9.899   9.428   8.865 -0.4601 -0.2366  0.1009
15417SOL    HW148789   9.911   9.512   8.821 -0.4991 -0.7749 -0.9393
15417SOL    HW248790   9.983   9.412   8.909 -0.4293  0.3070  0.2488
15418SOL     OW48791   2.226   6.808   4.575  0.1843 -0.1601  0.0713
15418SOL    HW148792   2.167   6.733   4.569 -1.3741  1.0997 -0.8565
15418SOL    HW248793   2.224   6.847   4.487  2.2872  0.0197  0.0609
15419SOL     OW48794   6.495   5.927   1.235 -0.0153  0.1139 -0.1382
15419SOL    HW148795   6.485   5.843   1.188  1.4906 -0.5752  0.7579
15419SOL    HW248796   6.582   5.958   1.211  0.3322  0.3001  1.3148
15420SOL     OW48797   1.273   5.651   0.579 -0.0135  0.1712 -0.1258
15420SOL    HW148798   1.349   5.633   0.523 -0.6031 -1.7626 -0.3226
15420SOL    HW248799   1.254   5.568   0.622 -0.8959  1.1027  1.3360
15421SOL     OW48800   8.562   8.280   7.427 -0.2698 -0.1576  0.0901
15421SOL    HW148801   8.555   8.358   7.372 -0.1581  1.0623  1.7779
15421SOL    HW248802   8.547   8.207   7.366 -1.0580  1.1911 -1.3826
15422SOL     OW48803   5.154   8.205   8.796  0.6891 -0.3641  0.4799
15422SOL    HW148804   5.176   8.269   8.728 -0.6829 -0.1526  0.2156
15422SOL    HW248805   5.167   8.252   8.878 -0.3100  0.2835  0.2852
15423SOL     OW48806   3.984   5.160   7.685  0.2939 -0.6105  0.7626
15423SOL    HW148807   3.930   5.102   7.739 -2.7711  2.0507  0.7124
15423SOL    HW248808   3.997   5.112   7.604 -1.8204 -1.4584  0.8855
15424SOL     OW48809   2.392   2.295   0.568  0.4676 -0.3014 -0.0975
15424SOL    HW148810   2.405   2.260   0.656  0.1849  0.0243  0.0765
15424SOL    HW248811   2.310   2.344   0.574  0.6936  0.1148 -0.4204
15425SOL     OW48812   2.534   7.610   1.032  0.2857 -0.1606  0.0051
15425SOL    HW148813   2.503   7.610   0.941 -0.5796  2.3463  0.2628
15425SOL    HW248814   2.628   7.622   1.025  0.1479  0.6691 -0.5780
15426SOL     OW48815  10.030   0.313   7.676  0.0302 -0.5994  0.2454
15426SOL    HW148816  10.120   0.338   7.656 -0.4877  0.2059 -1.0848
15426SOL    HW248817  10.038   0.250   7.748  1.6904 -0.9861 -0.2756
15427SOL     OW48818   9.095   1.118   6.611  0.3565  0.3279  0.4292
15427SOL    HW148819   9.046   1.184   6.561 -0.3297 -0.4400  0.0790
15427SOL    HW248820   9.154   1.078   6.548 -0.4126 -0.5467  0.2622
15428SOL     OW48821   3.069   5.750   7.403 -0.0035  0.3743 -0.5754
15428SOL    HW148822   3.026   5.683   7.456  0.6397 -0.1260 -0.6801
15428SOL    HW248823   3.146   5.776   7.454 -0.2730  1.0703 -0.5139
15429SOL     OW48824   4.127   7.609   7.404  0.8169  0.2067  0.1998
15429SOL    HW148825   4.172   7.675   7.352 -0.8229  0.1006 -1.3905
15429SOL    HW248826   4.062   7.658   7.454 -0.8095 -0.2415 -1.4322
15430SOL     OW48827   4.180  10.192   0.462 -0.0414 -0.1756  0.1074
15430SOL    HW148828   4.171  10.276   0.416 -2.1948 -0.5769 -0.2669
15430SOL    HW248829   4.132  10.130   0.407  2.6955 -1.9947 -0.3726
15431SOL     OW48830   4.014   6.949   3.692 -0.3040 -0.2934  0.4192
15431SOL    HW148831   4.033   7.020   3.753  0.3992 -0.2966  0.2128
15431SOL    HW248832   4.001   6.991   3.607  0.0380 -0.4003  0.3117
15432SOL     OW48833   8.075   8.960   9.128  0.0223 -0.0306 -0.0534
15432SOL    HW148834   8.122   8.908   9.063 -0.3376  0.8804 -1.0694
15432SOL    HW248835   8.061   9.044   9.085 -2.8400 -0.3848  0.0769
15433SOL     OW48836   0.886   4.963   7.070 -0.1459 -0.6699 -0.1921
15433SOL    HW148837   0.824   4.900   7.034 -1.5305  0.4733  0.1454
15433SOL    HW248838   0.894   5.030   7.002  0.1637 -0.4509  0.0569
15434SOL     OW48839   0.782   8.563   4.615 -0.1599 -0.1368  0.0299
15434SOL    HW148840   0.862   8.518   4.646  0.1393  1.4732  1.6905
15434SOL    HW248841   0.812   8.620   4.545  0.2162  0.6436  0.8128
15435SOL     OW48842   6.895   7.862   3.182 -0.6329 -0.5526  0.3612
15435SOL    HW148843   6.865   7.953   3.173  0.3005 -0.1792  0.9444
15435SOL    HW248844   6.915   7.835   3.093 -0.0147  0.1338  0.2825
15436SOL     OW48845   0.379   3.864   5.448 -0.0193  0.3617  0.2353
15436SOL    HW148846   0.329   3.944   5.434 -0.2750  0.2968  0.7554
15436SOL    HW248847   0.395   3.829   5.360 -2.1083 -0.3818  0.1248
15437SOL     OW48848   0.752   6.575   5.832 -0.1133 -0.5865 -0.3897
15437SOL    HW148849   0.839   6.604   5.805 -0.5212  1.1273  0.0984
15437SOL    HW248850   0.698   6.587   5.754 -0.1262 -0.7936 -0.4157
15438SOL     OW48851   4.901   7.409   7.933  0.1206  0.5248  0.0086
15438SOL    HW148852   4.889   7.341   8.000  1.8229 -0.8584 -1.0530
15438SOL    HW248853   4.920   7.488   7.983  1.7849 -0.5836  1.1907
15439SOL     OW48854   8.254   2.411   6.332  0.0053 -0.1362  0.6648
15439SOL    HW148855   8.298   2.388   6.250 -1.2001 -0.5167  0.1151
15439SOL    HW248856   8.264   2.506   6.338 -0.5176 -0.0145 -0.2939
15440SOL     OW48857   8.679   3.396   4.156 -0.0057  0.5290  0.0229
15440SOL    HW148858   8.674   3.491   4.147 -1.2504  0.5201  0.3823
15440SOL    HW248859   8.702   3.364   4.069  0.4848  1.1723 -0.0801
15441SOL     OW48860   0.284   9.980   2.903  0.0279  0.4752  0.3719
15441SOL    HW148861   0.212   9.938   2.949 -1.5853  3.0439  0.2947
15441SOL    HW248862   0.320  10.042   2.966  1.4137  0.0442  0.0185
15442SOL     OW48863   3.362   4.444   4.611 -0.3428 -0.0244  0.0834
15442SOL    HW148864   3.304   4.370   4.631 -1.3137  0.5563 -0.5104
15442SOL    HW248865   3.317   4.490   4.539  0.9515  0.3360 -0.4982
15443SOL     OW48866   1.445  10.188   4.644  0.1383 -0.3479  0.7749
15443SOL    HW148867   1.380  10.189   4.713 -1.2069 -0.5109 -0.4620
15443SOL    HW248868   1.479  10.098   4.643 -1.7685 -1.0859 -0.5194
15444SOL     OW48869   4.864   5.291   0.807 -0.3093  0.3889 -0.0007
15444SOL    HW148870   4.850   5.204   0.843  2.1584 -0.9284 -2.0603
15444SOL    HW248871   4.778   5.316   0.773 -1.2084 -0.9211  1.2424
15445SOL     OW48872   8.671   3.790   3.411  0.2992  0.2272  0.3873
15445SOL    HW148873   8.598   3.760   3.357  0.3161 -0.3933  0.7102
15445SOL    HW248874   8.655   3.753   3.497  0.4746  0.9113  0.7158
15446SOL     OW48875   4.127   8.770   0.675  0.5052 -0.7386  0.7599
15446SOL    HW148876   4.157   8.773   0.584 -0.5599  0.9822  0.4503
15446SOL    HW248877   4.161   8.851   0.714 -0.5965 -0.5727  1.3882
15447SOL     OW48878   4.419   8.774   1.002  0.0339  1.2012  0.0134
15447SOL    HW148879   4.392   8.684   0.984  0.2071  1.4349 -1.4962
15447SOL    HW248880   4.512   8.775   0.978  0.2000  1.6073  0.6774
15448SOL     OW48881   7.105   6.939   3.028  0.1396  0.6228  0.1263
15448SOL    HW148882   7.025   6.981   3.062 -0.4776  0.8784 -1.6120
15448SOL    HW248883   7.148   7.007   2.977  0.9520  0.1624  0.1915
15449SOL     OW48884   7.187   8.059   7.244 -0.5390  0.5075 -0.2360
15449SOL    HW148885   7.173   7.969   7.272  2.5133  0.8022  2.4848
15449SOL    HW248886   7.151   8.113   7.314  2.1322  1.3294  0.5470
15450SOL     OW48887   1.073   9.283   4.352  0.0629  0.0965 -0.1837
15450SOL    HW148888   1.133   9.327   4.412  0.8272  0.3845 -1.1536
15450SOL    HW248889   1.083   9.190   4.372  0.2927  0.1928  0.1535
15451SOL     OW48890   6.883   8.803   4.749 -0.3953 -0.1038 -0.2308
15451SOL    HW148891   6.947   8.840   4.810  0.5910 -1.3261 -0.5015
15451SOL    HW248892   6.930   8.798   4.666 -0.4641 -2.0170 -0.1843
15452SOL     OW48893   1.159   2.717   2.064  0.1546 -0.0199 -0.3036
15452SOL    HW148894   1.130   2.803   2.035 -1.8725 -0.4121  0.4779
15452SOL    HW248895   1.248   2.731   2.097  0.4077  1.4663 -1.5271
15453SOL     OW48896   7.951   0.073   0.555  0.2633 -0.2007 -0.2375
15453SOL    HW148897   7.896   0.126   0.613 -0.2532  0.5968 -1.4287
15453SOL    HW248898   7.891   0.043   0.486  1.0004 -0.5887 -0.7165
15454SOL     OW48899   3.673   1.715   9.868 -0.1941  0.1359  0.0186
15454SOL    HW148900   3.693   1.756   9.783  0.1310 -0.0272  0.0150
15454SOL    HW248901   3.578   1.705   9.868 -0.1276 -0.4991 -0.6125
15455SOL     OW48902   7.470   3.941   3.660 -0.3624 -0.2239 -0.2295
15455SOL    HW148903   7.465   3.847   3.674  0.7819 -0.5476 -1.8863
15455SOL    HW248904   7.562   3.958   3.638 -0.3338  1.4224  0.9812
15456SOL     OW48905   0.179   8.774   1.951  0.2570 -0.3889 -0.2962
15456SOL    HW148906   0.160   8.683   1.929  0.9647 -0.8516  0.9674
15456SOL    HW248907   0.267   8.772   1.988 -0.1349  0.6594  0.7014
15457SOL     OW48908   8.759   8.670   4.246  0.2430  0.2695 -0.6052
15457SOL    HW148909   8.829   8.693   4.307  0.0558 -1.6299  0.3410
15457SOL    HW248910   8.803   8.665   4.161  1.3011 -1.0106 -0.0081
15458SOL     OW48911   6.839   4.260   3.433 -0.1887  0.1871  0.1757
15458SOL    HW148912   6.879   4.338   3.473  0.4878  0.1487 -0.4245
15458SOL    HW248913   6.791   4.219   3.505  1.3104 -0.0792  1.0487
15459SOL     OW48914   6.867   7.122   9.546  0.6224 -0.0864  0.5641
15459SOL    HW148915   6.901   7.126   9.636 -2.5830  1.0571  1.7924
15459SOL    HW248916   6.822   7.038   9.541  0.2706  0.1208  0.2204
15460SOL     OW48917   8.974   9.080   6.994 -0.4844  0.1984 -0.4621
15460SOL    HW148918   9.013   8.999   7.026 -2.4594 -0.1354  1.2022
15460SOL    HW248919   9.028   9.150   7.032 -0.6366 -0.2809  0.6424
15461SOL     OW48920   5.970   9.245   5.788  0.4689 -0.6766  0.2026
15461SOL    HW148921   5.939   9.157   5.770  1.3082 -0.6727 -1.3712
15461SOL    HW248922   6.038   9.260   5.722  0.8839  0.8432  0.9584
15462SOL     OW48923   6.350   1.240   1.378 -0.7088  0.0250  0.1458
15462SOL    HW148924   6.294   1.252   1.455  0.6689 -1.5734  1.4117
15462SOL    HW248925   6.288   1.237   1.304 -2.1853 -0.3853  1.3736
15463SOL     OW48926   8.803   9.147   2.848 -0.0831  0.0640  0.0260
15463SOL    HW148927   8.764   9.234   2.856  2.2921  1.2734 -1.0263
15463SOL    HW248928   8.764   9.111   2.769 -1.9164 -0.2947  1.0744
15464SOL     OW48929   5.712   9.249   1.250  0.0211 -0.7433  0.3431
15464SOL    HW148930   5.803   9.235   1.225 -0.0678 -0.3273 -0.2253
15464SOL    HW248931   5.664   9.176   1.209  0.0139 -0.6219  0.1330
15465SOL     OW48932   7.826   3.836   1.651  0.3465  0.5631  0.5608
15465SOL    HW148933   7.898   3.899   1.650  2.1361 -1.4439  0.3681
15465SOL    HW248934   7.749   3.889   1.670  1.7806  2.8352  0.2729
15466SOL     OW48935   9.731  10.159   4.770  0.5894  0.2751 -0.8221
15466SOL    HW148936   9.732  10.255   4.768  1.1756  0.3348  1.2011
15466SOL    HW248937   9.713  10.134   4.680 -1.1518  2.3138 -1.0959
15467SOL     OW48938   5.885   7.921   4.868 -0.1934  0.0259  0.1501
15467SOL    HW148939   5.899   8.001   4.919 -0.5906 -0.0909  0.4430
15467SOL    HW248940   5.959   7.919   4.807 -0.3614  0.7869 -0.0866
15468SOL     OW48941   3.331  10.118   5.753 -0.6819 -0.3491  0.1321
15468SOL    HW148942   3.314  10.064   5.830  0.0831  0.9582  1.2531
15468SOL    HW248943   3.412  10.084   5.716 -0.1700  0.0354  0.8704
15469SOL     OW48944   5.104   1.744   2.471  0.2427  0.4191 -0.2870
15469SOL    HW148945   5.079   1.836   2.482  2.7604  1.3368 -2.0404
15469SOL    HW248946   5.110   1.710   2.561 -0.6585  1.9522  0.3750
15470SOL     OW48947   8.652   3.174   0.219 -0.0411  0.8113 -0.2207
15470SOL    HW148948   8.658   3.092   0.269  0.5199 -0.0898 -1.7371
15470SOL    HW248949   8.563   3.205   0.235 -0.7925 -0.9231 -0.8604
15471SOL     OW48950   5.419   8.962  10.026 -0.1144  0.2843  0.7533
15471SOL    HW148951   5.338   8.937  10.069  0.6885 -1.3393  1.3776
15471SOL    HW248952   5.411   8.929   9.937 -0.4319  0.7699  0.6005
15472SOL     OW48953   0.634   7.161   8.350  0.0856 -0.2509 -0.0974
15472SOL    HW148954   0.574   7.228   8.384 -0.0419 -0.8188  0.7974
15472SOL    HW248955   0.721   7.193   8.373 -0.0110 -0.7483  0.9855
15473SOL     OW48956   8.104   6.169   2.355  0.8088  0.6296 -0.1640
15473SOL    HW148957   8.116   6.165   2.261 -1.0335  0.8008 -0.4217
15473SOL    HW248958   8.166   6.105   2.390 -0.6573 -1.7391 -1.7103
15474SOL     OW48959   2.382   6.929   0.060 -0.2142  0.2542  0.1604
15474SOL    HW148960   2.471   6.960   0.039  0.6461 -2.1417  0.0765
15474SOL    HW248961   2.341   6.918  -0.026 -0.4358  0.8927  0.1812
15475SOL     OW48962   9.962   7.570   4.413  0.3598  0.5593  0.6188
15475SOL    HW148963   9.979   7.623   4.491 -1.4524 -1.2248  2.2977
15475SOL    HW248964   9.894   7.618   4.366 -0.2024  0.4898  1.3517
15476SOL     OW48965   9.995   7.553   4.833  0.3247 -0.0009  0.0060
15476SOL    HW148966  10.029   7.490   4.770 -0.2486  1.4195 -1.7610
15476SOL    HW248967   9.903   7.529   4.842  0.7515 -1.1477  1.4879
15477SOL     OW48968   1.577   8.188   2.835 -0.8715  0.0043  0.8229
15477SOL    HW148969   1.619   8.189   2.921 -0.8873  0.8066  0.8253
15477SOL    HW248970   1.502   8.129   2.845  0.3032 -1.5158  0.7917
15478SOL     OW48971   8.597   2.048   0.896 -0.6917 -0.0631 -0.2916
15478SOL    HW148972   8.590   2.075   0.805  0.4323 -1.7624 -0.9200
15478SOL    HW248973   8.685   2.076   0.923 -0.7807 -0.1220  0.0561
15479SOL     OW48974   1.389   8.200   0.818  0.0594 -0.1438 -0.1515
15479SOL    HW148975   1.468   8.180   0.868  0.3351  0.1905 -0.4593
15479SOL    HW248976   1.410   8.176   0.728  0.1602  0.9069 -0.4119
15480SOL     OW48977   8.655   8.655   4.949  0.4721 -0.1579 -0.2583
15480SOL    HW148978   8.619   8.575   4.911  1.8023 -0.3999 -1.0398
15480SOL    HW248979   8.578   8.706   4.975 -0.4292 -0.8437 -1.5082
15481SOL     OW48980   1.676   5.164   3.644  0.5609  0.6283  0.1148
15481SOL    HW148981   1.611   5.221   3.684  1.4939  1.3726  0.5843
15481SOL    HW248982   1.627   5.113   3.580 -0.3868  1.5597  0.0880
15482SOL     OW48983   0.319   3.443   9.830 -0.1175  0.2518 -0.7189
15482SOL    HW148984   0.325   3.414   9.739 -1.8049 -0.0781 -0.7474
15482SOL    HW248985   0.225   3.446   9.847  0.1384  1.9905  0.4841
15483SOL     OW48986   1.007   7.023   8.951 -0.0233 -1.0451 -0.9047
15483SOL    HW148987   1.024   6.945   9.004  0.5182 -0.1590  0.2786
15483SOL    HW248988   1.095   7.055   8.928 -0.2527 -1.0926 -1.8246
15484SOL     OW48989   1.227   8.361   5.472 -0.6368  0.6968  0.1822
15484SOL    HW148990   1.301   8.398   5.520 -0.2842  1.3028 -0.8194
15484SOL    HW248991   1.151   8.411   5.503 -0.2322  1.9429 -0.8132
15485SOL     OW48992   4.872   7.865   5.053 -0.5915  0.7783 -0.4653
15485SOL    HW148993   4.796   7.916   5.025 -1.9046 -0.4481  0.7469
15485SOL    HW248994   4.874   7.791   4.992 -1.7311 -0.3688  0.8527
15486SOL     OW48995   6.474   3.480   9.447 -0.1360 -0.4924 -0.4427
15486SOL    HW148996   6.568   3.492   9.464 -0.0013 -0.7872 -0.9774
15486SOL    HW248997   6.431   3.516   9.525  0.4670 -1.3759  0.3157
15487SOL     OW48998   5.979   9.157   0.390  0.5181 -0.6582  0.2317
15487SOL    HW148999   6.010   9.119   0.307 -0.0976 -0.4263 -0.1116
15487SOL    HW249000   5.965   9.249   0.370 -0.7519 -0.8273  0.2648
15488SOL     OW49001   2.410   9.646   0.354  0.3193 -0.2534 -0.5478
15488SOL    HW149002   2.337   9.650   0.292  0.4345  0.2045 -0.6558
15488SOL    HW249003   2.368   9.637   0.440  0.1270  0.2646 -0.5856
15489SOL     OW49004   4.245   1.249   0.485 -0.3736 -0.5084  0.1923
15489SOL    HW149005   4.192   1.183   0.441 -0.0125 -0.2859 -0.5849
15489SOL    HW249006   4.319   1.264   0.425 -0.2475  0.3010  0.5521
15490SOL     OW49007   5.812   1.609   2.731  0.0714 -0.2611  0.3188
15490SOL    HW149008   5.741   1.672   2.745 -0.6206 -1.2322  1.2095
15490SOL    HW249009   5.769   1.532   2.693  0.7315 -0.6516  0.3623
15491SOL     OW49010   2.344   7.583   9.215 -0.3747  0.4666 -0.2310
15491SOL    HW149011   2.401   7.547   9.283  0.7925 -0.5031 -1.7018
15491SOL    HW249012   2.348   7.678   9.229 -0.6636  0.2452  1.4464
15492SOL     OW49013   3.679   8.248   5.103 -0.0511 -0.2711  0.0214
15492SOL    HW149014   3.729   8.214   5.177  0.7532 -0.5102 -0.6330
15492SOL    HW249015   3.588   8.227   5.124  0.3783 -2.2695 -0.0794
15493SOL     OW49016  10.012   3.626   7.142  0.0325  0.4680 -0.6809
15493SOL    HW149017  10.099   3.663   7.132 -0.1827  0.7959 -1.3654
15493SOL    HW249018   9.971   3.679   7.211  1.1725 -1.1706  1.3156
15494SOL     OW49019   8.079   4.903   7.176  0.0849 -0.4810 -0.1918
15494SOL    HW149020   8.027   4.940   7.104  0.4335 -4.2552 -2.5566
15494SOL    HW249021   8.015   4.857   7.231 -0.0111  1.3444  1.2695
15495SOL     OW49022   2.997   0.026   1.357  0.8056  0.1067  0.0567
15495SOL    HW149023   2.910   0.064   1.348  0.9625  0.5812  0.5787
15495SOL    HW249024   3.040   0.078   1.425  1.0586 -0.9201  0.6926
15496SOL     OW49025   3.728   2.306   2.963 -0.1608  0.1934  0.5858
15496SOL    HW149026   3.808   2.340   2.924 -0.1107 -1.6046 -0.9848
15496SOL    HW249027   3.759   2.250   3.035  0.0992 -1.3193 -0.6584
15497SOL     OW49028   8.624   0.940   8.654 -0.0215 -0.1729 -0.1999
15497SOL    HW149029   8.579   1.001   8.596 -3.3427 -2.0843  0.2093
15497SOL    HW249030   8.681   0.889   8.596 -0.8379  0.1375 -1.2888
15498SOL     OW49031   6.112   9.301   1.517  0.3332 -0.5770  0.0760
15498SOL    HW149032   6.074   9.219   1.550 -0.0163  0.2359  1.7034
15498SOL    HW249033   6.168   9.273   1.444 -0.0243 -2.2363  0.4185
15499SOL     OW49034   2.101   9.240   5.658 -0.2649  0.0147 -0.3808
15499SOL    HW149035   2.113   9.145   5.654 -2.8620 -0.3648 -0.4208
15499SOL    HW249036   2.047   9.254   5.736  0.8257  1.5421  0.1119
15500SOL     OW49037   7.762   6.080   5.469 -0.8915  0.6406  0.1810
15500SOL    HW149038   7.847   6.047   5.498 -0.4922  1.7014  0.2346
15500SOL    HW249039   7.766   6.075   5.374 -1.4194 -0.9076  0.2349
15501SOL     OW49040   1.104   7.189   6.149 -0.1318 -0.1060 -0.1737
15501SOL    HW149041   1.094   7.248   6.223 -0.6341  0.7129 -0.8803
15501SOL    HW249042   1.105   7.246   6.072  3.3309 -0.7122 -0.6336
15502SOL     OW49043   6.935   2.404   3.691 -0.2245  0.7507  0.1582
15502SOL    HW149044   6.989   2.325   3.689  2.3397  2.4194  0.5233
15502SOL    HW249045   6.860   2.380   3.746  0.5806 -1.3633  0.4007
15503SOL     OW49046   9.507   7.797   7.684 -0.0246  0.5548  0.3979
15503SOL    HW149047   9.424   7.798   7.636  0.3360 -1.8600 -0.3962
15503SOL    HW249048   9.482   7.782   7.775 -0.4553 -0.5506  0.1080
15504SOL     OW49049   2.929   2.995   6.217 -0.0923  0.4028 -0.2180
15504SOL    HW149050   2.943   2.900   6.225  1.2607  0.7496  2.3248
15504SOL    HW249051   2.881   3.018   6.297  0.0940  1.9468 -0.5524
15505SOL     OW49052   5.096   9.694   4.936  0.2020 -0.0211  0.5378
15505SOL    HW149053   5.162   9.759   4.915  0.7250 -0.3024  1.2835
15505SOL    HW249054   5.070   9.657   4.852 -0.2801  1.3196  0.0891
15506SOL     OW49055   3.510   2.135   0.979  0.0516 -0.3431 -0.0827
15506SOL    HW149056   3.444   2.066   0.979 -2.2509  1.7815  1.3237
15506SOL    HW249057   3.480   2.197   0.912  0.8834  0.3888  0.2085
15507SOL     OW49058   7.532   8.694   3.572  0.1856 -0.6595  0.0664
15507SOL    HW149059   7.453   8.693   3.625 -0.7084 -1.8948 -1.2377
15507SOL    HW249060   7.508   8.742   3.493  1.8525  2.2122  1.2370
15508SOL     OW49061   2.210   1.182   7.656  0.1509 -0.1045 -0.1354
15508SOL    HW149062   2.238   1.203   7.745 -0.7401 -0.4236  0.2208
15508SOL    HW249063   2.129   1.132   7.666  0.8247 -1.4480 -1.0712
15509SOL     OW49064   6.149   0.254   3.902 -0.5005  0.1831  0.2765
15509SOL    HW149065   6.094   0.177   3.918 -0.9269  0.3792 -0.2345
15509SOL    HW249066   6.112   0.294   3.824  0.0032  0.6558  0.2778
15510SOL     OW49067   1.767   8.565   1.028 -0.9411 -0.0917  0.0710
15510SOL    HW149068   1.737   8.627   1.095 -0.2491  0.8484 -0.4621
15510SOL    HW249069   1.744   8.479   1.061 -0.1398  0.3272  1.7726
15511SOL     OW49070   4.471   1.656   6.243 -0.0248 -0.2160  0.6038
15511SOL    HW149071   4.382   1.635   6.217  0.2605  0.1652 -0.7111
15511SOL    HW249072   4.514   1.572   6.256  0.4376 -0.4666 -2.2861
15512SOL     OW49073   4.386   4.779   5.811 -0.4048 -0.6826  0.1445
15512SOL    HW149074   4.337   4.748   5.887  0.5167 -0.0748  0.9881
15512SOL    HW249075   4.465   4.724   5.809 -1.0273 -1.5655 -1.1315
15513SOL     OW49076   6.576   6.823   4.265  0.5785 -0.4923  0.0966
15513SOL    HW149077   6.528   6.765   4.324  1.0710 -0.8397  0.1513
15513SOL    HW249078   6.665   6.824   4.299  0.5810  0.2848  0.0886
15514SOL     OW49079   0.693   1.090   9.395  0.0354 -0.5421  0.2639
15514SOL    HW149080   0.703   1.101   9.489  1.1817 -0.1308  0.1050
15514SOL    HW249081   0.604   1.119   9.377 -0.4287 -1.2776  1.3114
15515SOL     OW49082   1.369   5.188   1.986  0.0768 -0.1364  0.1306
15515SOL    HW149083   1.363   5.130   2.061  1.1198  2.8268  2.6215
15515SOL    HW249084   1.450   5.161   1.941  0.6090 -0.5422  1.3181
15516SOL     OW49085   6.206   2.590   1.707  0.0357 -0.5589 -0.0535
15516SOL    HW149086   6.271   2.616   1.642 -0.4890  2.0331  0.4297
15516SOL    HW249087   6.253   2.594   1.790  0.3725 -2.7275 -0.1002
15517SOL     OW49088   9.665   0.537   7.035  0.1141  0.4128  0.3210
15517SOL    HW149089   9.687   0.613   6.981 -1.2973  0.7533  0.2295
15517SOL    HW249090   9.684   0.565   7.124 -1.2298  1.1731  0.3714
15518SOL     OW49091   9.556   4.266   2.709 -0.3401  0.3707 -0.5402
15518SOL    HW149092   9.490   4.311   2.762 -0.0552  1.3498 -0.9903
15518SOL    HW249093   9.632   4.257   2.767  0.0919  1.7470 -0.8599
15519SOL     OW49094   9.363   2.293   9.434 -0.5915  0.1147  0.1911
15519SOL    HW149095   9.397   2.310   9.346 -1.5512  0.2788 -0.1451
15519SOL    HW249096   9.268   2.299   9.426 -0.6985 -0.0562  1.2016
15520SOL     OW49097   5.242   2.453   3.279 -0.1700 -0.3706  0.2966
15520SOL    HW149098   5.280   2.413   3.201 -0.2439  0.3827 -0.1287
15520SOL    HW249099   5.295   2.531   3.296 -0.5358 -0.1870  0.6290
15521SOL     OW49100   3.600   2.077   5.921  0.3122 -0.0410 -0.0783
15521SOL    HW149101   3.694   2.060   5.922  0.5474  1.2860  1.2505
15521SOL    HW249102   3.574   2.064   5.829  1.5665 -1.4833 -0.2485
15522SOL     OW49103   4.811   5.925   7.171 -0.1764  0.3573  0.1402
15522SOL    HW149104   4.803   6.009   7.216  2.2642  1.0062 -0.5721
15522SOL    HW249105   4.762   5.863   7.226  1.4577  1.4180  2.8966
15523SOL     OW49106   6.218   0.568   6.969 -0.4286 -0.2419  0.1085
15523SOL    HW149107   6.244   0.538   7.057  1.9167  0.8400 -0.1969
15523SOL    HW249108   6.300   0.576   6.921 -1.6200  0.1469 -1.8966
15524SOL     OW49109   7.957   2.382   4.337 -0.8028  0.3859  0.1498
15524SOL    HW149110   7.886   2.443   4.359 -1.5841 -0.4914  0.1179
15524SOL    HW249111   7.912   2.305   4.304  0.2194  0.2352 -0.9442
15525SOL     OW49112   4.138   7.490   0.332  0.2588  0.4102  0.2065
15525SOL    HW149113   4.068   7.555   0.342  0.0886  0.3803 -0.7231
15525SOL    HW249114   4.092   7.408   0.316  0.5036  0.3758 -0.3326
15526SOL     OW49115   1.017   3.676   7.914 -0.0453  0.1617  0.8008
15526SOL    HW149116   1.094   3.620   7.907  1.9435  2.8315  0.5450
15526SOL    HW249117   1.002   3.683   8.008 -0.4822 -1.0236  0.8236
15527SOL     OW49118   9.372   8.463   3.560 -0.2924  0.1618 -0.3715
15527SOL    HW149119   9.383   8.543   3.612 -0.3045 -0.7738  1.0946
15527SOL    HW249120   9.444   8.407   3.587 -1.6049 -1.2263  0.3454
15528SOL     OW49121   3.392   5.687   9.533  0.3493 -0.8844 -0.1568
15528SOL    HW149122   3.477   5.689   9.579  0.8040 -0.5536 -1.0074
15528SOL    HW249123   3.398   5.611   9.476  0.3810 -0.3968 -0.8036
15529SOL     OW49124   5.754   2.872   2.722 -0.0103  0.2094  0.6937
15529SOL    HW149125   5.788   2.923   2.649 -1.2664  1.6726  1.1047
15529SOL    HW249126   5.751   2.934   2.795 -1.0436 -0.5908  1.3393
15530SOL     OW49127   5.389   3.709   1.549  0.1317  0.7633 -0.7457
15530SOL    HW149128   5.357   3.619   1.542  3.2186 -0.3372 -1.3023
15530SOL    HW249129   5.384   3.729   1.642 -1.2059  0.2923 -0.6991
15531SOL     OW49130   9.679   6.907   0.660 -0.3574  0.4804  0.6839
15531SOL    HW149131   9.676   6.816   0.630  0.6942  0.7407 -0.2366
15531SOL    HW249132   9.603   6.948   0.618  0.4398  0.5558 -0.7388
15532SOL     OW49133   7.428   2.829   1.804  0.6609  0.3708 -1.0616
15532SOL    HW149134   7.432   2.806   1.897  0.7942 -1.1442 -1.4310
15532SOL    HW249135   7.335   2.819   1.781  0.9123 -0.9391 -1.5086
15533SOL     OW49136   2.881   9.385   8.471  0.2181 -0.6066 -0.3620
15533SOL    HW149137   2.792   9.416   8.452 -0.3100 -0.7661  1.7358
15533SOL    HW249138   2.919   9.452   8.527  0.7110 -1.4977  0.3945
15534SOL     OW49139   3.026   4.840  10.115  0.3079  0.1852 -0.0818
15534SOL    HW149140   2.942   4.812  10.078  0.1684  1.8729 -1.0835
15534SOL    HW249141   3.021   4.936  10.116  1.0371  0.2454  2.6363
15535SOL     OW49142   8.689   7.458   3.919  0.6420  0.5781  0.4265
15535SOL    HW149143   8.762   7.494   3.869  2.0470 -0.4207  1.6675
15535SOL    HW249144   8.629   7.422   3.853  2.3626 -0.5590 -0.5552
15536SOL     OW49145   5.417   7.137   8.395  0.3362 -0.2349 -0.1633
15536SOL    HW149146   5.463   7.054   8.407  0.7955 -0.0020 -0.2844
15536SOL    HW249147   5.446   7.191   8.469  1.2455  0.3485 -0.9346
15537SOL     OW49148   7.130   9.623   3.507  0.1369 -0.7314 -0.3167
15537SOL    HW149149   7.114   9.713   3.479  0.1390 -0.7943 -0.5204
15537SOL    HW249150   7.045   9.591   3.537  0.1982 -0.5658  0.0332
15538SOL     OW49151   6.266   3.793   5.164  0.5443 -0.5322 -0.1692
15538SOL    HW149152   6.234   3.877   5.199 -0.8609 -0.6255 -1.1742
15538SOL    HW249153   6.359   3.793   5.185  0.5481  1.2399 -0.0433
15539SOL     OW49154   2.885   5.190   7.124 -0.1538 -0.5139  0.4428
15539SOL    HW149155   2.975   5.165   7.146 -0.6202 -2.5317  0.1579
15539SOL    HW249156   2.858   5.248   7.195  1.7111  0.9873  0.0019
15540SOL     OW49157   7.337   9.953   3.057  0.4403  0.4926 -0.3592
15540SOL    HW149158   7.287  10.006   2.995  0.7922 -0.2739 -1.3093
15540SOL    HW249159   7.384  10.018   3.110  2.2013  1.1514 -2.6214
15541SOL     OW49160   4.559   4.529   4.167 -0.7456 -0.3499  0.2193
15541SOL    HW149161   4.529   4.611   4.127 -0.8469 -0.0292  0.9473
15541SOL    HW249162   4.635   4.504   4.115 -0.3145  0.5566  0.4032
15542SOL     OW49163   0.714   3.825   3.326  0.3899  0.7692 -0.0351
15542SOL    HW149164   0.634   3.851   3.372  0.5084  2.0500 -0.5171
15542SOL    HW249165   0.781   3.883   3.360  0.7837  0.7334 -0.7407
15543SOL     OW49166   0.637   6.726   3.418  0.0375 -0.4415  0.2898
15543SOL    HW149167   0.614   6.818   3.426 -0.6921 -0.5151 -0.7614
15543SOL    HW249168   0.552   6.681   3.420  0.2316 -0.9121 -1.3453
15544SOL     OW49169   0.054   6.323   7.464 -0.0212  0.4922 -0.0341
15544SOL    HW149170  -0.034   6.298   7.488 -0.2777  0.0469 -1.3719
15544SOL    HW249171   0.048   6.416   7.443  0.0155  0.6660  0.7144
15545SOL     OW49172   8.165   1.385   8.801 -0.3639  0.7908  0.1964
15545SOL    HW149173   8.136   1.300   8.834 -1.4124  1.8840  2.1760
15545SOL    HW249174   8.251   1.369   8.764  0.5446 -0.6503  2.8453
15546SOL     OW49175   7.683   2.174   7.447  0.2938 -0.2789 -0.7829
15546SOL    HW149176   7.627   2.163   7.524 -0.3590 -2.2688 -1.5023
15546SOL    HW249177   7.709   2.085   7.423  2.4581  0.4984 -1.4391
15547SOL     OW49178   0.670   0.684   1.216 -0.1191  0.3568  0.1171
15547SOL    HW149179   0.760   0.708   1.195 -0.0176 -2.2062 -2.6786
15547SOL    HW249180   0.678   0.606   1.271 -0.6010 -0.7321 -1.3131
15548SOL     OW49181   3.350   6.742   9.393  0.0744 -0.4409  0.6999
15548SOL    HW149182   3.260   6.754   9.362  1.1758 -0.3524 -2.6539
15548SOL    HW249183   3.371   6.825   9.436 -1.0154  0.0345  0.3574
15549SOL     OW49184   3.733   5.595   1.384  0.2408  0.1777  0.6041
15549SOL    HW149185   3.725   5.609   1.289  1.3655  1.0313  0.6221
15549SOL    HW249186   3.663   5.534   1.405  0.3479 -0.4766 -0.8775
15550SOL     OW49187   5.538   3.901  10.010 -0.1107 -0.4173  0.3225
15550SOL    HW149188   5.558   3.808  10.023 -0.5861 -0.7539 -1.2463
15550SOL    HW249189   5.443   3.903   9.992  0.0164  0.2825 -0.3124
15551SOL     OW49190   2.030   2.305   1.088 -0.5537 -0.0261 -0.5679
15551SOL    HW149191   1.985   2.326   1.170  1.3429 -0.1313  0.5239
15551SOL    HW249192   2.055   2.213   1.097 -0.5622 -0.1149 -1.3877
15552SOL     OW49193   1.106   9.525   5.547 -0.4096 -0.2285  0.8088
15552SOL    HW149194   1.124   9.593   5.611  0.3746 -0.8554  1.2696
15552SOL    HW249195   1.155   9.449   5.578 -1.6712 -1.1597  0.5764
15553SOL     OW49196   3.492  10.137   4.338  0.4360  0.1982 -0.2225
15553SOL    HW149197   3.445  10.103   4.414 -2.1176 -1.1961 -2.3398
15553SOL    HW249198   3.424  10.178   4.284  2.4971  2.9333 -0.8364
15554SOL     OW49199   4.404   2.195   5.237 -0.2673  0.0063 -0.4353
15554SOL    HW149200   4.400   2.224   5.329  0.7468  1.4103 -0.8129
15554SOL    HW249201   4.318   2.218   5.201  1.1836  4.5296 -1.2585
15555SOL     OW49202   6.966   7.125   9.793  0.1806 -0.6904 -0.7283
15555SOL    HW149203   6.959   7.195   9.858 -1.0760 -2.3062  0.9146
15555SOL    HW249204   7.044   7.076   9.818  0.6137 -0.3584 -1.4143
15556SOL     OW49205   0.876   0.034   8.378 -0.0301 -0.5606 -0.1924
15556SOL    HW149206   0.891   0.106   8.439 -2.6267 -0.0333 -0.1342
15556SOL    HW249207   0.867  -0.043   8.434 -0.9632 -0.3105  0.0168
15557SOL     OW49208   6.254   9.741   3.454  0.3752 -0.5801  0.2935
15557SOL    HW149209   6.255   9.805   3.524 -1.1794  0.3458 -0.5139
15557SOL    HW249210   6.293   9.662   3.493  1.6590  0.6250  1.4861
15558SOL     OW49211   0.991   2.772   2.853  0.1974 -0.7212  0.4610
15558SOL    HW149212   1.022   2.772   2.944 -0.7249  1.0456  0.8069
15558SOL    HW249213   0.986   2.679   2.829  0.4271 -1.2090  2.2297
15559SOL     OW49214   8.571   8.803   8.551  0.1207 -0.8251 -0.7853
15559SOL    HW149215   8.591   8.875   8.611  1.4426 -0.4653 -1.6245
15559SOL    HW249216   8.476   8.801   8.546 -0.0348 -1.1622  1.6646
15560SOL     OW49217   6.276   2.343   3.910  0.3762  0.0861  0.0736
15560SOL    HW149218   6.190   2.311   3.936 -0.1432  1.5512  0.1858
15560SOL    HW249219   6.281   2.324   3.816 -0.0908  0.0556  0.0567
15561SOL     OW49220   8.198   2.690   4.823  0.1567 -0.1271  0.2822
15561SOL    HW149221   8.108   2.696   4.791 -0.1327  1.7763  1.3956
15561SOL    HW249222   8.190   2.699   4.918  1.7917  3.6020  0.1467
15562SOL     OW49223   2.793   4.003   4.421  0.8334  0.5790  0.0428
15562SOL    HW149224   2.830   4.029   4.336 -3.6563 -1.0894 -2.5545
15562SOL    HW249225   2.748   4.082   4.452  0.1846  0.3862 -0.4160
15563SOL     OW49226   9.549   6.182   6.048 -0.2399  0.1833  0.4975
15563SOL    HW149227   9.608   6.112   6.020  0.8228  0.5839  1.7136
15563SOL    HW249228   9.544   6.173   6.143 -1.4120  0.7334  0.5000
15564SOL     OW49229   3.478   2.699   7.246 -0.0703 -0.0579  0.4054
15564SOL    HW149230   3.561   2.686   7.201  0.0387 -0.3758  0.6926
15564SOL    HW249231   3.433   2.766   7.195  1.0154  1.2660  1.1441
15565SOL     OW49232   8.407   3.367   8.952 -0.2889 -0.6375 -0.4204
15565SOL    HW149233   8.353   3.372   8.873  0.5900  0.7360 -0.9504
15565SOL    HW249234   8.488   3.325   8.922 -0.0659 -0.3796 -0.1750
15566SOL     OW49235   9.323   3.746   0.908 -0.6500 -0.4653 -0.2879
15566SOL    HW149236   9.300   3.821   0.853 -0.0564 -1.0340 -1.3285
15566SOL    HW249237   9.281   3.671   0.866  0.0263 -0.9455 -0.1199
15567SOL     OW49238   2.500   7.760   0.760  0.6236 -0.3745  0.2172
15567SOL    HW149239   2.588   7.797   0.773  0.9204 -1.7268  2.3140
15567SOL    HW249240   2.446   7.835   0.734  1.7790  1.0590  1.8384
15568SOL     OW49241   7.063   8.536   6.829  0.3627 -0.1060 -0.1693
15568SOL    HW149242   7.142   8.486   6.807 -1.3394 -2.5791 -0.8655
15568SOL    HW249243   7.002   8.516   6.758 -1.1125  1.2584  0.6971
15569SOL     OW49244   8.841   1.547   3.615 -0.6117 -0.5940  0.4487
15569SOL    HW149245   8.790   1.559   3.695  0.8374 -1.6626  1.5685
15569SOL    HW249246   8.928   1.522   3.646  0.3160  0.2025 -1.4454
15570SOL     OW49247   5.038   8.214   4.423 -0.3056 -0.2281 -0.3016
15570SOL    HW149248   4.974   8.273   4.464  0.2149  0.1346 -0.0142
15570SOL    HW249249   5.116   8.268   4.410 -0.0772 -0.6543 -0.7216
15571SOL     OW49250   9.487   9.634   0.770  0.1626  0.1133  0.2620
15571SOL    HW149251   9.445   9.684   0.839 -1.6688  0.7831 -1.3041
15571SOL    HW249252   9.417   9.615   0.707  1.2587 -2.6343 -0.1975
15572SOL     OW49253   7.061   5.576   3.340  0.5885  0.5739  0.2078
15572SOL    HW149254   7.000   5.580   3.267 -0.9916  2.4736  1.6108
15572SOL    HW249255   7.007   5.588   3.418  2.5037  0.5080  1.5829
15573SOL     OW49256   5.985   7.577   6.609  0.2364 -0.3687 -0.2552
15573SOL    HW149257   5.994   7.541   6.697  0.0473 -0.7624 -0.3947
15573SOL    HW249258   5.897   7.615   6.608  0.6729  0.6523  0.0900
15574SOL     OW49259   9.643   1.993   0.577  0.3318 -0.1908  0.3740
15574SOL    HW149260   9.618   1.981   0.668  1.0181  0.0641  0.5947
15574SOL    HW249261   9.559   2.000   0.530 -0.0494 -1.4943  0.8168
15575SOL     OW49262   6.343   6.249   0.044  0.3111 -0.3788 -0.3443
15575SOL    HW149263   6.438   6.241   0.035  0.2110 -1.3513 -0.6613
15575SOL    HW249264   6.325   6.342   0.031  1.3373  0.0129  0.8685
15576SOL     OW49265   7.422   0.038   6.061 -0.1222  0.2952 -0.0695
15576SOL    HW149266   7.474   0.112   6.095  0.5319 -1.0021  1.7942
15576SOL    HW249267   7.474  -0.039   6.083 -1.8158 -0.8709 -0.1606
15577SOL     OW49268   7.544   5.445   4.210 -0.3171  0.1150  1.1514
15577SOL    HW149269   7.498   5.471   4.130  0.2141 -1.3288  0.3530
15577SOL    HW249270   7.619   5.503   4.216  0.2473 -0.4981 -0.0010
15578SOL     OW49271   3.888   9.002   8.221  0.0608 -0.6141 -0.2928
15578SOL    HW149272   3.920   9.029   8.307 -1.1066 -0.3080  0.0524
15578SOL    HW249273   3.909   8.908   8.215 -0.7339 -0.8614  0.7345
15579SOL     OW49274   5.765   6.836   7.270  0.2143 -0.0537  0.2973
15579SOL    HW149275   5.855   6.821   7.238 -0.1455 -1.7749  0.0346
15579SOL    HW249276   5.719   6.870   7.193  0.5453  0.4773  0.3288
15580SOL     OW49277   7.448   2.352   4.407 -0.2969 -0.0081  0.0702
15580SOL    HW149278   7.368   2.305   4.383 -0.1777 -0.1741  0.0001
15580SOL    HW249279   7.465   2.411   4.333 -0.9872  0.8479  0.5857
15581SOL     OW49280   5.947   3.943   4.259  0.6620  0.5497  0.7170
15581SOL    HW149281   5.925   3.874   4.321 -0.8536  0.2575 -0.1238
15581SOL    HW249282   5.944   3.900   4.173  1.3388  1.2762  0.3182
15582SOL     OW49283   3.071   9.117   6.277  0.1228 -0.4355 -0.3388
15582SOL    HW149284   3.053   9.205   6.244  3.3677  0.8080  1.0158
15582SOL    HW249285   3.007   9.103   6.347 -0.0558  1.0622 -0.2009
15583SOL     OW49286   1.430   4.426   5.600 -0.1754  0.3646  0.1776
15583SOL    HW149287   1.418   4.521   5.595  0.3828  0.5275  1.5408
15583SOL    HW249288   1.387   4.391   5.522  1.3686  1.8934 -1.3891
15584SOL     OW49289   1.559   2.175   9.614 -0.3322 -0.5530  0.3547
15584SOL    HW149290   1.469   2.151   9.592  0.0638 -0.4930 -1.3620
15584SOL    HW249291   1.605   2.092   9.620 -0.0432 -0.4796 -0.8094
15585SOL     OW49292   8.864   6.704   5.541 -0.4607 -0.0717  0.5690
15585SOL    HW149293   8.940   6.762   5.538  1.0218 -1.9247  1.5562
15585SOL    HW249294   8.859   6.676   5.632 -2.1290 -0.2436  0.4278
15586SOL     OW49295   4.355   4.669   1.792  0.2465  0.2098 -0.2597
15586SOL    HW149296   4.267   4.706   1.805 -0.2553 -0.2458 -2.2538
15586SOL    HW249297   4.374   4.624   1.874 -0.9730  1.1448  0.5536
15587SOL     OW49298   5.111   4.535   0.953 -0.0245 -0.1663  0.0017
15587SOL    HW149299   5.080   4.574   1.035  1.6165 -0.3454  0.7306
15587SOL    HW249300   5.101   4.605   0.888  1.8377  1.1491  1.0638
15588SOL     OW49301   3.444   6.957   9.587 -0.3385  0.0907 -0.1585
15588SOL    HW149302   3.528   6.939   9.629 -0.3947  1.8735  0.7400
15588SOL    HW249303   3.382   6.963   9.659 -1.1651 -0.7112 -0.7840
15589SOL     OW49304   3.436   3.500   2.169 -0.4902  0.8424 -0.5336
15589SOL    HW149305   3.424   3.544   2.254  3.0726 -0.6978  0.8791
15589SOL    HW249306   3.407   3.410   2.185 -1.2549  0.9272 -1.4255
15590SOL     OW49307   5.042   9.151  10.044 -0.6491 -0.4122  0.0246
15590SOL    HW149308   5.131   9.186  10.054  0.1828 -2.2803 -0.6546
15590SOL    HW249309   5.010   9.140  10.134  0.0438 -0.3457  0.2821
15591SOL     OW49310   9.044   7.285   5.160  0.0746 -0.4978 -0.1946
15591SOL    HW149311   9.127   7.237   5.153  0.1021 -1.0903  3.0988
15591SOL    HW249312   9.070   7.375   5.176  0.1416 -0.8799  1.9910
15592SOL     OW49313   0.285   4.748   2.065 -0.0500  0.4373  0.2214
15592SOL    HW149314   0.270   4.654   2.077  0.5573  0.2501 -0.4884
15592SOL    HW249315   0.290   4.760   1.970  0.8873  1.0263  0.3410
15593SOL     OW49316   5.895   5.685   5.751  0.2822 -0.4403  0.5126
15593SOL    HW149317   5.913   5.747   5.680 -1.8203 -1.4471 -0.9573
15593SOL    HW249318   5.895   5.599   5.708 -2.5214 -0.9418  1.4126
15594SOL     OW49319   0.803   0.740   3.815 -0.4743  0.4236 -0.0618
15594SOL    HW149320   0.738   0.809   3.827  0.0396  0.9575 -0.2932
15594SOL    HW249321   0.856   0.744   3.895  0.5351  1.3590 -0.7734
15595SOL     OW49322   1.916   3.492   5.654  0.2564  0.0548 -0.0926
15595SOL    HW149323   1.900   3.409   5.700 -1.5126  0.3067 -0.1946
15595SOL    HW249324   2.011   3.499   5.648  0.4362 -1.5768  0.6367
15596SOL     OW49325   8.776   9.443   4.278 -0.1376 -0.6358 -0.1973
15596SOL    HW149326   8.760   9.498   4.354  1.4800 -1.5187  0.8104
15596SOL    HW249327   8.792   9.356   4.315  0.9973 -1.0022 -1.5240
15597SOL     OW49328   2.626   3.528   6.997  0.1394 -0.1504  0.2010
15597SOL    HW149329   2.651   3.487   7.080 -0.3162  1.0895  0.9438
15597SOL    HW249330   2.532   3.541   7.003 -0.0384 -0.8439 -0.8696
15598SOL     OW49331   7.323   3.618   3.282 -0.7487 -0.3048  0.0862
15598SOL    HW149332   7.383   3.647   3.213 -0.8841  1.2224  0.5822
15598SOL    HW249333   7.237   3.614   3.239 -1.1441  2.3125  0.5309
15599SOL     OW49334  10.029   0.598   7.657 -0.4234 -0.1413 -0.0477
15599SOL    HW149335   9.979   0.519   7.676 -0.3682 -0.7376 -2.1959
15599SOL    HW249336   9.963   0.662   7.630 -0.4762  0.5986  1.7839
15600SOL     OW49337   3.438   3.028   5.338  0.1653  0.1884  0.1673
15600SOL    HW149338   3.382   3.078   5.398 -0.9090  1.2284 -1.6608
15600SOL    HW249339   3.484   3.095   5.287  0.4262 -0.6935 -0.7668
15601SOL     OW49340   2.598   6.194   5.291  0.5655 -0.2290  0.1702
15601SOL    HW149341   2.677   6.184   5.344  1.3813  3.6732 -0.1312
15601SOL    HW249342   2.533   6.139   5.335  3.0775 -2.5563  1.1311
15602SOL     OW49343   7.221   9.590   9.306 -0.4508 -0.4227 -0.3207
15602SOL    HW149344   7.201   9.510   9.257 -0.1546 -1.9198  1.9657
15602SOL    HW249345   7.206   9.567   9.397 -1.4604  2.4842  0.2871
15603SOL     OW49346   9.508   4.914   5.201  0.1789  0.0156 -0.0785
15603SOL    HW149347   9.538   4.998   5.166  1.3119 -0.5068 -0.4019
15603SOL    HW249348   9.582   4.855   5.186  0.9987 -0.0955  3.7772
15604SOL     OW49349   1.699   2.642   1.025 -0.6778  0.3135 -0.0691
15604SOL    HW149350   1.750   2.680   1.098  0.4104 -0.3148 -0.4846
15604SOL    HW249351   1.632   2.707   1.007 -0.2198  1.0255  0.7181
15605SOL     OW49352   6.029   7.056   1.786 -0.2012 -0.0618 -0.4953
15605SOL    HW149353   5.998   7.046   1.696 -0.8771 -0.2815 -0.2418
15605SOL    HW249354   5.950   7.057   1.839  0.1075  1.6171 -0.0304
15606SOL     OW49355   4.909   7.656   1.755  0.0627  0.4559 -0.1946
15606SOL    HW149356   4.818   7.683   1.742  0.1107 -0.4892 -2.6882
15606SOL    HW249357   4.933   7.692   1.841 -3.4712 -1.4794  1.7029
15607SOL     OW49358   4.444   8.734   2.389  0.4638 -0.4336  0.3476
15607SOL    HW149359   4.371   8.673   2.398 -0.9603  1.3376  1.1845
15607SOL    HW249360   4.480   8.741   2.478  1.7562 -1.4025 -0.0876
15608SOL     OW49361   0.407   7.185   3.342  0.0081 -0.0467 -0.4365
15608SOL    HW149362   0.322   7.228   3.342 -0.0030 -0.0547 -1.0911
15608SOL    HW249363   0.419   7.157   3.251  0.0818 -1.3033 -0.0464
15609SOL     OW49364   1.645   2.502   7.651 -0.0015  0.0134 -0.5081
15609SOL    HW149365   1.627   2.594   7.637 -0.4710  0.1338  0.7829
15609SOL    HW249366   1.708   2.500   7.723 -0.8671 -0.6969  0.2485
15610SOL     OW49367   1.876   6.824   9.878  0.2029 -0.7585  0.1463
15610SOL    HW149368   1.803   6.865   9.831  0.8389  0.2574  0.0245
15610SOL    HW249369   1.856   6.839   9.971  1.6131  2.0101  0.0740
15611SOL     OW49370   4.138   3.731   9.341  0.3004  0.4866  0.3770
15611SOL    HW149371   4.096   3.705   9.259  1.1170 -0.5529  0.2727
15611SOL    HW249372   4.185   3.812   9.319  0.6088  0.1532 -0.2142
15612SOL     OW49373   8.200   4.761   4.302  0.3092 -0.0766 -0.3462
15612SOL    HW149374   8.186   4.855   4.316  0.9129 -0.1745  0.9964
15612SOL    HW249375   8.290   4.747   4.330 -0.0803 -1.2319  0.3316
15613SOL     OW49376   6.462   4.618   8.209  0.0209  0.0307 -0.4840
15613SOL    HW149377   6.525   4.554   8.175 -0.1807  1.1616 -3.0796
15613SOL    HW249378   6.487   4.700   8.168 -0.4544  1.4198  1.9272
15614SOL     OW49379   1.069   1.360   9.454  0.1235 -0.2930  0.2517
15614SOL    HW149380   1.147   1.348   9.400 -1.1555 -0.5562 -1.5619
15614SOL    HW249381   1.048   1.272   9.486 -0.2200 -0.4350 -0.3660
15615SOL     OW49382   5.645   9.938   2.998 -0.0983 -0.0862 -0.5318
15615SOL    HW149383   5.684   9.896   3.075 -0.8451  1.5832  0.7619
15615SOL    HW249384   5.712   9.999   2.968 -0.4651  0.4585 -0.2320
15616SOL     OW49385   6.929   8.641   5.089  0.6071  0.3511  0.4885
15616SOL    HW149386   6.996   8.633   5.158  3.4661  1.1901 -2.0664
15616SOL    HW249387   6.967   8.703   5.026 -2.3962  0.4521 -1.3124
15617SOL     OW49388   3.011   4.219   8.785 -0.0330  0.3052  0.4092
15617SOL    HW149389   2.974   4.133   8.765  0.1716  0.7928 -2.3671
15617SOL    HW249390   3.012   4.264   8.700  3.3845  1.6605  1.1006
15618SOL     OW49391   9.666   7.027   5.568 -0.0380 -0.2297 -0.0072
15618SOL    HW149392   9.699   7.032   5.478 -0.9136  0.0379 -0.3267
15618SOL    HW249393   9.573   7.008   5.558 -0.2043  0.1051  0.8395
15619SOL     OW49394   1.106   4.994   0.950  0.5669 -0.1873  0.2893
15619SOL    HW149395   1.079   5.007   1.041 -0.0637  1.2343 -0.0797
15619SOL    HW249396   1.024   4.973   0.904  0.8197 -0.4879 -0.0220
15620SOL     OW49397   3.830   6.882   4.925 -0.4204  0.7697 -0.6057
15620SOL    HW149398   3.849   6.874   5.018 -3.0209 -0.1216 -0.0971
15620SOL    HW249399   3.858   6.971   4.902 -0.0413  1.1071  1.1069
15621SOL     OW49400   4.591   9.692   0.509  0.4656  0.2604  0.3831
15621SOL    HW149401   4.636   9.645   0.438  2.4865  0.6793  1.3755
15621SOL    HW249402   4.533   9.753   0.464  1.3360  0.1509 -0.9102
15622SOL     OW49403   1.163   9.407   1.223 -0.3068 -0.0685 -0.4709
15622SOL    HW149404   1.090   9.360   1.183 -0.2397 -1.1296  0.5978
15622SOL    HW249405   1.167   9.373   1.312 -0.0731  1.7882  0.2576
15623SOL     OW49406   2.697   1.420   9.305  0.1076 -0.0401 -0.1556
15623SOL    HW149407   2.737   1.498   9.343  0.9040 -0.2118 -0.6450
15623SOL    HW249408   2.637   1.389   9.373 -0.1331  0.9284  0.0831
15624SOL     OW49409   3.848   1.580   6.503 -0.5774  0.1636 -0.5500
15624SOL    HW149410   3.756   1.559   6.489 -0.7005  0.6840 -0.5516
15624SOL    HW249411   3.895   1.528   6.439 -0.8257 -0.6017 -0.1080
15625SOL     OW49412   6.521   2.275   2.199  0.0341 -0.2197  0.3941
15625SOL    HW149413   6.489   2.218   2.269 -1.4423 -2.1239 -1.7522
15625SOL    HW249414   6.574   2.217   2.144  0.2560  0.9814 -0.6738
15626SOL     OW49415   2.914   0.344   0.538  0.0104 -0.3961  0.0907
15626SOL    HW149416   2.989   0.403   0.541 -0.0278 -0.4370  2.4865
15626SOL    HW249417   2.843   0.398   0.502  0.7163  0.1395 -0.5220
15627SOL     OW49418   2.299   9.381   3.350 -0.5636  0.2579  0.0706
15627SOL    HW149419   2.241   9.445   3.393 -1.7440 -1.1088  0.5339
15627SOL    HW249420   2.300   9.306   3.409  3.1450  0.9270  0.9512
15628SOL     OW49421   7.604   4.897   2.779 -0.0728  0.6479 -0.5942
15628SOL    HW149422   7.590   4.939   2.864  0.2555  1.1144 -0.7699
15628SOL    HW249423   7.566   4.810   2.789  1.4740  0.0786  0.6098
15629SOL     OW49424   4.200   7.772   8.541 -0.2957  0.1764  0.1974
15629SOL    HW149425   4.251   7.694   8.521 -0.3418 -0.6057  2.8377
15629SOL    HW249426   4.262   7.832   8.583 -0.4790  1.1615 -0.9338
15630SOL     OW49427   3.203   2.787   2.392 -0.5180  0.1101  0.2918
15630SOL    HW149428   3.232   2.697   2.407 -0.1516  0.2274  0.2898
15630SOL    HW249429   3.128   2.799   2.451 -1.3548 -0.6024 -0.6217
15631SOL     OW49430   7.144   5.874  10.191  0.0354 -0.4926 -0.0363
15631SOL    HW149431   7.232   5.844  10.172  0.3154  0.5287 -0.4164
15631SOL    HW249432   7.118   5.923  10.113 -0.9137 -0.8905  0.0218
15632SOL     OW49433   3.697   8.378   0.580 -0.1435 -0.8187  1.0744
15632SOL    HW149434   3.775   8.326   0.596 -0.4601 -1.0362  1.9379
15632SOL    HW249435   3.729   8.468   0.574  0.4038 -1.0922 -0.4380
15633SOL     OW49436   5.381   1.997  10.155  0.1572  0.1423  0.0415
15633SOL    HW149437   5.441   1.924  10.171  0.8018  0.9414  1.3925
15633SOL    HW249438   5.340   1.976  10.071  1.1937 -1.1856 -0.1591
15634SOL     OW49439   3.531   1.727   7.834  0.2565  0.3020  0.0760
15634SOL    HW149440   3.458   1.666   7.843  1.8527 -1.6614 -0.2225
15634SOL    HW249441   3.577   1.700   7.755  0.7728  2.1357 -0.2960
15635SOL     OW49442   5.747   8.348   2.788 -0.3993  0.1608 -0.2979
15635SOL    HW149443   5.707   8.264   2.810 -0.8155  0.0770 -1.3683
15635SOL    HW249444   5.756   8.393   2.873 -0.5009 -0.8103  0.2291
15636SOL     OW49445   1.230   5.681   7.155 -0.2630  0.0548 -0.1428
15636SOL    HW149446   1.323   5.695   7.174 -0.1573  0.9104 -1.2120
15636SOL    HW249447   1.194   5.647   7.237  1.1546 -1.1188  0.0317
15637SOL     OW49448   0.340   2.574   4.165 -0.0599  0.1914 -0.1472
15637SOL    HW149449   0.251   2.606   4.149 -0.4007  0.2659  1.8020
15637SOL    HW249450   0.394   2.652   4.162 -0.4063  0.4803  1.1431
15638SOL     OW49451   1.038   4.656   5.048  0.0248  0.2124  0.2987
15638SOL    HW149452   1.036   4.654   4.952  0.6903  0.5293  0.2786
15638SOL    HW249453   1.003   4.742   5.071 -0.6828 -0.0868  0.3589
15639SOL     OW49454   6.222   5.138   0.752  0.0504  0.7056  0.1930
15639SOL    HW149455   6.190   5.049   0.766  0.2959  0.3394 -1.4334
15639SOL    HW249456   6.290   5.129   0.686  1.7977  1.8007  1.7925
15640SOL     OW49457  10.063   8.925   3.379  0.2074  0.2351  0.0925
15640SOL    HW149458  10.019   8.994   3.427 -0.2574  2.0745 -2.8497
15640SOL    HW249459   9.997   8.894   3.316  1.4410 -0.5957 -0.8100
15641SOL     OW49460   3.196   9.563   1.230  0.2544 -0.6141  0.0168
15641SOL    HW149461   3.265   9.506   1.263 -0.3540 -2.4782 -1.7695
15641SOL    HW249462   3.242   9.633   1.183  1.0050  0.3315  2.1103
15642SOL     OW49463   8.067   3.183   5.506 -0.4338  0.4886 -0.1442
15642SOL    HW149464   7.992   3.147   5.553 -0.9077  0.0951 -1.1799
15642SOL    HW249465   8.143   3.158   5.559 -1.0602  1.2638  1.1323
15643SOL     OW49466   6.732   4.124   6.428 -0.3503  0.1465  0.5857
15643SOL    HW149467   6.751   4.216   6.444 -2.0194  1.4886 -4.3704
15643SOL    HW249468   6.647   4.110   6.469 -0.1332  0.8028  1.2753
15644SOL     OW49469  10.199   0.647   2.386  0.5413 -0.1196 -0.3269
15644SOL    HW149470  10.143   0.569   2.393 -0.6229  0.8737  1.6607
15644SOL    HW249471  10.178   0.683   2.300  1.1972 -2.0549 -1.3446
15645SOL     OW49472   1.342   9.829   6.479  0.3532  0.7158  0.4571
15645SOL    HW149473   1.323   9.784   6.397 -0.9909  1.4090  0.3621
15645SOL    HW249474   1.292   9.911   6.472 -0.0171  0.6289  2.1000
15646SOL     OW49475   7.892   3.104   9.341  0.1457  0.1822 -0.2312
15646SOL    HW149476   7.868   3.042   9.410  0.6166  0.3699  0.1126
15646SOL    HW249477   7.929   3.178   9.389  2.1632 -0.4420 -0.7490
15647SOL     OW49478   1.982   8.470   1.404  0.0428  0.0559  0.0294
15647SOL    HW149479   1.981   8.406   1.332  2.2528  0.7975 -0.7278
15647SOL    HW249480   1.995   8.554   1.360 -0.3104  0.7160  1.1883
15648SOL     OW49481   2.027   0.048   1.945  0.1507 -0.2315  0.2965
15648SOL    HW149482   2.011   0.113   1.876 -0.5599  1.9343  2.4126
15648SOL    HW249483   2.110   0.076   1.985 -0.0635 -0.7396  1.1077
15649SOL     OW49484   8.838   9.187   4.396  0.2743  0.2044  0.1789
15649SOL    HW149485   8.808   9.205   4.486  2.9021  0.3118  1.0644
15649SOL    HW249486   8.820   9.094   4.384  0.1152  0.1351  0.9073
15650SOL     OW49487   4.761   6.311   2.942 -0.0748  0.1200  0.0385
15650SOL    HW149488   4.675   6.278   2.970  0.1279 -0.9555 -0.5808
15650SOL    HW249489   4.823   6.270   3.003  0.0350  0.6445  0.2842
15651SOL     OW49490   3.800   1.665   6.745 -0.4635 -0.2915 -0.4033
15651SOL    HW149491   3.796   1.624   6.659 -1.5549  0.2816 -0.6285
15651SOL    HW249492   3.837   1.597   6.802  0.4978 -0.5843 -1.3584
15652SOL     OW49493   3.358   5.051   5.734 -0.1119 -0.0140  0.0956
15652SOL    HW149494   3.339   5.113   5.805  1.2543  0.3805  0.1258
15652SOL    HW249495   3.420   4.990   5.772  0.2795 -0.0691 -0.6237
15653SOL     OW49496   2.979   5.335   2.113  0.3895 -0.1167 -0.4108
15653SOL    HW149497   2.906   5.390   2.141  1.6561  2.0760 -1.2006
15653SOL    HW249498   3.022   5.308   2.194  0.6672  1.3917 -0.0394
15654SOL     OW49499   5.161   8.579   8.340  0.1919 -0.0221 -0.1656
15654SOL    HW149500   5.223   8.652   8.337 -0.4493  0.5458  0.3043
15654SOL    HW249501   5.120   8.579   8.253  1.1374 -0.6581 -0.6195
15655SOL     OW49502   1.188   4.349   4.442 -0.5981  0.5418 -0.0013
15655SOL    HW149503   1.255   4.379   4.504  0.8091 -0.1021 -1.1754
15655SOL    HW249504   1.168   4.260   4.470  1.3094 -0.3894 -1.4585
15656SOL     OW49505   8.415   3.025   4.943 -0.3606  0.4543 -0.1008
15656SOL    HW149506   8.381   2.964   5.008  0.7174 -0.0112  0.0375
15656SOL    HW249507   8.439   2.969   4.868 -1.3257  0.9486 -0.7909
15657SOL     OW49508   9.506   1.612   5.513  0.5691 -0.4575 -0.2388
15657SOL    HW149509   9.589   1.660   5.505 -0.0273  0.8255  1.1272
15657SOL    HW249510   9.525   1.541   5.574  0.8472 -0.5961 -0.4848
15658SOL     OW49511   9.265   9.705   4.207 -0.1428  0.5199 -0.2325
15658SOL    HW149512   9.202   9.714   4.279 -0.6558 -0.9149 -0.4994
15658SOL    HW249513   9.228   9.758   4.136 -0.5850  0.3999 -0.0890
15659SOL     OW49514   8.302   6.461   4.443  0.0651 -0.3193  0.8850
15659SOL    HW149515   8.371   6.417   4.394 -0.2759 -0.9569  0.9702
15659SOL    HW249516   8.237   6.393   4.460 -1.0140  0.4752  0.0389
15660SOL     OW49517   0.182   3.634   7.582 -0.4755 -0.1230 -0.3313
15660SOL    HW149518   0.233   3.565   7.539 -1.0525 -2.8124  3.0763
15660SOL    HW249519   0.233   3.657   7.660 -3.4521 -1.4996  2.1306
15661SOL     OW49520   7.526   6.447   1.447 -0.0629 -0.0861 -0.7735
15661SOL    HW149521   7.590   6.507   1.406 -0.2258 -0.6913 -1.9357
15661SOL    HW249522   7.503   6.490   1.529  1.4730  0.3850 -0.5749
15662SOL     OW49523   6.359   7.855   0.063  0.2502  0.4694  0.0832
15662SOL    HW149524   6.278   7.805   0.060  0.1769  0.5488  0.8251
15662SOL    HW249525   6.426   7.794   0.034 -0.1805  0.6272 -1.3110
15663SOL     OW49526   5.694   8.261   3.649 -0.1398  0.1371  0.4708
15663SOL    HW149527   5.766   8.322   3.632 -0.0705 -0.2293 -0.5667
15663SOL    HW249528   5.659   8.288   3.734  0.4142  1.1052  0.3948
15664SOL     OW49529   0.867   4.482   7.652  0.0871 -0.8081  0.3946
15664SOL    HW149530   0.892   4.506   7.563  0.0575 -1.1148  0.3012
15664SOL    HW249531   0.921   4.405   7.672 -0.7731 -1.4706  0.1934
15665SOL     OW49532   0.559   5.685   4.006  0.0284  0.8311 -0.0208
15665SOL    HW149533   0.498   5.740   4.054  1.7255  1.6430  1.2746
15665SOL    HW249534   0.642   5.733   4.010  0.8367 -0.4144 -1.4256
15666SOL     OW49535   7.003   6.220   3.466 -0.0359 -0.1091  0.4210
15666SOL    HW149536   7.031   6.225   3.557 -0.9785  0.0945  0.7083
15666SOL    HW249537   7.028   6.132   3.437  1.8189  0.4128  0.3436
15667SOL     OW49538   0.525   8.158   1.240 -0.3625  0.2752 -0.0789
15667SOL    HW149539   0.475   8.239   1.237 -0.6197  0.1037 -0.6361
15667SOL    HW249540   0.465   8.091   1.207  0.3605  0.1385 -1.1628
15668SOL     OW49541   0.527   4.024   7.238 -0.2619 -0.8346 -0.2756
15668SOL    HW149542   0.517   4.092   7.305 -0.9129 -2.2741  1.1118
15668SOL    HW249543   0.573   4.068   7.167  0.4708  0.7255  1.1160
15669SOL     OW49544   8.326   6.915   4.707 -0.1655 -0.2796 -0.0731
15669SOL    HW149545   8.411   6.890   4.670 -0.7631 -2.6014  0.0315
15669SOL    HW249546   8.304   6.997   4.664  1.7829 -0.0315 -0.6551
15670SOL     OW49547   1.180   6.879   8.644  0.4323 -0.6641  0.4651
15670SOL    HW149548   1.266   6.850   8.612  0.6526  0.1328  0.3448
15670SOL    HW249549   1.200   6.952   8.702 -0.3033  0.6006 -0.8696
15671SOL     OW49550   4.435   1.230   0.142  0.4222 -0.4781 -0.2553
15671SOL    HW149551   4.342   1.235   0.165  0.2545 -1.7992 -0.6047
15671SOL    HW249552   4.437   1.239   0.047  0.6368 -0.6997 -0.2706
15672SOL     OW49553   1.811  10.018   4.116 -0.0896 -0.0547  0.3242
15672SOL    HW149554   1.740  10.002   4.054 -0.2652 -1.2246  0.8020
15672SOL    HW249555   1.891  10.008   4.064 -0.2622  0.3432 -0.0162
15673SOL     OW49556   6.708   7.977   2.586  0.4865  0.0410 -0.2575
15673SOL    HW149557   6.624   7.949   2.621  0.7144 -0.5821 -0.2045
15673SOL    HW249558   6.740   8.041   2.649  1.0572 -1.3269  0.8763
15674SOL     OW49559   0.201   9.856   4.430  0.1502 -0.5643  0.2927
15674SOL    HW149560   0.269   9.830   4.366 -0.9519 -1.1126 -0.6796
15674SOL    HW249561   0.125   9.804   4.405 -0.9052  0.7344  0.8149
15675SOL     OW49562   1.263   3.756   0.942  0.8477 -0.0949 -0.3888
15675SOL    HW149563   1.316   3.828   0.976  0.5986 -0.6105  1.1090
15675SOL    HW249564   1.178   3.767   0.984  0.0688  0.1062 -1.9694
15676SOL     OW49565   8.115   4.846   3.115  0.4393 -0.2226  0.0423
15676SOL    HW149566   8.193   4.854   3.061  0.7843  1.3433  0.7661
15676SOL    HW249567   8.143   4.794   3.190  0.9039  0.6887  0.5072
15677SOL     OW49568   0.223   0.029   5.956 -0.2106  0.9242 -0.1928
15677SOL    HW149569   0.179  -0.055   5.972 -2.4983  1.9200 -0.9924
15677SOL    HW249570   0.259   0.022   5.868  2.0853 -0.2225  0.7921
15678SOL     OW49571   5.375   7.621   4.284  0.3695 -0.4867  0.2800
15678SOL    HW149572   5.408   7.592   4.369 -1.6960  1.2783  1.7193
15678SOL    HW249573   5.281   7.606   4.288  0.1485  0.3521 -1.3952
15679SOL     OW49574   7.944   3.750   9.178  0.0678 -0.1312  0.3668
15679SOL    HW149575   7.875   3.807   9.144  0.4647 -1.0715 -2.1389
15679SOL    HW249576   8.024   3.802   9.172 -0.0686  0.1691  1.1332
15680SOL     OW49577   5.612   7.106   7.515 -0.0540 -0.3696  0.4383
15680SOL    HW149578   5.540   7.056   7.477 -0.3613 -0.5245  1.2352
15680SOL    HW249579   5.579   7.137   7.599  0.6830 -0.1348  0.6458
15681SOL     OW49580   1.273   6.389   3.444  0.4119 -0.1187 -0.3729
15681SOL    HW149581   1.196   6.347   3.483  0.3543  0.4890  0.1768
15681SOL    HW249582   1.282   6.471   3.492 -0.9963  1.7032 -3.0906
15682SOL     OW49583   4.038   5.333   0.559  0.7610 -0.3219  0.5814
15682SOL    HW149584   4.028   5.417   0.514  0.4684 -0.6296  0.0735
15682SOL    HW249585   4.024   5.267   0.491  0.8431 -0.7838  1.0106
15683SOL     OW49586   5.088  10.010   3.449 -0.3060  0.1625  0.8387
15683SOL    HW149587   5.044   9.926   3.456 -0.4248  0.2324  0.9256
15683SOL    HW249588   5.103  10.022   3.355 -0.9061  0.3626  0.7645
15684SOL     OW49589   9.323   2.661   2.232  0.0043 -0.3347  0.1206
15684SOL    HW149590   9.390   2.636   2.295  0.6100  0.1918 -0.3093
15684SOL    HW249591   9.266   2.585   2.226  1.0101 -1.0831 -0.0985
15685SOL     OW49592   3.788   2.107   5.722  0.0711 -0.3037  0.5951
15685SOL    HW149593   3.842   2.187   5.725  1.5148 -1.3035  1.8276
15685SOL    HW249594   3.818   2.062   5.643 -0.2532  0.0219  0.2825
15686SOL     OW49595   7.786   4.702   8.720 -0.0766 -0.4827 -0.0646
15686SOL    HW149596   7.852   4.645   8.680 -0.2187 -1.2571  0.7832
15686SOL    HW249597   7.787   4.781   8.666  2.3460 -0.0255  0.5932
15687SOL     OW49598   1.970   1.080  10.058 -0.2126 -0.1849 -0.0304
15687SOL    HW149599   1.876   1.096  10.043 -0.1582  0.0815 -0.0987
15687SOL    HW249600   2.013   1.156  10.018 -0.0036 -0.0131  0.5171
15688SOL     OW49601   3.512   4.811  10.044 -0.1933  0.1721  0.2139
15688SOL    HW149602   3.530   4.791   9.952 -3.1388 -1.2454 -0.1448
15688SOL    HW249603   3.506   4.725  10.086 -1.1419  0.7123  1.2133
15689SOL     OW49604   9.589   4.732   8.214 -0.0726  0.1539 -0.2851
15689SOL    HW149605   9.650   4.797   8.180  0.6358 -0.4843 -0.2640
15689SOL    HW249606   9.502   4.765   8.191  0.0391  2.8859  2.7336
15690SOL     OW49607   1.612   5.119   7.372  0.6038 -0.4480 -0.8041
15690SOL    HW149608   1.603   5.137   7.466  0.4737 -1.9646 -0.5210
15690SOL    HW249609   1.700   5.082   7.363 -0.0657 -1.9945 -1.0140
15691SOL     OW49610   8.530   9.628   8.508  0.2012  0.1765 -0.2519
15691SOL    HW149611   8.547   9.693   8.577  2.3219 -1.5086  0.8880
15691SOL    HW249612   8.546   9.544   8.550  1.7934 -0.8821 -2.8598
15692SOL     OW49613   4.206   7.076   9.597 -0.1685 -0.1500  0.1088
15692SOL    HW149614   4.186   6.984   9.619  0.7367 -0.5579 -0.7609
15692SOL    HW249615   4.225   7.074   9.503 -0.0809  0.9285  0.1075
15693SOL     OW49616   3.781   8.362   3.668  0.1307 -0.0298 -0.3229
15693SOL    HW149617   3.789   8.298   3.597  1.1376 -0.2862  0.0053
15693SOL    HW249618   3.865   8.356   3.714  0.1780  1.4282 -0.2038
15694SOL     OW49619   4.628   8.201   8.233 -0.4152  0.0752  0.3368
15694SOL    HW149620   4.692   8.252   8.182  0.0527 -0.0323  0.8188
15694SOL    HW249621   4.559   8.264   8.253 -0.4398  0.2049 -0.1341
15695SOL     OW49622   3.909   4.441   8.228 -0.1470 -0.6283 -0.1366
15695SOL    HW149623   3.935   4.357   8.266 -1.1708 -0.9874 -0.2021
15695SOL    HW249624   3.837   4.419   8.168 -0.7064  0.3420  0.1634
15696SOL     OW49625   8.576   5.293   1.366  0.6534 -0.2785 -0.3057
15696SOL    HW149626   8.523   5.365   1.331 -0.0254 -0.3442  0.5775
15696SOL    HW249627   8.553   5.217   1.313  0.0508 -0.2484 -0.0856
15697SOL     OW49628   1.763   2.458   8.920 -0.3348 -0.3232  0.4583
15697SOL    HW149629   1.793   2.384   8.868  0.2355 -1.3862  2.2501
15697SOL    HW249630   1.758   2.424   9.009  0.0760  1.8455  1.3351
15698SOL     OW49631   8.013   0.353   9.155  0.6945 -0.0847  0.0722
15698SOL    HW149632   8.073   0.331   9.226 -0.8073 -1.4977  0.9609
15698SOL    HW249633   7.992   0.445   9.169 -0.5605 -0.6646  2.2419
15699SOL     OW49634   2.303   0.557   4.334  0.2551  0.3239  0.3629
15699SOL    HW149635   2.296   0.517   4.420  1.8792 -1.3555 -0.2541
15699SOL    HW249636   2.235   0.514   4.282  1.6894 -1.3516 -0.1715
15700SOL     OW49637   4.254   1.686   2.853 -0.2284  0.1406  0.5876
15700SOL    HW149638   4.280   1.753   2.789 -1.6675  0.9467  0.8299
15700SOL    HW249639   4.291   1.717   2.936  1.5877 -0.8734  0.1673
15701SOL     OW49640   2.282   6.084   7.006 -0.2963  0.2023 -0.1235
15701SOL    HW149641   2.374   6.059   6.992 -0.4919 -1.1128  0.8560
15701SOL    HW249642   2.232   6.005   6.985 -1.0835  0.3962  0.9728
15702SOL     OW49643   3.055   8.375   7.283 -0.5242 -0.6390  0.2465
15702SOL    HW149644   3.128   8.402   7.340 -0.2594 -0.2838 -0.2567
15702SOL    HW249645   3.088   8.298   7.237  0.1531  0.4820 -1.2038
15703SOL     OW49646   9.691  10.185   8.580 -0.4824  0.0330  0.0651
15703SOL    HW149647   9.780  10.221   8.585 -0.4546  0.3784 -2.4126
15703SOL    HW249648   9.700  10.095   8.612  0.8079 -0.0214 -0.4294
15704SOL     OW49649   7.031   7.018   9.300  0.5062 -0.2764 -0.2698
15704SOL    HW149650   7.105   6.978   9.254  0.7190 -0.4007  0.1711
15704SOL    HW249651   7.002   6.950   9.362 -0.0294 -0.2583 -0.4971
15705SOL     OW49652   6.644   2.854   8.809 -0.3309  0.3565  0.5613
15705SOL    HW149653   6.598   2.782   8.766  1.6586 -0.1860 -0.7835
15705SOL    HW249654   6.680   2.906   8.736  0.7611  1.0019  1.5398
15706SOL     OW49655   5.979   0.668   6.891 -0.6014  0.2539  0.5560
15706SOL    HW149656   6.050   0.632   6.944 -0.6775  1.1170  1.2530
15706SOL    HW249657   5.915   0.699   6.955 -0.9437  0.8068 -0.0494
15707SOL     OW49658   7.538   5.184   0.084 -0.3934 -0.0019  0.7250
15707SOL    HW149659   7.589   5.178   0.166  0.3201 -0.7098  0.2413
15707SOL    HW249660   7.602   5.166   0.015 -1.3780 -1.2488  0.1182
15708SOL     OW49661   5.461   0.994   1.969  0.4136  0.0487  1.1682
15708SOL    HW149662   5.403   0.922   1.946 -0.8990  1.5265 -0.2429
15708SOL    HW249663   5.543   0.975   1.924 -0.4337  0.2253 -0.4659
15709SOL     OW49664   0.059   8.014   7.155  0.5844  0.2923  0.2714
15709SOL    HW149665   0.079   8.013   7.248  0.4060 -2.6313  0.3289
15709SOL    HW249666   0.137   7.979   7.113  0.4533  1.0671 -0.6266
15710SOL     OW49667   1.419   7.133   4.433 -0.1617 -0.1929  0.2457
15710SOL    HW149668   1.343   7.188   4.417  0.1370 -0.3177 -1.8592
15710SOL    HW249669   1.401   7.090   4.516 -0.6212  2.6593  1.6719
15711SOL     OW49670   3.046   4.573   3.298  0.4934 -0.2101 -0.0308
15711SOL    HW149671   3.054   4.632   3.223  0.7178  0.1965  0.3089
15711SOL    HW249672   3.130   4.583   3.345 -0.2444  0.7159  1.1227
15712SOL     OW49673   3.064   8.866   8.189  0.4375 -0.1339 -0.1258
15712SOL    HW149674   3.068   8.953   8.149  0.1465  0.6597  1.5427
15712SOL    HW249675   3.062   8.883   8.283  1.5890 -1.9968  0.2429
15713SOL     OW49676   3.536   8.068   1.057 -0.1971  0.3084  0.3101
15713SOL    HW149677   3.558   8.136   0.992  2.1916 -0.3559  0.3625
15713SOL    HW249678   3.515   8.117   1.136 -0.7628  1.0532 -0.2869
15714SOL     OW49679   0.734   3.389   5.195 -0.0334 -0.1152  0.1477
15714SOL    HW149680   0.714   3.456   5.261 -0.4672  0.0201 -0.1194
15714SOL    HW249681   0.805   3.338   5.233  0.5449  0.7239  0.2053
15715SOL     OW49682   0.795   4.563   2.751 -0.5627 -0.8298 -0.1749
15715SOL    HW149683   0.782   4.569   2.846 -0.8831  0.8228 -0.3203
15715SOL    HW249684   0.729   4.501   2.722 -0.2060 -1.6621  0.7267
15716SOL     OW49685   5.299   4.377   1.408 -0.4004 -0.0773 -0.1107
15716SOL    HW149686   5.390   4.368   1.380 -0.3139 -0.9948  0.4686
15716SOL    HW249687   5.301   4.445   1.475  0.0481 -0.9556  0.7772
15717SOL     OW49688   1.961   7.441   7.449 -0.3880  0.5141 -0.0108
15717SOL    HW149689   1.931   7.508   7.510 -2.2660  1.1921 -1.6191
15717SOL    HW249690   1.949   7.359   7.496  1.3070  1.2461  1.7358
15718SOL     OW49691   4.815   0.110   8.422  0.0027  0.7221  0.2239
15718SOL    HW149692   4.773   0.150   8.498 -1.4795  0.7125 -0.5748
15718SOL    HW249693   4.743   0.090   8.362  0.8532 -1.7617 -0.0465
15719SOL     OW49694   1.394   5.292   3.625  0.5135  0.0188 -0.2531
15719SOL    HW149695   1.400   5.307   3.530  1.1599 -0.3360 -0.2732
15719SOL    HW249696   1.325   5.226   3.634 -0.9585  1.5302 -0.3160
15720SOL     OW49697   3.524   5.617   5.139  0.0158  0.1095  0.3805
15720SOL    HW149698   3.544   5.585   5.051 -1.1873  0.0119  0.1353
15720SOL    HW249699   3.609   5.621   5.183  0.3987 -1.8204 -0.1254
15721SOL     OW49700   9.815   5.324   5.943 -0.2743  0.1856 -0.4092
15721SOL    HW149701   9.794   5.275   6.022  2.0156 -1.5093 -0.7902
15721SOL    HW249702   9.868   5.397   5.974 -2.2404  1.4859 -0.0341
15722SOL     OW49703   0.554   9.771   9.771 -0.1463 -0.2458 -0.1790
15722SOL    HW149704   0.584   9.681   9.759 -2.0283 -1.1011  1.3014
15722SOL    HW249705   0.634   9.822   9.786  0.9048 -1.7001 -0.7579
15723SOL     OW49706   7.792   5.825   8.363 -0.2606 -0.2827 -0.3320
15723SOL    HW149707   7.703   5.853   8.342 -0.0627  0.6539  0.0854
15723SOL    HW249708   7.846   5.861   8.292  0.1237  1.1947  0.6872
15724SOL     OW49709   3.005   8.647   7.238 -0.1370  0.1201 -0.0080
15724SOL    HW149710   3.006   8.689   7.152  0.0010 -0.3777 -0.2499
15724SOL    HW249711   3.034   8.558   7.222  1.3552  0.4513  0.7899
15725SOL     OW49712   4.317   0.162   2.955 -0.0979  0.1950  0.5043
15725SOL    HW149713   4.324   0.255   2.973 -1.3027  0.4656 -0.3491
15725SOL    HW249714   4.385   0.121   3.009 -0.0999  1.4784  1.4864
15726SOL     OW49715   1.737   3.648   5.750  0.1693  0.2555  0.1198
15726SOL    HW149716   1.792   3.588   5.699 -0.4379  0.2025 -0.4910
15726SOL    HW249717   1.672   3.679   5.687 -0.5141  0.2888  0.8348
15727SOL     OW49718   7.360   2.094   1.662 -0.3311 -0.1075  0.2729
15727SOL    HW149719   7.369   2.001   1.681 -2.5144 -0.5083 -0.5345
15727SOL    HW249720   7.363   2.100   1.567 -0.1985  0.6608  0.3171
15728SOL     OW49721   4.405   9.434   0.274 -0.1949 -0.3816  0.2420
15728SOL    HW149722   4.488   9.387   0.284  0.3203  0.6888  0.9996
15728SOL    HW249723   4.392   9.478   0.358 -0.2776  1.4753 -0.7305
15729SOL     OW49724   7.154   9.629   0.643 -0.1914 -0.0490  0.0145
15729SOL    HW149725   7.188   9.593   0.561  0.8968 -0.7825  0.7890
15729SOL    HW249726   7.122   9.716   0.619  0.7451  0.0079 -1.0486
15730SOL     OW49727   5.662   3.796   5.043  0.5013 -0.0492 -0.6204
15730SOL    HW149728   5.743   3.826   5.003  0.0272 -2.1171 -3.2752
15730SOL    HW249729   5.680   3.706   5.070 -0.3261  0.1169  0.5322
15731SOL     OW49730   1.559   7.316   1.134  0.3749  0.3888  0.3925
15731SOL    HW149731   1.598   7.401   1.156  0.3564 -0.0647  2.2808
15731SOL    HW249732   1.627   7.272   1.082 -0.4592  2.3615 -2.4447
15732SOL     OW49733   6.291   8.768   5.300  0.9120 -0.2758 -0.3043
15732SOL    HW149734   6.196   8.756   5.307  0.7485  0.7856 -0.7309
15732SOL    HW249735   6.318   8.702   5.236  0.5814 -1.1350  0.4274
15733SOL     OW49736   3.838   7.603   0.830 -0.1313 -0.7074 -0.3235
15733SOL    HW149737   3.745   7.616   0.811 -0.3961 -0.2132  1.2457
15733SOL    HW249738   3.860   7.521   0.787 -0.8221  0.1019 -2.2789
15734SOL     OW49739   0.550   1.463   0.473  0.1110 -0.1069  1.0721
15734SOL    HW149740   0.603   1.537   0.441  1.5052 -1.7317 -0.5170
15734SOL    HW249741   0.546   1.476   0.568  3.4461  0.0722  1.2715
15735SOL     OW49742   4.885   3.653   8.394  0.8658  0.6237  0.1519
15735SOL    HW149743   4.901   3.708   8.471 -1.9715  1.4812  0.1931
15735SOL    HW249744   4.842   3.575   8.429  2.8437 -0.6172 -0.1717
15736SOL     OW49745   2.519   1.298   5.290 -0.1877  0.7336  0.1958
15736SOL    HW149746   2.492   1.364   5.226  0.1818  0.4696 -0.2377
15736SOL    HW249747   2.441   1.281   5.342 -0.0060  2.2806  0.9829
15737SOL     OW49748   1.734   2.212   6.614 -0.0928  0.3773  0.0128
15737SOL    HW149749   1.805   2.165   6.572 -0.3044 -0.2463  0.3550
15737SOL    HW249750   1.725   2.293   6.562  1.7932  1.1293  0.8163
15738SOL     OW49751   4.624   8.930   3.971  0.1656 -0.2757 -0.1052
15738SOL    HW149752   4.703   8.929   3.916 -0.4060 -0.2087 -0.9315
15738SOL    HW249753   4.652   8.974   4.051  0.5578  1.1967 -1.0247
15739SOL     OW49754   3.603   0.902   7.112 -0.3127 -0.2930 -0.0887
15739SOL    HW149755   3.592   0.856   7.195  0.0903 -0.8006 -0.3103
15739SOL    HW249756   3.550   0.852   7.050  0.5119 -0.7507 -0.4329
15740SOL     OW49757   1.752   0.981   0.271 -0.1156 -0.0281  0.6510
15740SOL    HW149758   1.844   0.994   0.293 -0.3381  0.1457  1.4944
15740SOL    HW249759   1.705   1.001   0.351 -1.0615  2.0901 -0.3842
15741SOL     OW49760   4.056   7.999   7.234 -0.1530 -0.2019  0.1203
15741SOL    HW149761   4.044   7.911   7.198  2.0019  0.0494 -1.3252
15741SOL    HW249762   4.045   8.057   7.159 -0.1787  0.6822  0.7992
15742SOL     OW49763   1.491   7.225   5.531  0.0414 -0.0262 -0.3717
15742SOL    HW149764   1.584   7.237   5.510 -0.1993  2.1694 -0.3198
15742SOL    HW249765   1.468   7.302   5.582 -1.4727 -1.2683  0.8728
15743SOL     OW49766   1.132   2.749   4.571  0.0155 -0.1502 -0.3889
15743SOL    HW149767   1.113   2.675   4.629  1.8727 -1.5156 -1.4738
15743SOL    HW249768   1.117   2.826   4.625 -2.0691 -1.2995  0.7342
15744SOL     OW49769   1.747   3.371   8.063  0.3833  0.1468 -0.6183
15744SOL    HW149770   1.798   3.293   8.043 -1.9728 -1.2848 -1.3440
15744SOL    HW249771   1.753   3.380   8.158  0.9522 -0.7279 -0.5666
15745SOL     OW49772   6.617   8.458   2.760  0.1690 -0.3015 -0.4673
15745SOL    HW149773   6.672   8.525   2.719  0.5870 -1.0197 -1.0883
15745SOL    HW249774   6.578   8.412   2.686  0.4605 -1.2189 -0.0494
15746SOL     OW49775   2.298   2.761   2.911  0.4329 -0.4016  0.2890
15746SOL    HW149776   2.331   2.673   2.890  0.1371 -0.8623  1.6848
15746SOL    HW249777   2.377   2.814   2.921  0.7300 -1.2069  2.3813
15747SOL     OW49778   8.654   0.854   6.113  0.0767  0.3411 -0.0781
15747SOL    HW149779   8.670   0.937   6.069 -2.0914  1.1459  0.5806
15747SOL    HW249780   8.679   0.870   6.204  0.3508  0.0506 -0.1018
15748SOL     OW49781   6.883   7.314   3.999 -0.1054 -0.0616  0.4462
15748SOL    HW149782   6.805   7.368   3.989  0.0513  0.3430  1.3983
15748SOL    HW249783   6.866   7.261   4.077 -0.0051 -0.9530 -0.1354
15749SOL     OW49784   6.233   9.828   4.368 -0.1573 -0.4108  0.6718
15749SOL    HW149785   6.267   9.739   4.368  1.1958  0.0940  0.8542
15749SOL    HW249786   6.203   9.842   4.458 -1.7269 -1.1774  0.2805
15750SOL     OW49787   6.486  10.194   0.760 -0.0811  0.5515 -0.1762
15750SOL    HW149788   6.463  10.176   0.669  1.5846  0.4890 -0.6005
15750SOL    HW249789   6.530  10.279   0.758  1.0651 -0.0158  0.3835
15751SOL     OW49790   6.401   9.543   3.603  0.3385  0.3625  0.2593
15751SOL    HW149791   6.470   9.605   3.625 -0.4780  1.5263 -0.4148
15751SOL    HW249792   6.385   9.495   3.684 -0.5305  2.5404  1.4168
15752SOL     OW49793   5.645   9.696   9.573 -0.1970 -0.2419  0.3150
15752SOL    HW149794   5.580   9.640   9.531 -0.8256 -0.7496  1.8980
15752SOL    HW249795   5.729   9.664   9.540 -0.7426  0.5476 -1.8993
15753SOL     OW49796   7.176   0.269   5.728 -0.4427  0.6311 -0.4227
15753SOL    HW149797   7.199   0.352   5.686  0.3674  0.9510  0.6279
15753SOL    HW249798   7.121   0.224   5.663 -0.4967  1.7730 -1.1944
15754SOL     OW49799   2.380   5.629   8.728  0.0155  0.0472  0.2431
15754SOL    HW149800   2.357   5.610   8.637 -0.7397  0.9574  0.2348
15754SOL    HW249801   2.421   5.715   8.724  1.8889 -0.8167  0.4971
15755SOL     OW49802   9.292   5.044   2.728 -0.2308  0.0110 -0.2294
15755SOL    HW149803   9.354   5.045   2.801  1.0183 -0.9776 -1.2594
15755SOL    HW249804   9.342   5.075   2.653 -1.7702  1.9717 -0.4946
15756SOL     OW49805   3.540   5.331   1.528 -0.6389  0.2318 -0.1995
15756SOL    HW149806   3.445   5.337   1.537 -0.5359 -0.6884  1.5311
15756SOL    HW249807   3.573   5.336   1.617  1.0239  1.6173 -0.8546
15757SOL     OW49808   3.093   5.985   9.736 -0.3227  0.0119  0.2219
15757SOL    HW149809   3.147   6.033   9.799  0.8008  0.5652 -1.1423
15757SOL    HW249810   3.154   5.958   9.667 -1.9091  1.2654 -1.7361
15758SOL     OW49811   9.761   8.316   5.856  0.2689 -0.5026  0.3067
15758SOL    HW149812   9.773   8.354   5.943 -1.4379 -0.6307  0.6037
15758SOL    HW249813   9.730   8.227   5.873  2.3446 -1.3873 -0.4135
15759SOL     OW49814   0.476   5.537   4.654 -0.2957  0.3020  0.0385
15759SOL    HW149815   0.459   5.508   4.565  0.3980  0.0457 -0.0084
15759SOL    HW249816   0.493   5.631   4.646 -0.6402  0.3592 -0.0431
15760SOL     OW49817   7.643   6.870   2.670  0.1530 -0.6041  0.7191
15760SOL    HW149818   7.559   6.830   2.646 -0.1508  0.0997  0.6094
15760SOL    HW249819   7.637   6.883   2.765 -0.8121  1.5955  0.3973
15761SOL     OW49820   8.873   5.471   5.727  0.4033 -0.5711  0.1982
15761SOL    HW149821   8.800   5.519   5.688  0.7877  0.1574  0.3616
15761SOL    HW249822   8.928   5.539   5.766  0.2371 -1.2346  1.6504
15762SOL     OW49823   4.762   2.600   3.800  0.2401  0.4588 -0.1069
15762SOL    HW149824   4.713   2.519   3.786 -1.3803  1.4939 -0.6298
15762SOL    HW249825   4.852   2.572   3.813  0.0739 -1.2765 -2.4184
15763SOL     OW49826   7.551   3.957   1.711  0.1643  0.5067 -0.1150
15763SOL    HW149827   7.540   3.932   1.619  0.5227 -0.0377 -0.0135
15763SOL    HW249828   7.475   3.918   1.755 -0.7407  1.9225 -0.3932
15764SOL     OW49829   7.990   5.864   1.909  0.4503 -0.6265  1.0365
15764SOL    HW149830   7.960   5.928   1.844 -1.5996 -1.7713  0.8415
15764SOL    HW249831   7.952   5.894   1.991  0.8436 -0.6880  1.2441
15765SOL     OW49832   9.634   3.329   1.904  0.3391 -0.0060 -0.0735
15765SOL    HW149833   9.727   3.308   1.905  0.6176  1.0082 -1.7930
15765SOL    HW249834   9.626   3.397   1.837 -2.3628 -3.5597 -3.5538
15766SOL     OW49835   4.251   1.182   3.425 -0.7123  0.0106 -0.5984
15766SOL    HW149836   4.281   1.144   3.507 -0.4262  1.1045 -0.1935
15766SOL    HW249837   4.166   1.140   3.409 -0.7736 -0.1977  0.2599
15767SOL     OW49838   1.435   4.148   8.043 -0.7653 -0.2860 -0.1901
15767SOL    HW149839   1.433   4.236   8.081  1.9353  0.6303 -2.0625
15767SOL    HW249840   1.502   4.102   8.094 -0.1739 -0.3732 -1.0407
15768SOL     OW49841   0.947   7.987   3.391  0.2087 -0.0563  0.0268
15768SOL    HW149842   0.892   7.909   3.392  0.6443 -0.3810  2.4520
15768SOL    HW249843   1.036   7.954   3.375  0.1501  0.1338 -0.7019
15769SOL     OW49844   0.460   2.372   6.314  0.1127 -0.1429  0.1668
15769SOL    HW149845   0.516   2.356   6.390 -0.3792  0.5600  0.6829
15769SOL    HW249846   0.454   2.287   6.270  0.0273 -0.6608  1.1664
15770SOL     OW49847   6.816   9.810   9.431 -0.6717 -0.1651  0.3722
15770SOL    HW149848   6.823   9.871   9.358 -0.3427 -0.0575  0.4941
15770SOL    HW249849   6.892   9.829   9.486  0.6244 -2.1521 -0.6821
15771SOL     OW49850   3.888   4.973   8.377 -0.6169 -0.0232 -0.3029
15771SOL    HW149851   3.906   4.977   8.283 -0.9319 -0.7035 -0.3952
15771SOL    HW249852   3.797   5.002   8.385 -0.2532  1.0950 -0.0895
15772SOL     OW49853   8.111   1.760   5.802  0.4825 -0.0876 -0.3729
15772SOL    HW149854   8.016   1.744   5.799  0.3664  0.2514  1.0820
15772SOL    HW249855   8.150   1.673   5.787 -0.0742 -0.4321  0.1478
15773SOL     OW49856   0.985   8.238   7.028 -0.3781  0.2438  0.5174
15773SOL    HW149857   1.058   8.178   7.011  0.2579  1.5850 -1.5802
15773SOL    HW249858   0.911   8.180   7.049  1.2657 -1.1229  2.7571
15774SOL     OW49859   6.135   3.476   2.097  0.0134  0.1799 -0.2018
15774SOL    HW149860   6.110   3.434   2.015  1.8237 -2.3866  0.5060
15774SOL    HW249861   6.229   3.491   2.090  0.0444  0.6839  1.0904
15775SOL     OW49862   0.396   1.176   7.704  0.0854 -0.6364  0.5261
15775SOL    HW149863   0.442   1.134   7.631 -0.7693 -0.6854  0.0028
15775SOL    HW249864   0.439   1.142   7.782  0.8633 -0.7650  0.0528
15776SOL     OW49865   2.065   7.288   6.699 -0.5250  0.0035  0.5177
15776SOL    HW149866   2.109   7.298   6.784  0.5602 -1.0566  0.0901
15776SOL    HW249867   2.058   7.377   6.665  2.6761  0.0509 -0.0925
15777SOL     OW49868   9.224   6.373   9.169 -0.0633  0.3509 -0.0276
15777SOL    HW149869   9.270   6.351   9.088  0.4533 -1.1081  0.6541
15777SOL    HW249870   9.169   6.297   9.187  0.8712  0.0848  1.7391
15778SOL     OW49871   7.800   3.085  10.162 -0.0210 -0.6286  0.4628
15778SOL    HW149872   7.795   3.107  10.070  1.4635  1.0924  0.7592
15778SOL    HW249873   7.890   3.108  10.187 -0.9885  0.7808  2.7879
15779SOL     OW49874   7.297   4.972   3.892 -0.4939  0.2679 -0.5808
15779SOL    HW149875   7.278   5.014   3.808 -0.3067 -1.9921 -1.7828
15779SOL    HW249876   7.388   4.943   3.884 -0.6990 -0.5920  0.1223
15780SOL     OW49877   8.465   8.086   4.910 -0.3850  0.2298 -0.1328
15780SOL    HW149878   8.415   8.162   4.881  0.5298  0.8244 -0.1475
15780SOL    HW249879   8.551   8.096   4.869  0.4949  0.3887  1.6862
15781SOL     OW49880   7.308   4.093   3.822  0.0228 -0.5957  0.5289
15781SOL    HW149881   7.356   4.174   3.805 -2.3104  0.4295 -1.6824
15781SOL    HW249882   7.353   4.027   3.770  0.0487 -0.0099 -0.2010
15782SOL     OW49883   1.759   4.157  10.191 -0.1550 -0.0294  0.3037
15782SOL    HW149884   1.676   4.117  10.217  0.1508  0.4077  1.9879
15782SOL    HW249885   1.775   4.224  10.257 -0.2384  2.3571 -1.9706
15783SOL     OW49886   2.794   9.766   9.068 -0.0586 -0.4765  0.5044
15783SOL    HW149887   2.861   9.831   9.085 -0.1759 -0.4872  1.0191
15783SOL    HW249888   2.711   9.813   9.078 -0.1135 -0.0489 -1.8101
15784SOL     OW49889   5.997   7.467   9.033  0.2577  0.8583 -0.6713
15784SOL    HW149890   5.973   7.559   9.030 -0.0693  0.7580 -1.1843
15784SOL    HW249891   5.935   7.424   8.973 -0.8526  0.0330  1.0119
15785SOL     OW49892   1.580   3.273   8.940  0.5142  0.1134  0.7983
15785SOL    HW149893   1.609   3.184   8.920 -0.0241 -0.2442  1.5809
15785SOL    HW249894   1.595   3.283   9.034 -0.8580  0.2932  1.0161
15786SOL     OW49895   3.511   8.919   4.996  0.3234 -0.4628 -0.4686
15786SOL    HW149896   3.483   8.833   5.026 -1.3285  0.0409 -0.4557
15786SOL    HW249897   3.517   8.972   5.075 -1.9161  0.2849 -0.7343
15787SOL     OW49898   1.630   9.265   8.684  0.1923  0.4356 -0.2476
15787SOL    HW149899   1.553   9.321   8.685  0.0728  0.2588  0.4793
15787SOL    HW249900   1.660   9.266   8.593  0.4199  1.9974 -0.1642
15788SOL     OW49901   9.361   8.421   6.098 -0.0830  0.0470 -0.2789
15788SOL    HW149902   9.336   8.391   6.010  0.3169 -1.3733  0.0811
15788SOL    HW249903   9.295   8.487   6.120 -0.5670 -0.0504 -1.3890
15789SOL     OW49904   7.068   2.814   1.006  0.4655 -0.1727 -0.1128
15789SOL    HW149905   7.051   2.906   1.029 -0.4175 -0.2417 -0.4542
15789SOL    HW249906   6.991   2.788   0.956  0.2390 -1.4201  0.8808
15790SOL     OW49907   8.399   9.024   6.288  0.5909  0.1294 -0.1028
15790SOL    HW149908   8.317   8.975   6.287  0.1435  0.8435  0.8644
15790SOL    HW249909   8.467   8.957   6.285  0.0019 -0.6061  1.9825
15791SOL     OW49910   0.945   5.133   0.769  0.1256 -0.0530 -0.4156
15791SOL    HW149911   0.903   5.201   0.822  0.7342 -0.4229  0.5550
15791SOL    HW249912   1.000   5.182   0.707  0.6844  0.3409  0.3812
15792SOL     OW49913   3.690   6.919   0.917 -0.9157  0.2877  0.6096
15792SOL    HW149914   3.604   6.956   0.898 -0.5679  1.4919  1.3617
15792SOL    HW249915   3.694   6.913   1.012 -1.0339 -1.8800  0.5046
15793SOL     OW49916   8.023   9.305   8.628  0.0392  0.3105 -0.3419
15793SOL    HW149917   7.995   9.261   8.708  2.4685 -1.3567 -0.3454
15793SOL    HW249918   8.082   9.374   8.658  0.3310  0.1898 -0.6303
15794SOL     OW49919   0.689   4.715   1.542 -0.3003 -0.5834  0.4872
15794SOL    HW149920   0.636   4.794   1.532 -0.9107 -0.6402  2.8452
15794SOL    HW249921   0.645   4.649   1.489  0.1462  0.5997 -1.4040
15795SOL     OW49922   6.741   4.806   3.411  0.1211  0.9458 -0.1398
15795SOL    HW149923   6.750   4.843   3.499  2.0037 -0.8461  0.4574
15795SOL    HW249924   6.763   4.714   3.421  0.0802  0.6546 -2.4457
15796SOL     OW49925   0.648   2.636   9.869 -0.1113 -0.3500 -0.0997
15796SOL    HW149926   0.629   2.634   9.963 -1.3821  0.9602 -0.3117
15796SOL    HW249927   0.726   2.582   9.859 -0.6304 -1.4382  1.5586
15797SOL     OW49928   3.678   0.220   8.695  0.1947  0.4402 -0.5529
15797SOL    HW149929   3.619   0.294   8.714 -0.6016 -0.1095 -0.8450
15797SOL    HW249930   3.619   0.147   8.676  0.9788 -0.1124 -0.8836
15798SOL     OW49931   8.221   3.866   1.624 -0.0585  0.2749 -0.1442
15798SOL    HW149932   8.147   3.906   1.668 -0.2373 -1.1174  0.8655
15798SOL    HW249933   8.297   3.891   1.676 -0.0535  0.1318 -0.0793
15799SOL     OW49934   7.359   6.954   3.272  0.0392 -0.1949 -0.1146
15799SOL    HW149935   7.321   6.943   3.185  0.6578 -0.4589 -0.3571
15799SOL    HW249936   7.283   6.961   3.330 -0.3838 -0.8845 -0.5698
15800SOL     OW49937   2.364   5.703   6.461  0.2819  0.2693  0.3795
15800SOL    HW149938   2.353   5.707   6.556  1.9459  1.5358  0.5417
15800SOL    HW249939   2.286   5.657   6.429  0.0087 -0.6885  2.4031
15801SOL     OW49940   7.849   7.764   3.529 -0.8281 -0.1929  0.8234
15801SOL    HW149941   7.823   7.855   3.544 -0.4373  0.1415 -0.4880
15801SOL    HW249942   7.871   7.731   3.616 -0.3569  1.1529  1.2205
15802SOL     OW49943   1.509   2.188   8.555  0.0045  0.5208 -0.0452
15802SOL    HW149944   1.500   2.280   8.582  0.5181  0.2696  1.0132
15802SOL    HW249945   1.596   2.184   8.516 -0.7189  0.8732 -1.7663
15803SOL     OW49946   5.330   7.648   1.562 -0.3246  0.0837  0.2907
15803SOL    HW149947   5.284   7.713   1.508  0.9158 -0.6093 -1.6336
15803SOL    HW249948   5.377   7.700   1.626 -0.7775  0.9907 -0.1000
15804SOL     OW49949   0.523   4.622   3.913 -0.1614 -0.4797  0.1034
15804SOL    HW149950   0.597   4.564   3.927 -0.1150 -0.2290  0.9362
15804SOL    HW249951   0.451   4.564   3.887 -0.0192 -0.8755  0.5741
15805SOL     OW49952   7.985   2.525   6.381  0.0081  0.1870  0.6825
15805SOL    HW149953   8.041   2.455   6.415 -0.9594 -1.0946 -0.3017
15805SOL    HW249954   7.902   2.482   6.361 -0.2470  1.3912 -0.9813
15806SOL     OW49955   4.013   9.090   4.130  0.2639 -0.6343 -0.1461
15806SOL    HW149956   4.016   9.178   4.168 -0.9855 -0.6893  0.0904
15806SOL    HW249957   4.073   9.038   4.184 -1.0849 -0.5866  1.4339
15807SOL     OW49958   4.343   7.866   5.977  0.2862  0.6021  0.2480
15807SOL    HW149959   4.387   7.875   5.892  1.0188 -0.7949  0.4600
15807SOL    HW249960   4.292   7.786   5.970  1.2203 -0.1311  1.4832
15808SOL     OW49961   5.558   7.988   4.194  0.7630  0.1128 -0.1450
15808SOL    HW149962   5.626   7.975   4.260  0.5048  0.1287  0.1259
15808SOL    HW249963   5.486   8.030   4.242  0.6518  0.3047 -0.4791
15809SOL     OW49964   8.304   7.638   0.499  0.1342 -0.2452 -0.7339
15809SOL    HW149965   8.298   7.542   0.494  0.0836 -0.2083 -1.3633
15809SOL    HW249966   8.272   7.659   0.587 -0.3253 -0.7683 -0.7704
15810SOL     OW49967   0.656   8.283   1.028 -0.4649 -0.0410  0.2498
15810SOL    HW149968   0.583   8.235   1.066 -1.3908  0.0589 -1.3681
15810SOL    HW249969   0.713   8.215   0.992 -0.3875 -0.0619  0.4135
15811SOL     OW49970   7.364   7.247   2.286 -0.5649  0.2676  0.0532
15811SOL    HW149971   7.356   7.178   2.352  0.4329 -0.2323 -0.3380
15811SOL    HW249972   7.428   7.308   2.323 -2.8762  2.0289  1.2747
15812SOL     OW49973   6.764   6.196   4.330 -0.0582  0.1657 -0.1567
15812SOL    HW149974   6.819   6.145   4.271  0.2315 -0.5863  0.7745
15812SOL    HW249975   6.719   6.258   4.272  0.5366 -0.2962 -1.1183
15813SOL     OW49976  10.007   3.158   1.372  0.0962 -0.2403  0.6552
15813SOL    HW149977   9.977   3.164   1.281  1.5743  0.4087  0.1917
15813SOL    HW249978  10.043   3.070   1.379  1.8997  0.4166 -0.0195
15814SOL     OW49979   3.486   2.030   8.573  0.0642 -0.1369  0.0682
15814SOL    HW149980   3.489   1.989   8.486  1.0762 -0.5035  0.2736
15814SOL    HW249981   3.440   2.112   8.558 -0.3942 -0.5165 -0.6857
15815SOL     OW49982   9.049   3.352   4.885 -0.1094 -0.3743 -0.4016
15815SOL    HW149983   8.977   3.292   4.905 -0.3615 -0.3743 -1.3131
15815SOL    HW249984   9.012   3.439   4.901 -0.0352 -0.4124 -0.0063
15816SOL     OW49985   5.367   1.648   2.962 -0.0175 -0.9444 -0.1452
15816SOL    HW149986   5.356   1.602   2.878 -1.3183 -1.1982  0.1496
15816SOL    HW249987   5.277   1.666   2.991  0.4600  0.3578  0.5327
15817SOL     OW49988   6.302   2.695   3.471 -0.1564  0.2846 -0.0755
15817SOL    HW149989   6.361   2.723   3.401 -0.1800 -0.8858 -0.5703
15817SOL    HW249990   6.222   2.668   3.425 -0.2387 -0.3034  0.4211
15818SOL     OW49991   6.887   1.646   6.464 -0.3216  0.2720  0.0741
15818SOL    HW149992   6.898   1.627   6.371  0.2696 -0.7502  0.3538
15818SOL    HW249993   6.872   1.741   6.467  0.9687  0.5223 -0.9446
15819SOL     OW49994   2.522   7.896   4.896 -0.5589  0.1239  0.2770
15819SOL    HW149995   2.439   7.932   4.928 -0.6984  1.7444 -1.8075
15819SOL    HW249996   2.587   7.963   4.917  0.2979 -1.1851  1.9979
15820SOL     OW49997   7.432   5.635   4.461  0.8270 -0.8977  0.2780
15820SOL    HW149998   7.352   5.661   4.415  1.6994 -0.0045 -0.7786
15820SOL    HW249999   7.402   5.579   4.532 -0.6513 -1.3617 -0.6949
15821SOL     OW50000   5.805   6.074   6.649 -0.5247  0.0745 -0.1922
15821SOL    HW150001   5.877   6.097   6.590 -1.8805 -0.4518 -2.1007
15821SOL    HW250002   5.731   6.126   6.618 -1.6866 -1.4218  0.0097
15822SOL     OW50003   5.341   6.323   7.373  0.0660 -0.3308  0.3759
15822SOL    HW150004   5.423   6.373   7.369 -0.8433  1.3611  2.1152
15822SOL    HW250005   5.345   6.265   7.297  2.8801 -0.2963  0.4363
15823SOL     OW50006   5.931   8.675   0.426 -0.4096 -0.0756  0.1397
15823SOL    HW150007   5.938   8.768   0.446  0.6593 -0.1103 -0.0496
15823SOL    HW250008   5.970   8.631   0.501  1.3719 -0.2819 -0.8746
15824SOL     OW50009   1.600   5.223   1.854  0.4730  0.6441  0.7677
15824SOL    HW150010   1.666   5.188   1.794  1.2489 -0.6720  2.3553
15824SOL    HW250011   1.626   5.315   1.867  0.3715  0.8983 -0.7938
15825SOL     OW50012   2.922   4.498   3.524 -0.0717 -0.3034  0.3323
15825SOL    HW150013   2.990   4.525   3.463  0.3355  0.3844  1.0850
15825SOL    HW250014   2.889   4.415   3.488  0.0715  0.1636 -0.8772
15826SOL     OW50015   9.943   0.888   1.584 -0.4765 -0.3987 -0.0497
15826SOL    HW150016   9.967   0.980   1.574 -1.6173  0.0860  1.4192
15826SOL    HW250017   9.878   0.872   1.516 -0.0178 -0.2178 -0.5331
15827SOL     OW50018   9.626   0.837   3.589  0.4238  0.2485 -0.0139
15827SOL    HW150019   9.636   0.916   3.641  1.3923  0.7035 -0.8738
15827SOL    HW250020   9.679   0.772   3.635  2.0470  0.8992 -0.9210
15828SOL     OW50021   8.643   2.499   8.837  0.6072  0.4038 -0.6704
15828SOL    HW150022   8.680   2.570   8.890  0.5616  0.1134 -0.2484
15828SOL    HW250023   8.581   2.455   8.895  0.6016  0.0475 -0.9434
15829SOL     OW50024   2.925   7.047   8.341 -0.5527 -0.0765 -0.1291
15829SOL    HW150025   2.885   7.131   8.365  0.4620  1.4810 -3.6051
15829SOL    HW250026   2.896   7.031   8.251 -0.8218 -3.5684  0.5020
15830SOL     OW50027   3.374   2.628   2.698  0.4933  0.3122  0.4309
15830SOL    HW150028   3.439   2.666   2.757  0.9613 -0.2330  0.2790
15830SOL    HW250029   3.294   2.677   2.715  1.0957  1.3684  0.2145
15831SOL     OW50030   9.369   8.125   7.053  0.1297  0.1056 -0.0599
15831SOL    HW150031   9.435   8.088   6.993 -0.7451 -2.5399  0.5169
15831SOL    HW250032   9.288   8.081   7.028 -0.6481  0.5037  1.7368
15832SOL     OW50033   5.220   7.609   1.135  0.1985 -0.0015  0.3369
15832SOL    HW150034   5.223   7.659   1.217 -0.6835 -1.0774  1.0484
15832SOL    HW250035   5.307   7.619   1.097  0.7748  0.0873  1.6617
15833SOL     OW50036   8.271   4.800   5.429 -0.2697 -0.1377  0.6259
15833SOL    HW150037   8.230   4.733   5.483 -4.4557  0.1561 -1.9919
15833SOL    HW250038   8.209   4.873   5.429  1.8066  1.6934 -0.7478
15834SOL     OW50039   7.858   9.091   7.614  0.0582 -0.0304 -0.4461
15834SOL    HW150040   7.773   9.049   7.608 -0.4935  0.9649  0.3639
15834SOL    HW250041   7.847   9.176   7.571  0.5894  0.1901 -0.1547
15835SOL     OW50042   8.957   1.620   9.164  0.1061 -0.2065 -0.6930
15835SOL    HW150043   8.914   1.611   9.249  0.5446 -0.2409 -0.4727
15835SOL    HW250044   9.051   1.623   9.185  0.1924  0.2210 -1.1410
15836SOL     OW50045   3.288   9.138   2.837  0.0143  0.2036  0.0026
15836SOL    HW150046   3.252   9.086   2.766 -1.2888  0.0052  0.7984
15836SOL    HW250047   3.369   9.094   2.861 -2.1413 -2.7275  2.1263
15837SOL     OW50048   9.346   1.002   9.333 -0.1073 -0.0664  0.2940
15837SOL    HW150049   9.375   1.059   9.404  1.6733 -1.1049  0.4265
15837SOL    HW250050   9.328   0.918   9.375  1.3669 -0.8124 -0.5239
15838SOL     OW50051   1.653   1.837   1.789  0.9161 -0.6459 -0.0389
15838SOL    HW150052   1.578   1.883   1.827  1.5622  0.1863  0.2481
15838SOL    HW250053   1.727   1.863   1.843  1.3294 -1.9091  0.0296
15839SOL     OW50054   5.378   8.579   8.648 -0.4808 -0.0196 -0.1803
15839SOL    HW150055   5.375   8.670   8.617 -0.0053  0.7788  2.0199
15839SOL    HW250056   5.308   8.574   8.713  0.7791 -0.6633  1.1479
15840SOL     OW50057   7.002   4.460   3.733  0.7734 -0.0139  0.0071
15840SOL    HW150058   7.009   4.500   3.820  0.5890  0.2083 -0.0820
15840SOL    HW250059   7.044   4.374   3.743  3.1292  1.0558 -0.3556
15841SOL     OW50060   8.986   1.341   6.500  0.0444 -0.2446 -0.0567
15841SOL    HW150061   9.047   1.413   6.486  1.4578 -1.1725  1.1689
15841SOL    HW250062   8.910   1.381   6.542  0.7828  0.5518  0.5356
15842SOL     OW50063   1.105   1.848   7.789 -0.2538 -0.0708 -0.0742
15842SOL    HW150064   1.091   1.901   7.868  2.2469  0.1890  0.2401
15842SOL    HW250065   1.017   1.823   7.761 -1.1400 -1.1961  3.4856
15843SOL     OW50066   7.324   6.224   7.386  0.2828  0.2222 -0.3025
15843SOL    HW150067   7.249   6.170   7.412  0.4928 -0.0263 -0.2106
15843SOL    HW250068   7.324   6.297   7.448  1.1947 -0.7336  0.8422
15844SOL     OW50069   4.264   7.885   5.041 -0.2192 -0.3586  0.4840
15844SOL    HW150070   4.255   7.865   4.948 -0.1884 -0.3879  0.4872
15844SOL    HW250071   4.357   7.874   5.059  0.0512  1.2430  0.1568
15845SOL     OW50072  10.138   0.775   9.008 -0.4156  0.4746  0.8961
15845SOL    HW150073  10.129   0.682   8.986 -1.2295  0.5066  1.0883
15845SOL    HW250074  10.104   0.783   9.097 -0.1606  0.9247  0.9581
15846SOL     OW50075   2.796   0.578   2.865 -0.2945  0.3254 -0.1446
15846SOL    HW150076   2.780   0.580   2.770  0.9671 -2.1224 -0.4645
15846SOL    HW250077   2.759   0.660   2.898  0.4400  1.8599 -2.9560
15847SOL     OW50078   7.830   6.745   9.338 -0.0900  0.2890  0.2815
15847SOL    HW150079   7.815   6.771   9.429  0.0511  2.5218 -0.3050
15847SOL    HW250080   7.920   6.713   9.336 -0.0905  0.2429  0.9221
15848SOL     OW50081   2.772   6.853   3.632 -0.1241  0.1044  0.6013
15848SOL    HW150082   2.804   6.774   3.587 -0.0851  0.1641  0.5218
15848SOL    HW250083   2.850   6.891   3.672 -0.0310  0.4563  0.0888
15849SOL     OW50084   0.526   9.567   5.458  0.3389  0.5027 -0.2544
15849SOL    HW150085   0.509   9.480   5.423  2.0890  1.1325 -2.8026
15849SOL    HW250086   0.606   9.557   5.510 -2.0354 -0.3471  3.3678
15850SOL     OW50087   3.702   6.378   7.634 -0.3499 -0.3928  0.5037
15850SOL    HW150088   3.618   6.347   7.668 -1.2404  1.7386  0.3091
15850SOL    HW250089   3.708   6.340   7.547 -2.0264  0.9470 -0.2312
15851SOL     OW50090   6.267   7.663   4.656 -0.1426 -0.5527 -0.0718
15851SOL    HW150091   6.223   7.742   4.625  0.3972 -0.4905 -0.6672
15851SOL    HW250092   6.356   7.669   4.621 -0.2223 -1.6284 -0.4541
15852SOL     OW50093   6.310   8.002   4.520 -0.3852 -0.0420  0.7880
15852SOL    HW150094   6.334   7.963   4.436 -1.1624 -0.1392  0.6019
15852SOL    HW250095   6.392   8.007   4.569 -0.3070 -2.1449  0.9100
15853SOL     OW50096   3.297   2.932   0.309  0.4571  0.6505  0.1325
15853SOL    HW150097   3.204   2.934   0.335  0.3804  0.5585 -0.1287
15853SOL    HW250098   3.297   2.966   0.219  0.3308 -1.8225 -0.8603
15854SOL     OW50099   6.627   8.761   7.433 -0.6446  0.1548 -0.1682
15854SOL    HW150100   6.629   8.855   7.450  1.0235 -0.0667  0.9674
15854SOL    HW250101   6.592   8.722   7.513 -1.8615 -0.1611 -0.8407
15855SOL     OW50102   1.705   0.112   4.681  0.4858 -0.3360 -0.1590
15855SOL    HW150103   1.658   0.171   4.622  0.6395  1.0118  1.0525
15855SOL    HW250104   1.639   0.080   4.742  0.7219 -0.1362  0.2039
15856SOL     OW50105   9.512   4.592   6.575  0.2622  0.3131 -0.0005
15856SOL    HW150106   9.449   4.528   6.608 -0.4907  0.3118 -1.4010
15856SOL    HW250107   9.480   4.676   6.608  0.5036  0.1223  0.7269
15857SOL     OW50108   2.981   2.523   2.219  0.3056 -0.5942  0.2051
15857SOL    HW150109   2.913   2.474   2.175  0.7189  0.1236 -1.2652
15857SOL    HW250110   2.969   2.613   2.190  0.9957 -0.2180  1.0410
15858SOL     OW50111   5.033   5.552   4.796 -0.1257 -0.0490 -0.4418
15858SOL    HW150112   5.111   5.588   4.838  0.3677 -0.2813 -1.1521
15858SOL    HW250113   4.961   5.577   4.854  0.4212  0.5482 -0.0115
15859SOL     OW50114   3.559   3.540   6.431  0.6441 -0.0826  0.0883
15859SOL    HW150115   3.629   3.576   6.487  0.0872  0.5133  0.4067
15859SOL    HW250116   3.562   3.593   6.352  1.3521 -0.8486 -0.4042
15860SOL     OW50117   5.163   7.471   8.431  0.1074 -0.6336 -0.1460
15860SOL    HW150118   5.224   7.444   8.500 -0.7863 -2.6886 -0.1237
15860SOL    HW250119   5.084   7.497   8.478  0.6360  1.1902 -0.2266
15861SOL     OW50120   1.897   5.507   1.900 -0.1980 -0.0140 -0.0321
15861SOL    HW150121   1.805   5.501   1.926 -0.1508  2.0148  0.6257
15861SOL    HW250122   1.896   5.557   1.818  0.5697  2.9684  1.7165
15862SOL     OW50123   7.886   3.346   2.976 -0.0909 -0.1156  0.0311
15862SOL    HW150124   7.802   3.387   2.995  0.2334  0.6176 -0.1265
15862SOL    HW250125   7.900   3.286   3.050  0.1510  1.1528  1.0382
15863SOL     OW50126   5.305   5.527   3.813 -0.2917  0.0679  0.3039
15863SOL    HW150127   5.298   5.478   3.895  1.3685  1.4046  1.2513
15863SOL    HW250128   5.232   5.589   3.816 -1.4189 -1.2138 -0.1541
15864SOL     OW50129   5.896   6.301   7.457 -0.2734 -0.2878 -0.1239
15864SOL    HW150130   5.968   6.239   7.465  0.3684  0.5665  0.9730
15864SOL    HW250131   5.823   6.261   7.505 -0.5531 -1.1861 -1.2962
15865SOL     OW50132   2.174   7.346   8.114  0.5456  0.2191 -0.1241
15865SOL    HW150133   2.135   7.388   8.038 -0.9944 -0.8965  0.0177
15865SOL    HW250134   2.247   7.294   8.079 -1.0326 -1.4234 -1.0494
15866SOL     OW50135   4.735   4.895   3.670  0.1821 -0.2953 -0.0280
15866SOL    HW150136   4.801   4.876   3.604 -1.5935 -1.1257 -1.6022
15866SOL    HW250137   4.773   4.967   3.721  2.1434 -0.5256 -1.1016
15867SOL     OW50138   6.860   1.145   3.574  0.2064 -0.6031  0.4608
15867SOL    HW150139   6.854   1.106   3.661  0.3021 -1.5822  0.0361
15867SOL    HW250140   6.932   1.098   3.532  0.2802 -0.0071 -0.0756
15868SOL     OW50141   3.500   7.796   4.677  0.0155  0.2801 -0.2563
15868SOL    HW150142   3.555   7.730   4.635 -0.8958 -0.4749 -0.2727
15868SOL    HW250143   3.470   7.852   4.606  0.7255  0.6825 -0.2513
15869SOL     OW50144   7.544   4.354   6.725  0.3500 -0.5549 -0.2876
15869SOL    HW150145   7.602   4.431   6.727 -0.0357 -0.2554 -0.5715
15869SOL    HW250146   7.537   4.333   6.632 -3.0956  1.7705 -0.6458
15870SOL     OW50147  10.076   9.749   0.239 -0.8185 -0.5954 -0.5908
15870SOL    HW150148  10.006   9.794   0.287 -1.2893 -1.7181 -0.1954
15870SOL    HW250149  10.090   9.803   0.161 -0.2501  1.0810  0.6479
15871SOL     OW50150   6.580   9.656   8.583  0.4470  0.2274 -0.4816
15871SOL    HW150151   6.674   9.676   8.586  0.8692 -1.8897  2.8359
15871SOL    HW250152   6.576   9.566   8.553 -0.4923  0.0977  0.0212
15872SOL     OW50153   7.660  10.167   8.230  0.5521  0.1261 -0.2824
15872SOL    HW150154   7.649  10.234   8.297 -1.9899 -1.3477  0.8324
15872SOL    HW250155   7.626  10.207   8.150  1.3183  1.0076 -0.1773
15873SOL     OW50156   7.012   2.603   3.519  0.4235 -0.2335 -0.9477
15873SOL    HW150157   7.014   2.507   3.514  1.8455 -0.3793  1.3572
15873SOL    HW250158   6.921   2.625   3.536  0.1349 -1.2127 -1.2195
15874SOL     OW50159   6.941   0.853   3.307  0.1333 -0.3537  0.0058
15874SOL    HW150160   6.920   0.792   3.378 -1.2720  0.8199  0.6245
15874SOL    HW250161   7.035   0.867   3.314 -0.1160  0.4438  2.2128
15875SOL     OW50162   5.309   8.828   2.726  0.2676  0.3392  0.0941
15875SOL    HW150163   5.322   8.743   2.768  2.0855  0.1077 -0.8848
15875SOL    HW250164   5.258   8.808   2.647 -0.3926  0.3355  0.5194
15876SOL     OW50165   9.826   7.018   0.139  0.1845  0.1172  0.5780
15876SOL    HW150166   9.785   6.952   0.195 -0.4657  0.3902  0.4290
15876SOL    HW250167   9.873   7.075   0.199 -0.1518  0.1538  0.8050
15877SOL     OW50168   2.438   8.307   4.344 -0.0339 -0.2135 -0.2628
15877SOL    HW150169   2.389   8.296   4.263 -0.5626 -0.6296  0.1045
15877SOL    HW250170   2.452   8.401   4.352 -1.9332  0.0538  0.2923
15878SOL     OW50171   5.963   0.052   7.945 -0.5140 -0.6615 -0.3342
15878SOL    HW150172   5.970   0.053   7.849  3.0660 -1.9577 -0.1509
15878SOL    HW250173   5.986   0.141   7.972 -1.2980 -0.3590 -0.6362
15879SOL     OW50174   4.059   2.342   3.088  1.2505 -0.1432  0.1559
15879SOL    HW150175   4.144   2.382   3.107  1.3776 -0.3438  0.0075
15879SOL    HW250176   4.035   2.298   3.170  0.8411  0.7222  0.5008
15880SOL     OW50177   0.475   0.538   1.383  0.7057  0.5279  0.1724
15880SOL    HW150178   0.471   0.633   1.372  1.4872  0.5756  0.2819
15880SOL    HW250179   0.386   0.513   1.411  0.2165  1.0993 -0.8286
15881SOL     OW50180   8.388   9.727   2.036  0.0822  0.0830  0.1496
15881SOL    HW150181   8.317   9.690   2.090  0.6638  0.4666  1.1774
15881SOL    HW250182   8.450   9.655   2.027 -0.5800 -0.3570 -1.0271
15882SOL     OW50183   2.989   3.876   8.168  0.2994 -0.4879 -0.3113
15882SOL    HW150184   3.057   3.913   8.111  0.4292 -2.5639 -1.5925
15882SOL    HW250185   3.002   3.918   8.253  2.7251 -0.2878 -0.7512
15883SOL     OW50186   4.301   0.049   8.934  0.3566 -0.5659  0.0492
15883SOL    HW150187   4.344  -0.018   8.881  3.1445  1.1586  0.0371
15883SOL    HW250188   4.280   0.119   8.871  3.0480  1.1849  1.0073
15884SOL     OW50189   3.225   0.448   3.226  0.4750 -0.0833 -0.4897
15884SOL    HW150190   3.274   0.433   3.306  1.2669  1.0854 -0.7348
15884SOL    HW250191   3.134   0.435   3.250  0.8670 -1.8338  0.0774
15885SOL     OW50192   8.934   6.703   8.832 -0.1067  0.4882 -0.0923
15885SOL    HW150193   8.929   6.757   8.910 -0.6283 -1.3094  1.1557
15885SOL    HW250194   9.027   6.683   8.821 -0.1722 -0.3684  0.8671
15886SOL     OW50195   4.900   1.238   7.035 -0.2329 -0.0708 -0.4403
15886SOL    HW150196   4.951   1.276   7.107  1.0623 -2.8835  0.1919
15886SOL    HW250197   4.874   1.313   6.982  2.2780  1.7130  0.7342
15887SOL     OW50198   1.513   4.644   8.288  0.5198  0.4343  0.1641
15887SOL    HW150199   1.424   4.676   8.272  1.2991  3.9997  2.3328
15887SOL    HW250200   1.560   4.662   8.207 -0.7511 -1.6065 -1.0470
15888SOL     OW50201   9.435   2.945   6.503  0.2186 -0.4105  0.1115
15888SOL    HW150202   9.496   3.007   6.463  1.3810 -2.2576 -1.0587
15888SOL    HW250203   9.466   2.859   6.474 -1.3917 -1.5395  1.6498
15889SOL     OW50204   6.492   1.942   2.041 -0.3583 -0.4644 -0.4638
15889SOL    HW150205   6.456   1.860   2.008 -0.3437  0.5467 -3.1125
15889SOL    HW250206   6.519   1.990   1.962  1.2009  1.3522  1.1267
15890SOL     OW50207   5.319   5.446   3.142 -0.0946 -0.5112 -0.3942
15890SOL    HW150208   5.378   5.520   3.131  0.2053 -0.8149 -0.8656
15890SOL    HW250209   5.345   5.384   3.074 -0.2027 -1.1415  0.1330
15891SOL     OW50210   6.253   5.493   2.544  0.2717  0.7842 -0.2319
15891SOL    HW150211   6.320   5.432   2.573 -0.3842  0.0379 -0.2812
15891SOL    HW250212   6.181   5.481   2.605 -0.6482  0.0657 -1.4409
15892SOL     OW50213   3.962   5.960   3.730 -0.3688  0.0199 -0.5583
15892SOL    HW150214   3.950   5.964   3.635 -0.9751  1.6254 -0.4301
15892SOL    HW250215   3.881   5.995   3.766 -0.2435 -0.8001  0.5762
15893SOL     OW50216   2.617   6.370   7.850  0.1684 -0.4236  0.4256
15893SOL    HW150217   2.571   6.338   7.772  0.2130  0.5767 -0.0149
15893SOL    HW250218   2.709   6.365   7.827  0.2339 -1.1496  0.8183
15894SOL     OW50219   1.599   2.724   2.693  0.3753 -0.6359 -0.0482
15894SOL    HW150220   1.580   2.635   2.665  1.0753 -0.9126  0.3347
15894SOL    HW250221   1.586   2.723   2.788  0.7325 -0.4276  0.0036
15895SOL     OW50222   9.309   5.175   3.951 -0.2182  0.3237  0.2640
15895SOL    HW150223   9.273   5.148   4.036 -1.0292  2.1096  0.5050
15895SOL    HW250224   9.387   5.224   3.973  0.7297 -0.9773 -0.1359
15896SOL     OW50225   8.294   0.767   1.181  0.3824  0.2287 -0.9109
15896SOL    HW150226   8.331   0.855   1.180 -0.0940  0.4299 -1.6034
15896SOL    HW250227   8.271   0.750   1.089 -0.9672  0.0053 -0.5403
15897SOL     OW50228   2.451   2.348   5.282  0.3429 -0.1299 -0.0847
15897SOL    HW150229   2.528   2.320   5.231  0.6603 -1.2931  1.0005
15897SOL    HW250230   2.485   2.413   5.343  0.3423 -0.1967 -0.0134
15898SOL     OW50231   9.401   6.802   1.690  0.0850 -0.2402  0.3473
15898SOL    HW150232   9.407   6.831   1.599 -0.7865 -2.5353 -0.4818
15898SOL    HW250233   9.318   6.837   1.721 -0.3709 -0.7939 -0.2447
15899SOL     OW50234   4.666   3.770   5.348  0.1321  0.1043 -0.7214
15899SOL    HW150235   4.601   3.760   5.278 -2.1519  2.5422  0.9361
15899SOL    HW250236   4.719   3.845   5.320  0.3521 -0.0284 -0.6610
15900SOL     OW50237   9.040   2.191   0.715 -0.2545 -0.1849  0.5047
15900SOL    HW150238   8.993   2.244   0.651 -0.7346  2.3436  2.8272
15900SOL    HW250239   9.131   2.191   0.685 -0.6629  0.0608 -0.7371
15901SOL     OW50240   1.577   0.370   4.587  0.1136  0.0431 -0.0564
15901SOL    HW150241   1.496   0.416   4.611 -0.9016 -2.8590  2.3326
15901SOL    HW250242   1.571   0.359   4.492 -1.4936  1.3028 -0.1223
15902SOL     OW50243   5.473   6.968   1.308 -0.1324  0.1585  0.2047
15902SOL    HW150244   5.416   7.043   1.288 -0.5278 -0.7284 -2.1526
15902SOL    HW250245   5.558   6.993   1.271 -0.4976 -0.8985 -1.4091
15903SOL     OW50246   9.079   1.385   1.422  0.0188  1.0108  0.5766
15903SOL    HW150247   9.028   1.336   1.358  0.9356  0.2677  0.4021
15903SOL    HW250248   9.169   1.357   1.407  0.2173  0.6155  2.3753
15904SOL     OW50249   6.154  10.035   3.103 -0.1966  0.2110  0.7254
15904SOL    HW150250   6.228  10.083   3.139  0.6092 -1.2665  1.1053
15904SOL    HW250251   6.187   9.946   3.091 -0.6674  0.4357 -2.9188
15905SOL     OW50252   6.376   2.448   8.493 -0.1743  0.0877  0.5880
15905SOL    HW150253   6.345   2.422   8.580 -2.6011 -1.3536 -0.6649
15905SOL    HW250254   6.337   2.534   8.479  1.0990  0.8002  1.3482
15906SOL     OW50255   2.862   0.526   1.336 -0.2581 -0.2582  0.1105
15906SOL    HW150256   2.832   0.584   1.407  0.1190  0.4847 -0.3311
15906SOL    HW250257   2.786   0.519   1.278 -0.0571  0.4428 -0.2466
15907SOL     OW50258   0.593   3.671   0.047 -0.4443  0.4462  0.9136
15907SOL    HW150259   0.682   3.644   0.072  0.0115  1.2280  0.2023
15907SOL    HW250260   0.573   3.618  -0.030 -0.2096  0.9464  0.5051
15908SOL     OW50261   4.671   9.875   2.348 -0.1601  0.1361  0.6311
15908SOL    HW150262   4.585   9.888   2.385 -0.1404  1.6787  0.1515
15908SOL    HW250263   4.704   9.796   2.391 -2.0852 -0.8840  0.2829
15909SOL     OW50264   6.627   1.178   1.205 -0.2495  0.0666 -0.8650
15909SOL    HW150265   6.547   1.214   1.167  0.2978  0.6569 -1.4671
15909SOL    HW250266   6.660   1.118   1.139  0.2161  0.4080 -0.9423
15910SOL     OW50267   0.723   9.030   1.241  0.5176 -0.0204  0.5596
15910SOL    HW150268   0.777   9.103   1.210 -0.9286  0.9385  0.2426
15910SOL    HW250269   0.712   9.047   1.335 -1.0436  0.9966  0.2091
15911SOL     OW50270   2.342   0.467   9.786 -0.2388 -0.3300  0.5616
15911SOL    HW150271   2.341   0.551   9.740 -1.5526 -0.5250  0.2358
15911SOL    HW250272   2.425   0.427   9.760 -0.6487 -0.1341 -1.0992
15912SOL     OW50273   7.105   3.377   3.405  0.9407 -0.1673  0.0817
15912SOL    HW150274   7.122   3.438   3.476  0.7881 -1.6067  1.3657
15912SOL    HW250275   7.188   3.331   3.391  1.4033  1.1435 -1.7019
15913SOL     OW50276   4.540   2.371   4.812  0.2653 -0.3667  0.2145
15913SOL    HW150277   4.497   2.408   4.735 -0.1560  0.6530  0.9219
15913SOL    HW250278   4.557   2.447   4.869  3.2322 -0.7076 -0.1432
15914SOL     OW50279   3.754   8.873   2.799 -0.1924 -0.7089  0.1988
15914SOL    HW150280   3.837   8.831   2.777  0.8140  0.7108  1.1603
15914SOL    HW250281   3.724   8.827   2.877 -1.2060 -2.3760 -1.1486
15915SOL     OW50282   9.541   3.905   0.685 -0.2162 -0.0491 -0.5909
15915SOL    HW150283   9.602   3.831   0.680 -0.7002 -0.4684 -0.3380
15915SOL    HW250284   9.463   3.869   0.728 -0.5633  0.5361 -0.7299
15916SOL     OW50285   1.138   9.907   2.476 -0.0853 -0.4619  0.0309
15916SOL    HW150286   1.220   9.953   2.493  1.4257 -2.7556 -0.8689
15916SOL    HW250287   1.111   9.936   2.389  0.6525 -0.9612 -0.3665
15917SOL     OW50288   0.535   5.857   0.178  0.0221  0.8116  0.5367
15917SOL    HW150289   0.629   5.871   0.165 -0.1374 -0.2546 -2.0871
15917SOL    HW250290   0.495   5.940   0.154  0.0272 -0.0176 -2.6266
15918SOL     OW50291   1.703   3.752   6.542  0.1353  0.2283  0.0020
15918SOL    HW150292   1.711   3.792   6.629 -1.6651  0.1327  0.2397
15918SOL    HW250293   1.715   3.825   6.481  1.8977  0.2123  0.2901
15919SOL     OW50294   3.149   9.708   7.439 -0.5860 -0.0282  0.2173
15919SOL    HW150295   3.171   9.662   7.359 -0.4460 -0.8323  0.7088
15919SOL    HW250296   3.118   9.794   7.410  1.8612  0.6334 -0.5593
15920SOL     OW50297   0.187   8.873   1.126  0.1692 -1.0352  0.1846
15920SOL    HW150298   0.271   8.918   1.136 -0.7216  1.4898 -2.9921
15920SOL    HW250299   0.206   8.799   1.069  0.2746 -0.5095 -0.4689
15921SOL     OW50300   5.939   5.026   6.950  0.0068 -0.6610  0.0797
15921SOL    HW150301   6.022   5.074   6.949 -1.6449  2.2932 -0.4234
15921SOL    HW250302   5.915   5.017   6.858 -0.0491 -1.9096  0.2022
15922SOL     OW50303  10.131  10.014   0.787  0.5554 -0.0376 -0.1709
15922SOL    HW150304  10.156  10.049   0.702 -0.4217 -1.6354 -1.1254
15922SOL    HW250305  10.194   9.944   0.804 -0.0949 -0.6444 -0.2282
15923SOL     OW50306   1.072   8.078   9.769  0.2053  0.5254 -0.4848
15923SOL    HW150307   1.141   8.012   9.761 -0.7969 -0.6026  0.0390
15923SOL    HW250308   1.115   8.153   9.811  1.2377  0.0393 -0.6632
15924SOL     OW50309   8.565   4.032   7.517 -0.0887 -0.5358 -0.4161
15924SOL    HW150310   8.641   4.010   7.570  0.3574  1.7355 -0.0563
15924SOL    HW250311   8.515   3.950   7.511  0.6195 -1.2210  2.2414
15925SOL     OW50312   2.044   0.244   1.151  0.0553  0.2375 -0.1565
15925SOL    HW150313   2.104   0.222   1.079  2.6776 -1.3757  2.4003
15925SOL    HW250314   2.058   0.338   1.165 -0.3133  0.5165 -1.5829
15926SOL     OW50315   1.293   4.293   0.934  0.5895  0.2665  0.2184
15926SOL    HW150316   1.205   4.272   0.901 -0.2118 -1.2815  3.1648
15926SOL    HW250317   1.352   4.265   0.863 -1.1710 -0.6370 -0.9500
15927SOL     OW50318   2.041   2.374   8.433 -0.4825  0.0963  0.4127
15927SOL    HW150319   2.106   2.318   8.476 -1.5756 -1.1785  0.4581
15927SOL    HW250320   2.065   2.463   8.459  1.3928 -0.3247  0.1934
15928SOL     OW50321   7.300   1.984   4.316 -0.1674  0.6590 -0.3172
15928SOL    HW150322   7.327   1.993   4.407  0.5949  0.4807 -0.5301
15928SOL    HW250323   7.263   2.070   4.294 -2.0346  0.1451  0.7084
15929SOL     OW50324   3.916   3.511   0.702  0.0845 -0.0540  0.2909
15929SOL    HW150325   3.895   3.601   0.727 -1.5644  0.2650 -2.0881
15929SOL    HW250326   3.837   3.461   0.724  0.4142 -0.6445  0.1417
15930SOL     OW50327   2.668   4.162   2.826  0.0874  0.1742  0.5504
15930SOL    HW150328   2.760   4.181   2.807 -0.0518  0.9749  0.6360
15930SOL    HW250329   2.650   4.213   2.905 -0.4288  0.0139  0.5332
15931SOL     OW50330   3.615   4.484  10.007  0.7761  0.4596 -0.9472
15931SOL    HW150331   3.553   4.504  10.077 -1.2341  0.7664 -2.7431
15931SOL    HW250332   3.641   4.393  10.024  0.6319  0.6668  0.4344
15932SOL     OW50333   5.264   5.953   2.388 -0.2566  0.4433  0.1310
15932SOL    HW150334   5.258   6.030   2.444 -0.1194  0.6523 -0.1423
15932SOL    HW250335   5.178   5.912   2.395 -0.6144  1.1054 -0.4246
15933SOL     OW50336   9.934   2.454   0.943 -0.0993  0.5578 -0.1104
15933SOL    HW150337  10.011   2.446   0.887 -0.8784 -1.2567 -0.9740
15933SOL    HW250338   9.891   2.534   0.914 -0.2401 -0.1149 -1.8239
15934SOL     OW50339   9.150   9.315   9.393 -0.1935 -0.2964  0.0923
15934SOL    HW150340   9.185   9.278   9.312  0.5864  1.1791 -0.2468
15934SOL    HW250341   9.056   9.321   9.378  0.1684  1.8315 -1.4670
15935SOL     OW50342   9.397   1.576   1.928 -0.6540 -0.0583  0.3251
15935SOL    HW150343   9.321   1.631   1.943 -1.3893 -1.2075  0.8935
15935SOL    HW250344   9.432   1.606   1.844 -0.3572  2.0226  1.1746
15936SOL     OW50345   3.072   8.361  10.153 -0.0159 -0.3395 -0.4423
15936SOL    HW150346   3.144   8.414  10.188 -0.5073  0.7286 -1.0391
15936SOL    HW250347   3.007   8.359  10.223 -0.3468  0.5397 -0.7131
15937SOL     OW50348   6.626   4.211   8.662 -0.5854  0.0782  0.3255
15937SOL    HW150349   6.656   4.235   8.574  0.4359 -0.8267  0.4189
15937SOL    HW250350   6.706   4.184   8.708 -1.0116  1.1162  1.7310
15938SOL     OW50351   6.613   0.234   8.831  0.6991 -0.4193 -0.2845
15938SOL    HW150352   6.680   0.282   8.880  0.4717  0.2451 -0.6192
15938SOL    HW250353   6.534   0.288   8.839 -0.1006 -1.7443  1.0445
15939SOL     OW50354   4.740   5.300   8.654  0.6320 -0.6970 -0.3633
15939SOL    HW150355   4.710   5.247   8.581  0.3044 -0.1449 -0.6304
15939SOL    HW250356   4.666   5.305   8.714  0.4940 -0.1335 -0.5717
15940SOL     OW50357   3.885   4.580   3.998  0.4521  0.2662  0.1885
15940SOL    HW150358   3.809   4.532   4.030  0.7793 -0.1215  0.4034
15940SOL    HW250359   3.850   4.661   3.962 -0.1026 -0.0964 -0.0951
15941SOL     OW50360   5.427   8.658   3.224  0.4801 -0.7901  0.2290
15941SOL    HW150361   5.435   8.683   3.132 -2.5864 -0.9208 -0.1043
15941SOL    HW250362   5.466   8.732   3.272 -1.7131  1.2655 -1.0276
15942SOL     OW50363   5.169   9.485   2.814 -0.1893 -0.2400 -0.3307
15942SOL    HW150364   5.253   9.529   2.802 -0.5791  1.0518  1.3777
15942SOL    HW250365   5.182   9.427   2.889 -0.3757 -1.1793 -1.0304
15943SOL     OW50366   7.761   1.925   8.545  0.0195 -0.5591  0.2994
15943SOL    HW150367   7.779   1.958   8.457 -0.1575  0.3671  0.5977
15943SOL    HW250368   7.706   1.848   8.531 -1.3747  0.5113 -0.3557
15944SOL     OW50369   4.055   6.384   2.359  0.1280  0.1815  0.3761
15944SOL    HW150370   3.975   6.434   2.343 -0.0553  0.2297  1.3803
15944SOL    HW250371   4.079   6.405   2.449  2.0002  1.1589 -0.3166
15945SOL     OW50372   0.515   7.892   8.674  0.4627 -0.2664 -0.3435
15945SOL    HW150373   0.481   7.914   8.587  0.6913  1.4452 -0.0146
15945SOL    HW250374   0.438   7.872   8.726  0.1123  1.1571 -0.2835
15946SOL     OW50375   1.350   7.453   4.295  0.1163  0.4020 -0.1345
15946SOL    HW150376   1.382   7.402   4.221 -1.1802 -1.3860  0.4849
15946SOL    HW250377   1.287   7.514   4.258 -1.5955 -1.4597 -0.3416
15947SOL     OW50378   0.507   5.118   4.335 -0.0820  0.3325 -0.1167
15947SOL    HW150379   0.545   5.061   4.267  0.2397  0.0462  0.3001
15947SOL    HW250380   0.414   5.122   4.313  0.0327  0.2999 -0.6214
15948SOL     OW50381   4.962   0.455   8.408 -0.1752  0.0550 -0.2841
15948SOL    HW150382   4.999   0.367   8.411 -0.4239 -0.0176  1.1609
15948SOL    HW250383   4.918   0.465   8.492 -0.2951  1.4965 -0.5057
15949SOL     OW50384   4.368   4.137   1.413 -0.3013  0.0627 -0.2244
15949SOL    HW150385   4.365   4.232   1.412 -0.0367  0.0735 -1.5115
15949SOL    HW250386   4.299   4.111   1.474 -0.1072  1.0833  0.4308
15950SOL     OW50387   0.960   6.815   2.815  0.4589 -0.0211  0.6174
15950SOL    HW150388   1.011   6.753   2.764  0.1332  0.7114 -0.6161
15950SOL    HW250389   0.880   6.768   2.839 -0.2475  0.2233 -1.1776
15951SOL     OW50390   7.220   7.468   2.068 -0.1672 -0.0684 -0.1351
15951SOL    HW150391   7.287   7.453   2.001  0.9441  0.9944  0.6914
15951SOL    HW250392   7.212   7.385   2.114 -0.4665 -0.6153 -1.1692
15952SOL     OW50393   4.532   2.196   1.238 -0.0506 -0.0703 -0.4932
15952SOL    HW150394   4.478   2.276   1.232 -1.6887 -0.9924  1.1817
15952SOL    HW250395   4.537   2.163   1.149 -2.5750 -0.1333 -0.6400
15953SOL     OW50396   0.270   3.065   4.993 -0.3977 -0.6252  0.5636
15953SOL    HW150397   0.235   3.043   4.907 -0.3130  2.1060 -0.2013
15953SOL    HW250398   0.195   3.095   5.043  0.2879  2.3218 -0.1055
15954SOL     OW50399   5.658   5.881   5.833  0.2573  0.2101  0.1024
15954SOL    HW150400   5.694   5.837   5.756  0.8898  0.2427  0.3778
15954SOL    HW250401   5.571   5.911   5.805 -0.2701 -1.3994 -0.0045
15955SOL     OW50402   6.160   1.276   7.072 -0.5772  0.0304 -0.0454
15955SOL    HW150403   6.160   1.185   7.042  0.7688 -0.2385  0.7414
15955SOL    HW250404   6.244   1.286   7.116 -0.3704  1.9021 -0.8419
15956SOL     OW50405   4.235   0.779   3.326  0.1024  0.7726 -0.1295
15956SOL    HW150406   4.202   0.741   3.407 -1.3042 -0.7547 -1.3699
15956SOL    HW250407   4.233   0.873   3.341  1.1151  0.4824  2.0659
15957SOL     OW50408   5.542   8.460   6.135  0.5182  0.2312 -0.5646
15957SOL    HW150409   5.472   8.505   6.088  0.8588  0.1126 -1.1920
15957SOL    HW250410   5.511   8.370   6.144  0.0321  0.4819  0.2944
15958SOL     OW50411   6.705   3.377   4.778  0.2245 -0.0141 -0.8492
15958SOL    HW150412   6.634   3.334   4.826 -0.8881  0.9117 -1.6354
15958SOL    HW250413   6.761   3.415   4.846  0.2744 -1.2188 -0.2082
15959SOL     OW50414   4.263   4.506   5.123  0.3579 -0.1511  0.3135
15959SOL    HW150415   4.349   4.546   5.126 -0.3392  1.2998  1.9641
15959SOL    HW250416   4.209   4.560   5.181 -1.8616 -0.5558 -1.2860
15960SOL     OW50417   4.334   6.312   7.057 -0.1226  0.1393 -0.2498
15960SOL    HW150418   4.412   6.359   7.085 -0.2035  0.3943 -0.4561
15960SOL    HW250419   4.309   6.260   7.133 -0.0939  0.5036  0.0096
15961SOL     OW50420   0.821   4.350   0.292 -0.1154  0.2568  0.4313
15961SOL    HW150421   0.906   4.323   0.257 -0.8111 -0.3658 -0.8402
15961SOL    HW250422   0.804   4.435   0.251 -0.3290  0.1462  0.2897
15962SOL     OW50423   9.108   3.088   1.984  0.3707 -0.0237  0.6714
15962SOL    HW150424   9.175   3.024   2.008 -0.1059 -0.1545  1.6654
15962SOL    HW250425   9.084   3.130   2.066  0.3183  1.0956  0.1038
15963SOL     OW50426   4.679   9.215   9.935 -0.1213 -0.3615  0.1681
15963SOL    HW150427   4.672   9.120   9.938  2.7369 -0.6132  0.1495
15963SOL    HW250428   4.651   9.239   9.847 -2.3967 -1.0204  0.7052
15964SOL     OW50429   0.003   6.013   5.954 -0.5453  0.5713 -0.3391
15964SOL    HW150430   0.095   6.012   5.931 -0.7951  1.4712 -1.4062
15964SOL    HW250431  -0.010   6.096   5.999 -0.8512  0.4730 -0.2437
15965SOL     OW50432   5.289   0.578   1.252  0.3157 -0.1278  0.4164
15965SOL    HW150433   5.366   0.557   1.198  0.0867 -0.7030  0.3082
15965SOL    HW250434   5.231   0.503   1.240 -0.2402  0.2830  0.5439
15966SOL     OW50435   5.044   1.009   2.144  0.2182 -0.2809 -0.0674
15966SOL    HW150436   4.950   0.995   2.150  0.2902  0.0685  2.0450
15966SOL    HW250437   5.083   0.932   2.186  0.7938  1.0071  1.8401
15967SOL     OW50438   7.078   6.120   9.985 -0.0750  0.3547  0.5291
15967SOL    HW150439   7.037   6.084   9.906 -0.1461  1.0054  0.2640
15967SOL    HW250440   7.154   6.168   9.953  1.6299 -1.8945  1.1377
15968SOL     OW50441   8.027   4.132   8.462  0.5228 -0.6202 -0.1327
15968SOL    HW150442   7.974   4.063   8.421  1.7363 -0.1229 -2.6229
15968SOL    HW250443   8.030   4.201   8.397  3.2658 -0.1578  0.4365
15969SOL     OW50444   2.968   8.244   5.635 -0.1422 -0.3270  0.1497
15969SOL    HW150445   2.881   8.271   5.604  0.2758 -0.9550 -1.6200
15969SOL    HW250446   3.012   8.327   5.654 -0.9337  0.0230  0.5163
15970SOL     OW50447   0.169   8.607   8.588  0.3991 -0.7388 -0.5134
15970SOL    HW150448   0.202   8.537   8.532  1.5074 -1.2809  0.7846
15970SOL    HW250449   0.100   8.567   8.639 -0.2506 -0.3815 -1.1029
15971SOL     OW50450   5.150   8.737   4.495 -0.1381  0.2441 -0.3804
15971SOL    HW150451   5.226   8.775   4.539 -1.4286 -0.6593  2.7523
15971SOL    HW250452   5.184   8.704   4.412  2.9642 -0.4154  1.1007
15972SOL     OW50453   0.481   9.239   9.530 -0.3993  0.0207  0.0650
15972SOL    HW150454   0.473   9.212   9.621 -1.4042  1.6089  0.4553
15972SOL    HW250455   0.549   9.182   9.494  0.1008 -0.5094  1.8301
15973SOL     OW50456   8.332   5.534   8.997  0.2710 -0.4034  0.2087
15973SOL    HW150457   8.401   5.550   8.932  1.7094 -0.2647  1.7352
15973SOL    HW250458   8.322   5.617   9.043 -0.9040 -0.4339  0.0280
15974SOL     OW50459   6.471   6.672   5.795 -0.6340 -0.6225 -0.0731
15974SOL    HW150460   6.438   6.663   5.884 -1.3768 -0.7022 -0.3549
15974SOL    HW250461   6.404   6.631   5.740  0.0299 -0.9656 -0.6320
15975SOL     OW50462   1.618   7.203   6.156 -0.2441  0.1719 -0.6131
15975SOL    HW150463   1.697   7.240   6.117  1.0904 -0.4120  1.4380
15975SOL    HW250464   1.640   7.111   6.173 -0.7833  0.3806  1.3941
15976SOL     OW50465   1.732   0.173   5.489 -0.3204 -0.0278  0.1207
15976SOL    HW150466   1.724   0.158   5.583 -1.8877 -1.5711 -0.2446
15976SOL    HW250467   1.785   0.253   5.482  0.0461 -0.0561  2.2934
15977SOL     OW50468   0.570   1.229   5.695  0.2416  0.6865 -0.4478
15977SOL    HW150469   0.507   1.202   5.762  0.9671 -0.3484 -0.1662
15977SOL    HW250470   0.535   1.311   5.661 -1.0853  0.2953 -0.0686
15978SOL     OW50471   8.828   4.177   9.526 -0.1314  0.4597  0.3711
15978SOL    HW150472   8.776   4.197   9.448  0.6533  1.2043  0.0305
15978SOL    HW250473   8.767   4.133   9.585 -1.3123  1.8146  0.2020
15979SOL     OW50474  10.083   0.233   4.262 -0.1163  0.5548  0.1679
15979SOL    HW150475  10.010   0.189   4.219 -0.0295 -0.9976  1.5348
15979SOL    HW250476  10.097   0.313   4.211 -3.3824  1.3970  0.4643
15980SOL     OW50477   1.762   7.858   3.189 -0.1483 -0.0060 -0.1163
15980SOL    HW150478   1.715   7.835   3.109 -0.9156  0.8567  0.0754
15980SOL    HW250479   1.808   7.778   3.214  0.6480 -0.0709 -1.7926
15981SOL     OW50480   5.336   6.924   0.908  0.4594  0.6038  0.1884
15981SOL    HW150481   5.384   6.863   0.852  1.2930  1.1434  0.3062
15981SOL    HW250482   5.246   6.922   0.875  0.4274 -0.8824  0.3586
15982SOL     OW50483  10.044   5.115   6.899 -0.2895  0.2562  0.0305
15982SOL    HW150484   9.998   5.199   6.900  0.4462  0.6584  1.8479
15982SOL    HW250485   9.981   5.053   6.937 -0.2749  0.2980  0.1234
15983SOL     OW50486   3.024   3.504   2.820 -0.1880  0.1335  0.6549
15983SOL    HW150487   3.114   3.482   2.842 -0.4366 -1.2329  0.3472
15983SOL    HW250488   3.024   3.514   2.725 -0.2249  0.8008  0.7214
15984SOL     OW50489   3.739   0.191   5.469 -0.7578 -0.5711  0.4816
15984SOL    HW150490   3.699   0.204   5.383  0.2140  0.5914  0.1860
15984SOL    HW250491   3.701   0.261   5.524  1.4820  1.1071 -0.0383
15985SOL     OW50492   8.687   7.385   3.428 -0.1135  0.6141 -0.5333
15985SOL    HW150493   8.653   7.457   3.481 -0.2874 -1.3021  2.0260
15985SOL    HW250494   8.781   7.386   3.444  0.1095  1.2615 -1.7874
15986SOL     OW50495   6.904   5.868   6.910  0.1153 -0.4293 -0.3854
15986SOL    HW150496   6.840   5.909   6.853  0.9065 -0.9033 -1.6414
15986SOL    HW250497   6.852   5.813   6.969 -0.9051  1.9624  1.0229
15987SOL     OW50498  10.043   9.420   1.808 -0.2134  0.0193 -0.3737
15987SOL    HW150499  10.121   9.447   1.855  1.3419 -1.5840 -1.9435
15987SOL    HW250500   9.988   9.378   1.874  0.4942  0.6409  0.6230
15988SOL     OW50501   9.910   2.321   6.870  0.1206  0.1198 -0.4339
15988SOL    HW150502   9.865   2.339   6.952 -0.2496 -2.4395 -0.0286
15988SOL    HW250503   9.840   2.301   6.808  0.5394 -1.0294 -0.5486
15989SOL     OW50504   0.439   5.886   5.153 -0.0658  0.4617  0.3495
15989SOL    HW150505   0.471   5.796   5.166  0.1418  0.3879 -0.6249
15989SOL    HW250506   0.517   5.935   5.127 -0.2155  0.8857  0.7032
15990SOL     OW50507   7.753   8.885   8.507  0.5247  0.0380  0.4181
15990SOL    HW150508   7.692   8.930   8.448  0.5943  0.9813  1.0463
15990SOL    HW250509   7.836   8.886   8.461  0.2121 -0.6855 -0.1692
15991SOL     OW50510   2.497   3.968   8.058 -0.1787  0.2180  0.2898
15991SOL    HW150511   2.580   3.928   8.030 -0.6955 -0.4533 -0.3093
15991SOL    HW250512   2.455   3.996   7.977 -1.5359 -1.4392  0.3902
15992SOL     OW50513   1.657   1.306   0.466 -0.5397 -0.2405 -0.5097
15992SOL    HW150514   1.604   1.253   0.405  0.6845 -1.1268 -0.8143
15992SOL    HW250515   1.719   1.353   0.410 -0.0540 -0.3037 -0.0260
15993SOL     OW50516   0.743   8.424   6.585 -0.0164  0.2000 -0.2543
15993SOL    HW150517   0.729   8.514   6.557  1.0181  0.4007 -0.1480
15993SOL    HW250518   0.767   8.431   6.678 -1.6533 -0.3249  0.2347
15994SOL     OW50519   9.635   2.601   1.056  0.1182  0.5429 -0.9022
15994SOL    HW150520   9.670   2.643   0.978 -0.2852  1.2219 -0.7177
15994SOL    HW250521   9.713   2.580   1.108  0.2846  1.5622 -0.7405
15995SOL     OW50522   9.489   2.005   8.412  0.1532  0.2293 -0.2050
15995SOL    HW150523   9.434   2.067   8.459  0.1130  0.3576 -0.4201
15995SOL    HW250524   9.458   1.919   8.441  1.1177  0.3272  1.1250
15996SOL     OW50525   6.049   6.286   9.361  0.7994 -1.3496  0.3949
15996SOL    HW150526   6.092   6.372   9.358  0.0157 -0.9580  0.0082
15996SOL    HW250527   5.986   6.289   9.289  0.0442 -1.8588  1.0262
15997SOL     OW50528   0.353   1.577   2.909  0.5161 -0.1365  0.7208
15997SOL    HW150529   0.426   1.561   2.849 -0.3146  2.4047 -1.0467
15997SOL    HW250530   0.386   1.643   2.970 -0.1808  0.7691  0.1266
15998SOL     OW50531   8.515   5.165  10.114  0.0872  0.6085 -0.7721
15998SOL    HW150532   8.437   5.221  10.111  1.2216  2.3227  1.1005
15998SOL    HW250533   8.554   5.175  10.027 -0.9119  0.9834 -1.1912
15999SOL     OW50534   0.797   7.490   7.018  0.6257 -0.4755 -0.6476
15999SOL    HW150535   0.886   7.498   6.984  0.9513  0.0808  0.3481
15999SOL    HW250536   0.799   7.530   7.104 -0.9773  1.0167 -1.2652
16000SOL     OW50537   8.055   1.745   7.171 -0.7664 -0.4667  0.4563
16000SOL    HW150538   8.120   1.767   7.104 -1.3919 -0.2892 -0.0993
16000SOL    HW250539   7.981   1.709   7.122 -1.1872 -0.4333  1.0577
16001SOL     OW50540  10.188   3.054   0.106  0.2709  0.0219 -0.4473
16001SOL    HW150541  10.112   3.100   0.141  1.0441 -0.5078  2.0390
16001SOL    HW250542  10.160   2.963   0.101  1.1642 -0.4143  1.8627
16002SOL     OW50543   0.307   3.062   9.310 -0.3677 -0.1606  0.7375
16002SOL    HW150544   0.297   3.109   9.227 -1.1243 -2.4965 -0.5459
16002SOL    HW250545   0.402   3.053   9.321 -0.2388  1.0723  0.6549
16003SOL     OW50546   5.469   2.739   8.717  0.5234 -0.0800 -0.7248
16003SOL    HW150547   5.546   2.791   8.696  0.2965  0.4320 -0.3108
16003SOL    HW250548   5.413   2.798   8.768  0.2686 -0.7305 -0.2291
16004SOL     OW50549   9.543   9.388   1.110  0.1889 -0.3017  0.3025
16004SOL    HW150550   9.453   9.383   1.142 -0.0588 -0.4656 -0.4226
16004SOL    HW250551   9.567   9.297   1.091 -0.4869  0.0383 -2.2641
16005SOL     OW50552   7.013   2.071   4.341 -0.2021 -0.0360 -0.4245
16005SOL    HW150553   6.981   2.000   4.396 -1.7129  2.5337  2.1842
16005SOL    HW250554   6.940   2.091   4.282 -0.9969  1.3685  0.9823
16006SOL     OW50555   0.911   8.737   0.015 -0.2457  0.6831 -0.2925
16006SOL    HW150556   0.891   8.732   0.109  1.9158 -2.9698  0.0986
16006SOL    HW250557   1.003   8.762   0.012 -0.0165 -0.2634 -1.3806
16007SOL     OW50558   4.856  10.187   4.498  0.1659 -0.0708  0.7590
16007SOL    HW150559   4.840  10.233   4.415  1.7498 -0.6806  0.0930
16007SOL    HW250560   4.769  10.168   4.532 -0.5031  0.3046 -0.7057
16008SOL     OW50561   6.709   8.846   5.587  0.4629 -0.5115  0.3063
16008SOL    HW150562   6.644   8.782   5.558 -1.4683  0.1579  2.9423
16008SOL    HW250563   6.753   8.804   5.660  0.9170  0.2092  0.4487
16009SOL     OW50564   6.980   9.296   9.828 -0.3677 -0.1579  0.4683
16009SOL    HW150565   6.984   9.206   9.797 -1.8494 -0.5449  1.3377
16009SOL    HW250566   7.070   9.317   9.853  0.0479 -1.2715 -0.0855
16010SOL     OW50567   7.780   7.744   1.835  0.5601 -0.0353 -0.1409
16010SOL    HW150568   7.869   7.771   1.857  0.9657 -0.7140 -0.9179
16010SOL    HW250569   7.791   7.678   1.767 -0.5347 -0.2238 -0.1461
16011SOL     OW50570   2.215   5.643   2.651 -0.8056  0.0498 -0.4420
16011SOL    HW150571   2.202   5.663   2.744 -0.6138  0.6877 -0.5529
16011SOL    HW250572   2.149   5.576   2.632 -1.4754  0.5948 -0.0754
16012SOL     OW50573   7.465   8.023   7.382  0.1480  0.1481  0.1449
16012SOL    HW150574   7.497   8.034   7.293  0.2075  1.8144  0.3567
16012SOL    HW250575   7.470   8.111   7.421  1.7601 -0.8533  2.3388
16013SOL     OW50576   1.513   3.129   2.904 -0.3037  0.2938 -0.1987
16013SOL    HW150577   1.521   3.042   2.941  1.3317  0.5848  0.1739
16013SOL    HW250578   1.486   3.115   2.813 -1.9352 -0.5036  0.3833
16014SOL     OW50579   3.065   9.454   6.869  0.7967  0.1743 -0.1448
16014SOL    HW150580   3.052   9.363   6.894 -1.4934  0.6216  0.3816
16014SOL    HW250581   3.010   9.504   6.929  0.4396  1.7503 -1.7442
16015SOL     OW50582   2.050   6.966   5.620 -0.0919  0.2914  0.2177
16015SOL    HW150583   2.098   6.930   5.546  0.6012 -1.0441  1.2936
16015SOL    HW250584   1.962   6.930   5.612  0.3998 -1.0836  0.8812
16016SOL     OW50585   8.691   1.361   1.726 -0.6882 -0.5130  0.2525
16016SOL    HW150586   8.672   1.302   1.653  0.7681 -0.9082  0.1889
16016SOL    HW250587   8.759   1.419   1.692  2.1420 -2.5599  2.2321
16017SOL     OW50588   7.743   2.584   1.992  0.6689 -0.1717 -0.5141
16017SOL    HW150589   7.730   2.610   1.901 -0.2223 -1.0345 -0.6527
16017SOL    HW250590   7.718   2.661   2.044 -0.6404 -0.2975 -0.9472
16018SOL     OW50591   6.666   7.445   3.360 -0.1848 -0.0026 -0.0600
16018SOL    HW150592   6.629   7.522   3.317 -1.2903 -0.8770 -0.6916
16018SOL    HW250593   6.625   7.445   3.447 -0.9564 -0.4399 -0.4207
16019SOL     OW50594   5.316   8.517   5.968  0.0128  0.1125 -0.8966
16019SOL    HW150595   5.391   8.563   5.929  0.7141 -1.9108 -2.0319
16019SOL    HW250596   5.243   8.576   5.956  0.8088  0.7789 -2.7288
16020SOL     OW50597   0.960   3.439   2.707 -0.1319  0.1876 -0.2924
16020SOL    HW150598   1.003   3.456   2.791 -0.0382  0.2622 -0.3560
16020SOL    HW250599   0.887   3.500   2.704 -1.0401 -0.8367  0.4088
16021SOL     OW50600   6.719   0.763   2.880  0.1529  0.3641 -0.1145
16021SOL    HW150601   6.645   0.714   2.844 -0.1424 -0.3584  1.4418
16021SOL    HW250602   6.779   0.774   2.805 -0.0147 -1.8848 -0.6353
16022SOL     OW50603   5.401   3.078   4.226 -0.0077 -0.1329  0.0580
16022SOL    HW150604   5.468   3.054   4.289 -0.4574 -0.7322  0.3059
16022SOL    HW250605   5.411   3.173   4.215  1.9838 -0.4526 -1.1753
16023SOL     OW50606   6.883   2.924  10.159 -0.2827 -0.2650 -0.0938
16023SOL    HW150607   6.888   2.953  10.068 -1.4047 -1.8723 -0.6848
16023SOL    HW250608   6.836   2.994  10.204 -0.8924 -0.0634 -1.0191
16024SOL     OW50609   1.189   0.999   0.055 -0.2001 -0.0775  0.2373
16024SOL    HW150610   1.214   0.949   0.132 -0.1995  0.1557  0.3888
16024SOL    HW250611   1.232   1.084   0.066  0.3120 -0.2632 -0.3249
16025SOL     OW50612   5.763   1.963   8.581 -0.6196  0.2357 -0.5617
16025SOL    HW150613   5.847   2.008   8.585  0.2129 -1.1737 -1.5209
16025SOL    HW250614   5.745   1.937   8.671 -0.0101  0.5259 -0.3575
16026SOL     OW50615   5.419   0.641   0.789  0.1733 -0.1167  0.0334
16026SOL    HW150616   5.450   0.689   0.712 -1.2644 -0.0253 -0.5163
16026SOL    HW250617   5.365   0.570   0.753 -2.3758  1.2700  0.9834
16027SOL     OW50618   6.874   2.685   5.089  0.7483  0.6967 -0.5585
16027SOL    HW150619   6.822   2.695   5.168  1.2612  2.6064 -0.4296
16027SOL    HW250620   6.958   2.650   5.120 -0.4170 -2.4362 -0.7739
16028SOL     OW50621   3.813  10.043  10.028  0.4111  0.0890  0.1881
16028SOL    HW150622   3.906  10.023  10.034  0.8651  1.7230 -1.1586
16028SOL    HW250623   3.804  10.129  10.068 -0.6381 -0.3382  0.9008
16029SOL     OW50624   6.312   2.424   5.400 -0.3407  0.4053  0.5622
16029SOL    HW150625   6.270   2.486   5.460 -1.0701 -0.7371  1.2580
16029SOL    HW250626   6.264   2.434   5.318 -0.3876  0.8308  0.6383
16030SOL     OW50627   5.967   8.718   5.603  0.3365  0.5460  0.0047
16030SOL    HW150628   5.880   8.725   5.642 -0.5321 -0.3625 -1.6782
16030SOL    HW250629   6.024   8.691   5.675 -1.1057 -0.5772  0.7525
16031SOL     OW50630   7.181   5.307   8.566 -0.3917 -0.0545 -0.2903
16031SOL    HW150631   7.108   5.257   8.531  0.4338 -1.6501  0.2003
16031SOL    HW250632   7.226   5.246   8.626  2.8986 -0.0478 -2.5889
16032SOL     OW50633   8.019   6.991   7.336 -0.2703  0.4008  0.1875
16032SOL    HW150634   7.990   6.903   7.310 -0.6154  0.3801  0.6398
16032SOL    HW250635   8.039   6.983   7.430  0.4276  0.6181  0.0646
16033SOL     OW50636   6.532   5.577   1.998 -0.0620  0.1485 -0.3360
16033SOL    HW150637   6.618   5.591   2.036 -0.5423  1.3037  0.3502
16033SOL    HW250638   6.492   5.664   1.995 -1.1153 -0.3379 -0.8564
16034SOL     OW50639   9.120   9.929   1.442  0.1170 -0.0071 -0.3951
16034SOL    HW150640   9.123   9.943   1.536  1.3470 -1.1463 -0.2372
16034SOL    HW250641   9.170  10.002   1.405 -1.0928  0.9135 -0.2364
16035SOL     OW50642   5.103   6.404   6.943  0.1669  0.5126 -0.3300
16035SOL    HW150643   5.168   6.474   6.957  0.7221 -0.0333 -0.1690
16035SOL    HW250644   5.067   6.422   6.856  1.3597  0.1568 -0.9038
16036SOL     OW50645   3.387   6.647   9.062 -0.0484  0.2613 -0.3709
16036SOL    HW150646   3.448   6.708   9.018 -0.6719  0.2222 -1.3035
16036SOL    HW250647   3.397   6.667   9.155  2.0707 -0.3784 -0.4353
16037SOL     OW50648   1.039   8.864   4.046 -0.3934  0.1118  0.4496
16037SOL    HW150649   0.978   8.874   4.119  0.8516  2.7551  1.2272
16037SOL    HW250650   1.019   8.938   3.988  1.4239  0.5066  0.2851
16038SOL     OW50651   4.013   7.748   3.695 -0.1232  0.0401  0.0680
16038SOL    HW150652   4.078   7.727   3.762 -1.1159 -1.8046  0.4867
16038SOL    HW250653   3.929   7.735   3.738 -0.7769  0.6810 -0.9872
16039SOL     OW50654  10.029   0.645   3.320  0.3870  0.2545  0.2087
16039SOL    HW150655   9.993   0.558   3.302 -1.3771  0.8847  0.5405
16039SOL    HW250656  10.034   0.649   3.415 -2.8090  1.7235  0.3969
16040SOL     OW50657   4.763   6.552   7.824 -0.2783  0.3339 -0.1400
16040SOL    HW150658   4.729   6.464   7.811 -0.4445  0.2889  0.6007
16040SOL    HW250659   4.715   6.606   7.761  0.2695 -0.2100 -1.0254
16041SOL     OW50660   3.097   6.578   0.024  0.3775 -0.4908  0.4062
16041SOL    HW150661   3.040   6.655   0.024 -1.0264 -1.4695 -2.5279
16041SOL    HW250662   3.126   6.570  -0.067  0.5644 -3.3811  0.6822
16042SOL     OW50663   9.532   0.667   9.171  0.3929 -0.1474  0.2443
16042SOL    HW150664   9.566   0.757   9.167  0.6544 -0.2030  1.0152
16042SOL    HW250665   9.611   0.613   9.171  0.2116 -0.4420 -1.4085
16043SOL     OW50666   7.970   7.830   2.629 -0.0679  0.3764 -0.0279
16043SOL    HW150667   8.012   7.912   2.655  1.6021 -0.0997 -1.0926
16043SOL    HW250668   8.000   7.766   2.693  1.1772 -0.0391 -0.9923
16044SOL     OW50669   4.667   4.476   7.679 -0.0912  0.1677 -0.1652
16044SOL    HW150670   4.685   4.505   7.590 -2.1234 -0.2841 -0.7735
16044SOL    HW250671   4.698   4.385   7.682  1.2511  0.6255  0.0345
16045SOL     OW50672   5.850   9.112   6.204 -0.1913  0.3186  0.0760
16045SOL    HW150673   5.788   9.042   6.187  2.1097 -1.9734  0.8030
16045SOL    HW250674   5.894   9.126   6.120  0.2087  0.0283  0.2374
16046SOL     OW50675   5.310   6.343   5.967  0.4536 -0.0992  0.2442
16046SOL    HW150676   5.304   6.341   5.872  2.7064  1.3163  0.0271
16046SOL    HW250677   5.319   6.252   5.993  1.3381 -0.3864 -1.0263
16047SOL     OW50678   0.938   8.475   9.190 -0.1699  0.4962  0.3746
16047SOL    HW150679   0.850   8.458   9.223 -0.6277  0.0515 -1.0695
16047SOL    HW250680   0.989   8.498   9.268 -1.5104  0.5496  1.2365
16048SOL     OW50681   4.166   9.343   2.081 -0.5591  0.0064 -0.3337
16048SOL    HW150682   4.247   9.355   2.032  0.7161 -1.3382  1.3893
16048SOL    HW250683   4.167   9.250   2.107 -1.8461  0.3609  1.0687
16049SOL     OW50684   2.229   5.733   3.760  0.0799  0.3075  0.3855
16049SOL    HW150685   2.191   5.668   3.701  0.0681  0.2821  0.4211
16049SOL    HW250686   2.281   5.682   3.822 -1.8218  0.1031  1.8773
16050SOL     OW50687   2.002   3.637   6.493 -0.5259  0.2710 -0.4586
16050SOL    HW150688   2.062   3.586   6.547 -0.6024  1.4567  0.7729
16050SOL    HW250689   1.915   3.602   6.514 -0.4576 -0.0236 -0.6623
16051SOL     OW50690   7.689   6.230  10.062  0.2237 -0.3254  0.2937
16051SOL    HW150691   7.722   6.236   9.972  0.6574 -0.4206  0.4422
16051SOL    HW250692   7.767   6.239  10.116 -0.2138  1.0710  0.6978
16052SOL     OW50693   4.428   6.845   9.256  0.1978 -0.0979  0.1102
16052SOL    HW150694   4.464   6.759   9.232  1.6376  0.8664 -1.3330
16052SOL    HW250695   4.404   6.884   9.172 -0.9090  0.7191  0.8057
16053SOL     OW50696   2.853   1.473   9.984 -0.2450 -0.3970 -0.2549
16053SOL    HW150697   2.830   1.555  10.028 -0.8873 -1.9767  2.4366
16053SOL    HW250698   2.811   1.480   9.898 -3.7951  0.3905  1.4431
16054SOL     OW50699   2.584   4.418   0.291  0.6544  0.0805  0.4217
16054SOL    HW150700   2.509   4.372   0.328 -1.0386  1.4592 -1.1987
16054SOL    HW250701   2.567   4.419   0.197  2.8438  0.1915  0.0127
16055SOL     OW50702   9.305   0.219   7.899 -0.4847 -0.2861  0.1959
16055SOL    HW150703   9.334   0.148   7.956 -0.0437 -0.9557 -0.8432
16055SOL    HW250704   9.265   0.174   7.824  0.1876  0.5506 -0.6685
16056SOL     OW50705   3.754   3.770   3.998  0.3835  0.3058  0.3697
16056SOL    HW150706   3.822   3.809   4.053 -0.0401  1.7442 -0.0961
16056SOL    HW250707   3.759   3.818   3.915  0.9651 -1.8007 -0.8312
16057SOL     OW50708   8.809   4.787   9.957 -0.0647 -0.3324  0.1779
16057SOL    HW150709   8.748   4.714   9.955 -1.0370  0.4800  0.0853
16057SOL    HW250710   8.768   4.851  10.016 -0.2060  1.0029 -1.3452
16058SOL     OW50711   0.467   9.341   1.085 -0.0428 -0.0429 -0.0603
16058SOL    HW150712   0.437   9.302   1.003  2.0143 -1.5069 -0.1517
16058SOL    HW250713   0.561   9.323   1.088  0.0192  0.4190  2.3704
16059SOL     OW50714   1.662   4.465   7.361 -0.3001 -0.0438  0.3468
16059SOL    HW150715   1.675   4.455   7.456  2.3837  1.5529  0.2096
16059SOL    HW250716   1.617   4.549   7.352 -0.8017 -0.3247  0.2060
16060SOL     OW50717   0.091   7.151   7.458  0.0099 -0.3725 -0.2442
16060SOL    HW150718  -0.003   7.162   7.440 -0.1928  0.3577  1.1296
16060SOL    HW250719   0.097   7.156   7.554  1.4536 -0.4154 -0.3250
16061SOL     OW50720   1.832   7.136   0.160 -0.2375  0.2436  1.0499
16061SOL    HW150721   1.799   7.052   0.127  0.0430 -0.2005  1.8889
16061SOL    HW250722   1.927   7.126   0.161 -0.1572  0.8744  0.3670
16062SOL     OW50723   2.348   1.525   3.460 -0.2814  0.1951  0.6519
16062SOL    HW150724   2.379   1.505   3.371 -2.1881  0.4569 -0.0844
16062SOL    HW250725   2.374   1.617   3.474 -1.2498  0.6028 -0.1945
16063SOL     OW50726   0.956   1.225   0.379 -0.0638  0.0936 -0.7300
16063SOL    HW150727   0.884   1.176   0.339  1.2662 -1.2682 -1.5068
16063SOL    HW250728   0.974   1.296   0.317  0.1904 -0.3958 -1.2163
16064SOL     OW50729   4.205   2.673   6.414 -0.3735  0.1463  0.3058
16064SOL    HW150730   4.146   2.742   6.385 -0.3248  0.4934  1.0183
16064SOL    HW250731   4.284   2.684   6.361 -1.3283 -0.9598 -1.3795
16065SOL     OW50732   7.461   7.095   5.563  0.4799 -0.8532 -0.4848
16065SOL    HW150733   7.376   7.076   5.524 -0.8827 -0.3986  2.1910
16065SOL    HW250734   7.476   7.025   5.626  1.6883 -0.4561 -0.3016
16066SOL     OW50735   8.631   2.543   7.938  0.1405  0.4383 -0.9102
16066SOL    HW150736   8.721   2.570   7.922  0.5091  0.7901  1.5660
16066SOL    HW250737   8.595   2.612   7.994 -1.3616 -0.2011 -1.0607
16067SOL     OW50738   7.736   0.361   3.659  0.2252  0.5075 -0.9720
16067SOL    HW150739   7.773   0.400   3.579 -1.1490  4.1747  0.1042
16067SOL    HW250740   7.779   0.406   3.730 -1.2765 -0.0995  0.3520
16068SOL     OW50741   3.016   5.541   6.544  0.3224  0.4659  0.3410
16068SOL    HW150742   2.957   5.477   6.583 -0.2189  1.1863  0.7121
16068SOL    HW250743   2.963   5.586   6.478  0.5186  0.9442  0.5033
16069SOL     OW50744   9.542   0.629   2.178  0.0656  0.8409  0.4231
16069SOL    HW150745   9.454   0.599   2.157 -0.1548  1.9319 -0.2232
16069SOL    HW250746   9.542   0.723   2.158  1.1354  1.0157  1.1617
16070SOL     OW50747   2.315   6.353   1.047 -0.1769 -0.2360  0.4213
16070SOL    HW150748   2.381   6.286   1.029  0.6319  0.5805  0.3136
16070SOL    HW250749   2.267   6.361   0.965 -0.0470 -0.4315  0.3222
16071SOL     OW50750   5.982   7.000   3.471  0.4792 -0.1801 -0.1833
16071SOL    HW150751   5.997   7.086   3.512  0.7098 -0.7046  0.8310
16071SOL    HW250752   6.070   6.969   3.450  0.4750 -0.7425  0.6266
16072SOL     OW50753   4.090   5.248   8.168 -0.5710 -0.3390  0.6365
16072SOL    HW150754   4.075   5.342   8.153 -0.5085 -0.3002  0.8215
16072SOL    HW250755   4.105   5.240   8.262 -1.8922 -0.7065  0.8263
16073SOL     OW50756   0.779   6.436   0.179 -0.2217 -0.4397 -0.4647
16073SOL    HW150757   0.822   6.441   0.265  0.1979  0.1381 -0.7045
16073SOL    HW250758   0.747   6.525   0.164  0.4286 -0.3445 -1.2811
16074SOL     OW50759   5.560   3.577   2.096  0.5171  0.0639 -0.5669
16074SOL    HW150760   5.600   3.640   2.036 -1.0631  0.5688 -1.1308
16074SOL    HW250761   5.572   3.615   2.183  0.5971  0.5734 -0.7993
16075SOL     OW50762   9.245   9.203   9.626 -0.0402 -0.1409 -0.1995
16075SOL    HW150763   9.339   9.219   9.635 -0.1478  0.2922  0.1271
16075SOL    HW250764   9.222   9.242   9.541  0.4826 -2.0702 -1.2645
16076SOL     OW50765   1.361   1.352   8.189 -0.6997  0.4343 -0.3282
16076SOL    HW150766   1.293   1.417   8.204 -2.3044 -1.4058  0.4688
16076SOL    HW250767   1.414   1.353   8.268 -0.7699  0.6978 -0.2830
16077SOL     OW50768   6.317   5.153   8.052  0.0791 -0.1632 -0.6593
16077SOL    HW150769   6.349   5.071   8.089  1.1724  0.5205 -0.0835
16077SOL    HW250770   6.369   5.165   7.972  0.2799  0.2339 -0.4688
16078SOL     OW50771   9.149   2.627   4.418  0.5280 -0.1505  0.7914
16078SOL    HW150772   9.131   2.591   4.505 -0.2162  1.0698  1.1585
16078SOL    HW250773   9.186   2.714   4.435 -0.7362  0.5801 -0.1148
16079SOL     OW50774   2.209   6.488   6.224 -0.3686  0.0787  0.5650
16079SOL    HW150775   2.237   6.579   6.217 -0.9346  0.2148 -0.0286
16079SOL    HW250776   2.153   6.486   6.301 -0.1152  0.1716  0.7508
16080SOL     OW50777   1.391   1.901   4.776 -0.0319 -1.0766 -0.4101
16080SOL    HW150778   1.364   1.864   4.860  0.9759 -0.1859  0.3197
16080SOL    HW250779   1.352   1.843   4.710 -3.2415 -0.1394  0.5969
16081SOL     OW50780   6.186   6.823   0.924  0.4557  0.2113 -0.5712
16081SOL    HW150781   6.220   6.883   0.989 -0.4085  0.7735 -0.6278
16081SOL    HW250782   6.143   6.753   0.974  1.7622 -0.5575 -0.4978
16082SOL     OW50783   0.132   7.150   7.736 -0.2938  0.3863 -0.0348
16082SOL    HW150784   0.141   7.055   7.745 -0.3815  0.3643 -0.1809
16082SOL    HW250785   0.219   7.184   7.756 -0.1539  0.2443 -0.3866
16083SOL     OW50786   4.641   2.742   2.273  0.2266  0.2829  0.1102
16083SOL    HW150787   4.656   2.828   2.312 -0.8168 -0.7196  2.7980
16083SOL    HW250788   4.682   2.680   2.334 -3.7270 -1.5154  1.1210
16084SOL     OW50789   3.898   5.086   3.245 -0.6626  0.5467  0.7752
16084SOL    HW150790   3.803   5.097   3.243 -0.8590 -0.8381  1.2466
16084SOL    HW250791   3.910   4.999   3.284  0.8894  2.0958  3.9132
16085SOL     OW50792   1.433   6.094   0.487  0.3186  0.0018 -0.1921
16085SOL    HW150793   1.410   6.002   0.499 -1.7135  0.6707  1.3978
16085SOL    HW250794   1.516   6.092   0.440  0.4863 -2.6461  0.1264
16086SOL     OW50795   4.678   7.640  10.017  0.1223  0.4106 -0.5967
16086SOL    HW150796   4.582   7.638  10.012  0.0850  0.0565  0.1052
16086SOL    HW250797   4.700   7.733  10.014 -0.3053  0.5444  0.0767
16087SOL     OW50798   1.115   2.243   2.400  0.3557 -0.3676 -0.5108
16087SOL    HW150799   1.109   2.327   2.445 -1.7734  0.5025 -2.3320
16087SOL    HW250800   1.209   2.222   2.401  0.8544  1.7837  0.3755
16088SOL     OW50801   0.231   7.026   4.339  0.2745  0.2007  0.0764
16088SOL    HW150802   0.307   7.065   4.382 -0.2547  2.6056 -1.0321
16088SOL    HW250803   0.247   7.040   4.245 -2.4911  2.7359 -0.0957
16089SOL     OW50804   5.035   4.712   1.516 -0.2691 -0.2402 -0.2101
16089SOL    HW150805   4.966   4.733   1.579 -0.4789 -0.8312 -0.2384
16089SOL    HW250806   5.060   4.797   1.478 -0.0779  0.1245  0.7238
16090SOL     OW50807   5.220   7.405   0.490 -0.7988 -0.2910 -0.2629
16090SOL    HW150808   5.157   7.476   0.503 -0.5417 -0.0680 -0.2167
16090SOL    HW250809   5.198   7.341   0.557 -0.1148  0.4070  0.6616
16091SOL     OW50810   0.669   5.990   4.172 -0.6974  0.0777  0.4910
16091SOL    HW150811   0.630   6.052   4.233 -1.0427 -0.0221  0.3754
16091SOL    HW250812   0.629   6.012   4.087 -0.2294  0.2117  0.3041
16092SOL     OW50813   9.225   5.256   7.490 -0.1415  0.1373  0.2821
16092SOL    HW150814   9.221   5.209   7.407  2.8607  0.5970 -0.1728
16092SOL    HW250815   9.164   5.209   7.547  0.5032 -2.4275 -1.0779
16093SOL     OW50816   9.459   5.962   5.149 -0.3778 -0.4334  0.1333
16093SOL    HW150817   9.548   5.927   5.154 -0.1613  0.0889 -0.0380
16093SOL    HW250818   9.417   5.907   5.083  0.1359 -0.0045 -0.5604
16094SOL     OW50819   2.473   7.268   5.273 -0.5002 -0.1519  0.1393
16094SOL    HW150820   2.546   7.324   5.249 -0.3958 -0.8923 -1.3144
16094SOL    HW250821   2.498   7.229   5.357 -0.1023  1.1043  0.6160
16095SOL     OW50822   7.383   0.491  10.098 -0.5967 -0.5662  0.0416
16095SOL    HW150823   7.328   0.427  10.142  0.6902 -1.4738  0.3234
16095SOL    HW250824   7.456   0.507  10.158 -0.1352  0.0595 -0.6709
16096SOL     OW50825   7.874   9.387   4.512  0.4905  0.0736  0.4378
16096SOL    HW150826   7.836   9.341   4.437 -1.0299  1.2491  0.4562
16096SOL    HW250827   7.837   9.475   4.507  0.4603  0.1973  2.5091
16097SOL     OW50828   5.236   8.846   6.170 -0.1139 -0.3841  0.2654
16097SOL    HW150829   5.176   8.817   6.238  0.4782 -2.7185 -0.1487
16097SOL    HW250830   5.312   8.880   6.217  0.5953 -2.6411  0.8152
16098SOL     OW50831   9.205   1.006   7.423  0.0776  0.1948 -0.1255
16098SOL    HW150832   9.140   0.984   7.356 -0.3627  0.4693  0.2053
16098SOL    HW250833   9.282   0.955   7.400 -0.1959  0.0085 -0.6309
16099SOL     OW50834   1.674   8.262   0.453  0.1889  0.2155 -0.3681
16099SOL    HW150835   1.707   8.317   0.382  1.0993  0.6336  0.3729
16099SOL    HW250836   1.751   8.214   0.484 -0.0549  0.5649  0.8035
16100SOL     OW50837   0.708   9.409   5.172 -0.1257 -0.3082  0.2190
16100SOL    HW150838   0.766   9.396   5.247 -0.4044 -1.8886  0.1658
16100SOL    HW250839   0.746   9.357   5.102  0.8095  2.1325 -1.1292
16101SOL     OW50840   0.691   1.828   4.173 -0.0203 -0.4228  0.2072
16101SOL    HW150841   0.665   1.786   4.255 -0.8848  0.4439  0.3794
16101SOL    HW250842   0.670   1.920   4.185 -0.5038 -0.3464 -1.1390
16102SOL     OW50843   0.218   8.641   3.814  0.4216  0.0238 -0.0679
16102SOL    HW150844   0.272   8.658   3.736  0.1894 -1.5829 -0.6023
16102SOL    HW250845   0.281   8.623   3.883  0.5978 -2.0231 -0.7313
16103SOL     OW50846   2.045   2.426   7.636  0.5364 -0.5322 -0.2757
16103SOL    HW150847   2.098   2.464   7.566  0.0337 -0.9057 -0.8658
16103SOL    HW250848   2.007   2.347   7.598  0.4371 -0.8640  0.4888
16104SOL     OW50849   4.154   8.310   5.092 -0.6115 -0.4523  0.5419
16104SOL    HW150850   4.177   8.402   5.105  0.1225 -0.3149 -1.4576
16104SOL    HW250851   4.096   8.310   5.015 -1.3610 -1.5617  1.0981
16105SOL     OW50852  10.101   3.572   3.584 -0.3035  0.0249 -0.4486
16105SOL    HW150853  10.046   3.645   3.556 -2.1442 -0.5042  1.6501
16105SOL    HW250854  10.045   3.495   3.578  0.7525 -0.8041  0.0258
16106SOL     OW50855   5.059   2.334   1.934 -0.1416  0.0594 -0.2956
16106SOL    HW150856   5.068   2.305   2.024 -0.1247  1.1762  0.0701
16106SOL    HW250857   4.964   2.339   1.920 -0.1459  0.7976 -0.0320
16107SOL     OW50858   3.318   5.328   2.450 -0.2192  0.4344  0.0118
16107SOL    HW150859   3.284   5.247   2.487 -0.2103  0.0873 -0.7278
16107SOL    HW250860   3.320   5.390   2.523 -3.0410  0.6520 -0.0596
16108SOL     OW50861   2.774   3.420   6.577 -0.1565  0.7831  0.2897
16108SOL    HW150862   2.715   3.387   6.645  0.1286  1.2822  0.7784
16108SOL    HW250863   2.860   3.386   6.603 -0.2445 -0.0866 -0.5125
16109SOL     OW50864   3.754   8.984   1.431 -0.0694  0.2678  0.2611
16109SOL    HW150865   3.760   8.926   1.356  1.1042  0.2072  0.3931
16109SOL    HW250866   3.845   9.001   1.456 -0.4391 -1.2564  2.8388
16110SOL     OW50867   4.680   7.942   2.486  0.3916  0.1726 -0.4037
16110SOL    HW150868   4.706   7.877   2.421  0.8892  1.0438 -1.0894
16110SOL    HW250869   4.718   8.024   2.455 -1.4885  1.0953 -0.3511
16111SOL     OW50870   1.637   6.386   8.029  0.8789 -0.1678 -0.3152
16111SOL    HW150871   1.684   6.348   7.954  0.7869 -0.2864 -0.3113
16111SOL    HW250872   1.633   6.480   8.009 -1.7389 -0.5646 -1.8816
16112SOL     OW50873   4.508   4.121   4.701 -0.8650 -0.1614 -0.1978
16112SOL    HW150874   4.417   4.094   4.705 -0.8930 -0.0479 -0.0646
16112SOL    HW250875   4.526   4.135   4.608 -0.8933 -0.4913 -0.2538
16113SOL     OW50876   7.358   6.840   4.953 -0.0226 -0.0679  0.0582
16113SOL    HW150877   7.390   6.780   5.021 -2.1751 -2.1915 -0.7309
16113SOL    HW250878   7.268   6.860   4.980  0.4328  2.3251 -0.0528
16114SOL     OW50879   1.108   9.311   9.969  0.4043  0.1788  0.2343
16114SOL    HW150880   1.020   9.275   9.961  0.8635 -0.6259 -1.3258
16114SOL    HW250881   1.119   9.326  10.063 -2.2287  2.4724  0.2344
16115SOL     OW50882   0.919   7.896   2.464 -0.1876  0.1234 -0.2509
16115SOL    HW150883   0.968   7.818   2.439  0.3766  0.3812  0.0395
16115SOL    HW250884   0.857   7.910   2.392 -0.8737 -1.0741  0.0943
16116SOL     OW50885   3.528   6.202   3.218 -0.1541 -0.2735  0.2028
16116SOL    HW150886   3.523   6.132   3.154 -0.6892  0.3610 -0.4445
16116SOL    HW250887   3.600   6.257   3.188 -0.0531 -0.2693  0.4454
16117SOL     OW50888   1.908   5.256   8.184 -0.5975 -0.2126  0.3786
16117SOL    HW150889   1.964   5.184   8.213 -0.3358  0.5612  1.8354
16117SOL    HW250890   1.960   5.303   8.120 -0.8724 -1.4744 -0.7868
16118SOL     OW50891   7.302   0.258   4.463  0.1168  0.3891 -0.2689
16118SOL    HW150892   7.332   0.325   4.402  0.4270 -0.5353 -1.1427
16118SOL    HW250893   7.268   0.188   4.407  1.8345 -1.1425  0.5531
16119SOL     OW50894   4.251   7.892   4.763 -0.6288 -0.1707  0.6561
16119SOL    HW150895   4.171   7.871   4.716 -1.5433  2.9554  0.7152
16119SOL    HW250896   4.240   7.983   4.790  1.9943 -0.3807  2.6111
16120SOL     OW50897   2.760   7.873   6.325  0.1758 -0.0779 -0.1484
16120SOL    HW150898   2.816   7.927   6.270  0.8522  0.3770  0.9623
16120SOL    HW250899   2.791   7.889   6.414 -1.1320 -0.5216  0.4034
16121SOL     OW50900   1.080   5.679   5.953  0.3648  0.4482 -0.2670
16121SOL    HW150901   1.137   5.719   6.018 -0.0188 -1.4212  1.2520
16121SOL    HW250902   0.993   5.713   5.974  0.7728  2.8349 -2.2170
16122SOL     OW50903   6.838  10.052   8.597 -0.3530 -0.1787 -0.1662
16122SOL    HW150904   6.831  10.127   8.657 -3.2286 -1.1728  0.8259
16122SOL    HW250905   6.803  10.085   8.514 -0.6733 -0.1175 -0.0081
16123SOL     OW50906   1.165   9.408   6.448  0.2215  0.4621 -0.4397
16123SOL    HW150907   1.211   9.335   6.489 -1.0521  0.7346  1.5504
16123SOL    HW250908   1.176   9.481   6.509 -1.2622  1.0331 -0.8223
16124SOL     OW50909   1.197   1.446   4.633 -0.1153 -0.5547 -0.5985
16124SOL    HW150910   1.107   1.427   4.606 -0.1748 -0.1811 -0.6601
16124SOL    HW250911   1.251   1.388   4.579 -0.0734  1.7927 -3.2116
16125SOL     OW50912   3.879   2.045   9.855 -0.1454  0.1736  0.2044
16125SOL    HW150913   3.876   2.019   9.947 -0.8540  1.3327  0.5210
16125SOL    HW250914   3.962   2.011   9.823  0.6220  0.7276  1.5699
16126SOL     OW50915   9.152   8.439   7.032 -0.0863  0.4555  0.7628
16126SOL    HW150916   9.109   8.413   7.113 -1.2933  0.1945  0.0488
16126SOL    HW250917   9.097   8.508   6.996 -0.2423 -0.2827 -0.4489
16127SOL     OW50918   9.946   4.755   2.933  0.2273 -0.4982  0.2682
16127SOL    HW150919   9.855   4.782   2.921  0.3875  0.0646  0.2955
16127SOL    HW250920   9.997   4.827   2.897  0.7175  0.5429  2.9271
16128SOL     OW50921   0.549   9.678   1.406 -0.2411 -0.4116  0.4013
16128SOL    HW150922   0.509   9.668   1.493 -2.3112 -1.7248 -0.6548
16128SOL    HW250923   0.634   9.636   1.413  1.4207  3.0733  2.9303
16129SOL     OW50924   1.271   0.936   8.523 -0.2944  0.1450  0.2166
16129SOL    HW150925   1.193   0.981   8.491 -0.2430 -0.5854 -0.9199
16129SOL    HW250926   1.294   0.874   8.454  1.0169  0.0254  0.7479
16130SOL     OW50927   2.796   3.501   1.638  0.1404 -0.1831  0.0395
16130SOL    HW150928   2.868   3.544   1.593  0.7119 -0.7402  0.4116
16130SOL    HW250929   2.748   3.455   1.569 -0.1666  0.6213 -0.2807
16131SOL     OW50930   5.026   3.233   3.527 -0.2178  0.3105  0.0049
16131SOL    HW150931   5.108   3.216   3.482 -1.0831  0.8425 -1.8027
16131SOL    HW250932   4.997   3.318   3.493 -1.7076 -0.0509  0.3356
16132SOL     OW50933   4.118   5.339   5.935 -0.1478 -0.4155  0.2705
16132SOL    HW150934   4.134   5.432   5.951 -1.0169 -0.0028 -1.1418
16132SOL    HW250935   4.205   5.299   5.938  0.2056  0.4088  1.1135
16133SOL     OW50936   9.240   3.802   1.149  0.2848  0.0599 -0.1969
16133SOL    HW150937   9.268   3.787   1.059 -1.2864 -1.3274 -0.4937
16133SOL    HW250938   9.212   3.716   1.180 -0.7128  0.8118  1.0639
16134SOL     OW50939  10.041   8.704   6.904 -0.1783 -0.7630  0.0843
16134SOL    HW150940  10.133   8.678   6.906 -0.3688 -1.2954  2.1666
16134SOL    HW250941  10.005   8.659   6.827  1.3120 -0.4337 -0.8233
16135SOL     OW50942   8.098   9.189   7.519 -0.0693 -0.0610  0.1198
16135SOL    HW150943   8.043   9.129   7.569 -1.6429 -0.4399 -1.9739
16135SOL    HW250944   8.047   9.209   7.441  2.5253  0.0416 -1.6273
16136SOL     OW50945   0.124   0.046   2.543 -0.0551  0.2770  0.4940
16136SOL    HW150946   0.195   0.043   2.478 -0.8780 -0.3061 -0.3925
16136SOL    HW250947   0.162   0.092   2.618  0.9372  0.8867 -0.3700
16137SOL     OW50948   0.256   8.945   9.612  0.4593  0.4206 -0.6142
16137SOL    HW150949   0.168   8.977   9.630 -0.2486 -1.6781 -0.2471
16137SOL    HW250950   0.252   8.911   9.522  0.3553 -1.4449  0.0822
16138SOL     OW50951   1.651   0.565   5.515  0.5435 -0.4454  0.1416
16138SOL    HW150952   1.669   0.543   5.424  0.5163 -2.9035  0.6928
16138SOL    HW250953   1.556   0.567   5.521  0.5348 -1.0437  0.2681
16139SOL     OW50954   3.642   1.841   1.833 -0.3612  0.7308  0.2707
16139SOL    HW150955   3.563   1.823   1.781  0.3521  0.5986 -0.7700
16139SOL    HW250956   3.649   1.765   1.891 -2.3881  1.8903  2.1195
16140SOL     OW50957   5.007   6.189   9.767 -0.0618  0.1300 -0.1111
16140SOL    HW150958   5.069   6.137   9.819 -0.6521 -0.0250  0.4360
16140SOL    HW250959   4.921   6.161   9.796 -0.4109 -0.1526 -1.3710
16141SOL     OW50960   7.305   4.898   1.676 -0.4564  0.0112 -0.4945
16141SOL    HW150961   7.299   4.957   1.751 -0.3016 -0.0962 -0.3963
16141SOL    HW250962   7.225   4.846   1.679 -1.1339  0.9801 -1.2324
16142SOL     OW50963   0.099   0.519   0.604  0.4987  0.0439 -0.1496
16142SOL    HW150964   0.190   0.544   0.592  0.3509  0.6911  0.0184
16142SOL    HW250965   0.082   0.534   0.697  0.5258 -1.1264  0.0498
16143SOL     OW50966   2.137   1.942   8.474 -0.0497 -0.1323 -0.5868
16143SOL    HW150967   2.119   1.863   8.524  1.7121  0.4100  0.9611
16143SOL    HW250968   2.152   2.009   8.540  2.2099  0.6350 -1.8379
16144SOL     OW50969   9.593   2.004   1.403 -0.2576  0.0587  0.1919
16144SOL    HW150970   9.593   2.099   1.395  1.9898  0.2066  1.6300
16144SOL    HW250971   9.567   1.986   1.493 -1.3191 -0.7350 -0.2528
16145SOL     OW50972   8.503   9.860   5.212 -0.1730 -0.6639  0.2410
16145SOL    HW150973   8.478   9.944   5.173  0.9482 -0.4436 -0.0071
16145SOL    HW250974   8.422   9.809   5.212 -0.7694  0.2589  0.0048
16146SOL     OW50975   2.049   9.233   3.078 -0.0404  0.2382  0.7547
16146SOL    HW150976   2.058   9.280   2.995 -1.7403 -0.3213  0.2380
16146SOL    HW250977   2.118   9.167   3.075  0.9210  1.2426  0.4928
16147SOL     OW50978   2.609   3.861   1.557  0.6446 -0.7191  0.0982
16147SOL    HW150979   2.678   3.812   1.512  0.3633 -0.3351 -0.7639
16147SOL    HW250980   2.554   3.794   1.596  1.0603 -1.0515  0.1230
16148SOL     OW50981   8.429   3.973   8.891 -0.3742  0.6532  0.5521
16148SOL    HW150982   8.428   3.933   8.979 -0.7380  0.7364  0.5853
16148SOL    HW250983   8.360   4.038   8.894 -2.0544 -1.0392 -0.5871
16149SOL     OW50984   4.810   3.819   9.885 -0.0400 -0.0958  0.1769
16149SOL    HW150985   4.781   3.741   9.931 -0.0811 -0.3756 -0.3190
16149SOL    HW250986   4.757   3.890   9.921  2.1362  0.2555  2.8699
16150SOL     OW50987   6.832   5.296   4.822  0.1041 -0.2634  0.1484
16150SOL    HW150988   6.927   5.282   4.816  0.3805  1.4882  0.1041
16150SOL    HW250989   6.812   5.284   4.915  0.2468 -1.3286  0.0452
16151SOL     OW50990   1.241   7.782   6.412 -0.5117 -0.0724  0.7245
16151SOL    HW150991   1.217   7.711   6.472 -1.4024  0.2070  0.7066
16151SOL    HW250992   1.329   7.759   6.383 -0.4067 -0.6667  1.4703
16152SOL     OW50993   0.682   9.281   0.279  0.0905  0.8976  0.2412
16152SOL    HW150994   0.751   9.264   0.343  0.2521 -2.0496 -0.6644
16152SOL    HW250995   0.710   9.236   0.200 -0.4548  3.8785 -1.7549
16153SOL     OW50996   8.840   7.997   3.025 -0.5127  0.0363  0.3613
16153SOL    HW150997   8.757   7.971   2.983 -0.0394 -0.6316 -0.1649
16153SOL    HW250998   8.852   8.088   2.999 -1.0548  0.1264  0.4023
16154SOL     OW50999   6.724   7.949   3.922 -0.1966  0.3017  0.0400
16154SOL    HW151000   6.683   7.923   3.839  0.2381 -0.9691  0.2099
16154SOL    HW251001   6.652   7.988   3.972 -0.7089  0.0787 -0.5072
16155SOL     OW51002   0.459   6.804   0.409 -0.3738  0.1214  0.0446
16155SOL    HW151003   0.537   6.834   0.364 -2.0951  1.7826 -1.9585
16155SOL    HW251004   0.486   6.724   0.455  2.2494  0.1918 -1.3140
16156SOL     OW51005   7.381   0.664   8.385 -0.0475 -0.1859  0.0818
16156SOL    HW151006   7.446   0.607   8.427  0.6992 -0.2070 -1.0854
16156SOL    HW251007   7.301   0.610   8.383  0.5544 -1.0670 -0.6798
16157SOL     OW51008   4.914   6.818   5.329 -0.0958  0.7397 -0.5961
16157SOL    HW151009   4.972   6.764   5.275  0.5416  0.9098 -0.0839
16157SOL    HW251010   4.934   6.908   5.304  0.7041  0.8489  0.4282
16158SOL     OW51011   7.159   4.085   9.517 -0.0831  0.2459 -0.2447
16158SOL    HW151012   7.242   4.048   9.489  0.3620  0.7689  0.3828
16158SOL    HW251013   7.181   4.170   9.553 -0.5629 -0.6144  2.1709
16159SOL     OW51014   2.584   1.336   2.613 -0.0083  0.3471 -0.5911
16159SOL    HW151015   2.608   1.348   2.521  0.6839  0.5435 -0.3849
16159SOL    HW251016   2.588   1.241   2.626 -0.5414  0.2810 -0.8768
16160SOL     OW51017   6.799   4.602   9.447 -0.1063 -0.2281  0.0311
16160SOL    HW151018   6.894   4.612   9.450 -0.0637  0.5517 -2.3857
16160SOL    HW251019   6.765   4.691   9.453 -0.5588 -0.2622 -1.7688
16161SOL     OW51020   4.677   4.427   1.989 -1.0611  0.3181 -0.0082
16161SOL    HW151021   4.685   4.333   2.002  0.4820  0.7457  2.4866
16161SOL    HW251022   4.763   4.454   1.957 -1.1117  1.0344  0.4472
16162SOL     OW51023   0.043   2.487   4.238 -0.1685  0.4210  0.6498
16162SOL    HW151024   0.033   2.405   4.189  1.2425  0.1169  0.8457
16162SOL    HW251025  -0.040   2.533   4.225 -0.4475 -0.4113 -0.6152
16163SOL     OW51026   8.606   3.592   2.731 -0.7404  0.2851 -0.8761
16163SOL    HW151027   8.587   3.649   2.657 -0.7623 -0.0668 -1.1445
16163SOL    HW251028   8.530   3.599   2.788 -0.7080  0.5847 -0.8707
16164SOL     OW51029   5.843   1.751   9.657 -0.0619  0.5960 -0.0556
16164SOL    HW151030   5.748   1.767   9.663  0.3476  2.1372  3.1245
16164SOL    HW251031   5.850   1.673   9.601 -3.0568  1.7164 -2.1580
16165SOL     OW51032   9.754   0.718   6.464 -0.0155 -0.0468 -0.7063
16165SOL    HW151033   9.836   0.758   6.433  0.2097 -0.4932 -0.6783
16165SOL    HW251034   9.770   0.701   6.557 -0.1697 -0.0586 -0.6834
16166SOL     OW51035   8.028   9.220   5.630  0.2608 -0.6815 -0.8503
16166SOL    HW151036   7.957   9.164   5.599 -0.8505 -1.5625  2.9334
16166SOL    HW251037   7.997   9.310   5.615 -0.0857 -1.0752 -2.4842
16167SOL     OW51038   9.765   7.784   2.817  0.1854  0.8065 -0.3720
16167SOL    HW151039   9.754   7.736   2.735 -0.2520  1.2861 -0.5911
16167SOL    HW251040   9.817   7.860   2.793  0.2825  0.8115 -0.1511
16168SOL     OW51041   1.330   7.896   3.719  0.4616 -0.3063  0.1680
16168SOL    HW151042   1.293   7.980   3.745 -0.2313 -0.4984 -0.1692
16168SOL    HW251043   1.276   7.831   3.765  0.5293 -0.5829 -0.1346
16169SOL     OW51044   6.368   6.643   5.276  0.0723  0.1643  0.3826
16169SOL    HW151045   6.374   6.718   5.335  0.8595  0.4383 -0.0296
16169SOL    HW251046   6.404   6.570   5.326  0.3045  0.2961  0.4094
16170SOL     OW51047   8.130   8.356   8.741 -0.5871  0.2957  0.6447
16170SOL    HW151048   8.147   8.342   8.648 -1.4516 -1.3740  0.7184
16170SOL    HW251049   8.041   8.394   8.743 -0.3430  0.8753  0.7680
16171SOL     OW51050   9.715   2.089   4.517  0.4329 -0.2437 -0.2728
16171SOL    HW151051   9.782   2.155   4.502  0.6793 -0.1390  1.2305
16171SOL    HW251052   9.692   2.098   4.609 -1.2402 -0.6648 -0.6319
16172SOL     OW51053   2.607   3.791   2.081  0.2856  0.0855 -0.3626
16172SOL    HW151054   2.514   3.809   2.075  0.2330  0.5795  1.6460
16172SOL    HW251055   2.615   3.728   2.152  1.6175  1.2386  0.5377
16173SOL     OW51056   1.766   6.540   3.326 -0.2392 -0.1849 -0.2877
16173SOL    HW151057   1.822   6.568   3.254 -0.8197 -0.0062 -0.6710
16173SOL    HW251058   1.682   6.522   3.285  0.0627 -2.3127 -0.0097
16174SOL     OW51059   0.238   0.152   0.410  0.4902 -0.7507  0.4453
16174SOL    HW151060   0.230   0.096   0.333  0.2840 -0.3941  0.2083
16174SOL    HW251061   0.320   0.123   0.452 -0.1049 -1.8909  0.8572
16175SOL     OW51062   4.079   7.683   0.958  0.2828  0.1901 -0.5373
16175SOL    HW151063   4.003   7.721   0.914 -0.3239 -0.4863 -0.0909
16175SOL    HW251064   4.047   7.660   1.045  1.7632  2.5694  0.6934
16176SOL     OW51065   3.133   3.798   5.832 -0.0959  0.4809  0.7668
16176SOL    HW151066   3.057   3.770   5.884  0.1082  0.2074  0.9207
16176SOL    HW251067   3.101   3.871   5.780 -0.0355  1.4421  2.0614
16177SOL     OW51068   9.673   2.408   9.839 -0.1150 -0.1350  0.4751
16177SOL    HW151069   9.612   2.423   9.767  0.3158 -0.0646  0.1243
16177SOL    HW251070   9.662   2.484   9.896 -1.1658 -0.6672  0.9910
16178SOL     OW51071   7.827   7.542   4.327  0.0239 -0.6411 -0.3444
16178SOL    HW151072   7.871   7.621   4.294  1.8016 -1.2060  0.6054
16178SOL    HW251073   7.823   7.554   4.422 -2.4609 -0.3433 -0.4515
16179SOL     OW51074   6.624   0.399   1.534 -0.1367  0.2832  0.0332
16179SOL    HW151075   6.557   0.419   1.600 -0.0551  1.5503 -0.2514
16179SOL    HW251076   6.698   0.455   1.558  0.0827  0.3609 -0.8212
16180SOL     OW51077   0.775   7.280   5.296 -0.5072  0.3087 -0.4524
16180SOL    HW151078   0.835   7.299   5.223 -0.2564 -0.9249 -0.5893
16180SOL    HW251079   0.819   7.317   5.373 -0.2208  0.6106 -0.7534
16181SOL     OW51080   0.225   6.240   2.389 -0.3145  0.3709  0.2557
16181SOL    HW151081   0.263   6.158   2.358 -0.4195  0.1311  0.7530
16181SOL    HW251082   0.209   6.225   2.482 -0.2102  1.0018  0.3777
16182SOL     OW51083   8.122   5.652   5.805 -0.4170  0.4894  0.2227
16182SOL    HW151084   8.115   5.655   5.709  2.2560  2.6343  0.0535
16182SOL    HW251085   8.148   5.562   5.824 -2.0793 -0.2746 -0.9376
16183SOL     OW51086   1.637   9.940   0.828  0.3206  0.0479 -0.5288
16183SOL    HW151087   1.563   9.908   0.776 -0.7106  1.6836 -0.0939
16183SOL    HW251088   1.665   9.863   0.878 -0.4924 -0.8224 -1.3774
16184SOL     OW51089   7.935   1.444   8.592 -0.2424 -0.2689 -0.1307
16184SOL    HW151090   7.996   1.422   8.521  1.2039 -0.3549  1.0968
16184SOL    HW251091   7.891   1.361   8.611  1.6250 -1.0240  1.1384
16185SOL     OW51092   5.205   5.888   5.268  0.3416  0.2432 -0.3980
16185SOL    HW151093   5.177   5.952   5.334  0.3495  0.7781 -0.9050
16185SOL    HW251094   5.261   5.827   5.316 -0.1847  0.2421  0.2262
16186SOL     OW51095   0.659   9.317   3.598 -0.1435 -0.6059  0.1692
16186SOL    HW151096   0.626   9.396   3.641 -0.4182  0.1263 -1.3576
16186SOL    HW251097   0.588   9.289   3.540 -0.2383 -2.2658  1.0442
16187SOL     OW51098   6.533   3.314   5.989  0.3097 -0.2784  0.4080
16187SOL    HW151099   6.615   3.341   5.947 -1.1611 -0.4762 -2.6783
16187SOL    HW251100   6.549   3.224   6.017  0.5482 -1.0064 -1.9416
16188SOL     OW51101   3.153   6.841   9.001 -0.0584  0.1398  0.3600
16188SOL    HW151102   3.202   6.845   8.919 -1.0440  0.2362 -0.2353
16188SOL    HW251103   3.219   6.850   9.069  0.8635 -0.7124 -0.4052
16189SOL     OW51104   5.014   7.971   0.276 -0.2009 -0.5046 -0.1206
16189SOL    HW151105   5.098   8.014   0.261  0.1965 -0.0284  3.0856
16189SOL    HW251106   5.034   7.899   0.336 -2.0683 -0.2874  0.8157
16190SOL     OW51107   9.684   0.221   7.400 -0.1265 -0.3999  0.1059
16190SOL    HW151108   9.701   0.198   7.491 -0.3964 -0.2716  0.1896
16190SOL    HW251109   9.588   0.228   7.394 -0.0384  1.0400  0.1660
16191SOL     OW51110   1.281   8.344   4.796  0.4319  0.1730 -0.0608
16191SOL    HW151111   1.285   8.357   4.702  1.9614 -3.2794 -0.5306
16191SOL    HW251112   1.336   8.414   4.833 -1.4340  2.5088 -1.5529
16192SOL     OW51113   0.359   4.829   3.961 -0.3824 -0.0101 -0.2227
16192SOL    HW151114   0.413   4.750   3.953 -1.1935 -0.8449  2.1298
16192SOL    HW251115   0.356   4.865   3.872  2.8317 -0.7169 -0.6762
16193SOL     OW51116   0.590   9.629   5.874  0.2840 -0.2687  0.2594
16193SOL    HW151117   0.518   9.573   5.845 -0.3809  1.0140 -0.6686
16193SOL    HW251118   0.630   9.661   5.793  1.1914 -0.0862  0.7689
16194SOL     OW51119   8.845   6.358   4.941 -0.0867  0.2967 -0.6974
16194SOL    HW151120   8.877   6.416   4.871  2.6924 -0.3135  0.0243
16194SOL    HW251121   8.883   6.273   4.921 -1.2813 -0.4791  0.2252
16195SOL     OW51122   2.389   4.480   9.821 -0.3055  0.5728 -0.1609
16195SOL    HW151123   2.376   4.571   9.795  0.3261  1.2835  1.9588
16195SOL    HW251124   2.314   4.459   9.877  0.4283  0.3100  0.7240
16196SOL     OW51125   0.180   2.044   4.524  0.2294 -0.3297 -0.2196
16196SOL    HW151126   0.176   2.073   4.615  0.8139 -0.4681 -0.1468
16196SOL    HW251127   0.237   2.108   4.481 -0.1591 -0.1839 -0.5165
16197SOL     OW51128   5.050   6.676   0.596  0.0385  0.4163  0.0163
16197SOL    HW151129   4.971   6.660   0.543  1.0660 -1.6835 -0.9387
16197SOL    HW251130   5.116   6.703   0.533  0.6205  0.2450  0.5458
16198SOL     OW51131   1.381   9.583   7.498 -0.4830  0.0186  0.0916
16198SOL    HW151132   1.474   9.585   7.520  0.1153 -1.7743 -2.1072
16198SOL    HW251133   1.378   9.587   7.403 -2.7787  2.2404  0.1939
16199SOL     OW51134   3.566   2.825   0.746 -0.2531  0.1754 -0.2769
16199SOL    HW151135   3.545   2.738   0.780  1.7326 -0.2156  0.0258
16199SOL    HW251136   3.531   2.825   0.657 -2.3848 -0.0471  0.5353
16200SOL     OW51137   7.498   0.582   6.895  0.0113 -0.4975  0.3709
16200SOL    HW151138   7.485   0.507   6.837  2.1002 -1.2367  0.7983
16200SOL    HW251139   7.479   0.548   6.983  0.8659 -0.5143  0.5538
16201SOL     OW51140   9.867   4.981   8.435 -0.2520 -0.0554 -0.2903
16201SOL    HW151141   9.894   5.017   8.519  1.0962  0.2182 -0.8253
16201SOL    HW251142   9.849   4.889   8.453 -0.3976  0.1042  0.3838
16202SOL     OW51143   3.720   9.294   8.407  0.6782 -0.7922 -0.3905
16202SOL    HW151144   3.708   9.205   8.372  0.9569 -0.7336 -0.6402
16202SOL    HW251145   3.657   9.300   8.478  0.8681 -1.2971 -0.1725
16203SOL     OW51146   6.430   0.153   7.998  0.9099  0.2940  0.2643
16203SOL    HW151147   6.459   0.075   8.045  2.2119  1.4613  1.4602
16203SOL    HW251148   6.374   0.199   8.060  1.3097  1.0294  0.0853
16204SOL     OW51149   9.071   5.132   0.457  0.1972 -0.0368 -0.2223
16204SOL    HW151150   9.130   5.092   0.521 -4.0657 -0.7833  3.4259
16204SOL    HW251151   8.993   5.077   0.457 -1.8342  2.6619 -2.5459
16205SOL     OW51152   8.171   0.735   0.680  0.0962 -0.3766 -0.2362
16205SOL    HW151153   8.184   0.759   0.588  1.4066 -0.7714 -0.1597
16205SOL    HW251154   8.176   0.640   0.681 -0.2092 -0.3922  0.2130
16206SOL     OW51155   8.365   5.406   2.641 -0.5911 -0.1823 -0.4257
16206SOL    HW151156   8.304   5.341   2.676 -1.1141  0.1493 -0.7005
16206SOL    HW251157   8.450   5.363   2.643 -0.5263  0.0275  1.7165
16207SOL     OW51158   9.456   8.090   7.581  0.4405 -0.1799  0.4751
16207SOL    HW151159   9.415   8.017   7.534 -0.0126  1.1139 -1.1468
16207SOL    HW251160   9.511   8.134   7.516  2.0926 -0.0920  1.8817
16208SOL     OW51161   9.869  10.174   5.600 -0.4979 -0.0599 -0.2308
16208SOL    HW151162   9.820  10.244   5.558  0.8725  0.3340 -1.1937
16208SOL    HW251163   9.960  10.202   5.597 -0.3021 -0.2374  2.6146
16209SOL     OW51164   5.857   5.797   8.386 -0.0645 -0.5660  0.0810
16209SOL    HW151165   5.927   5.732   8.392 -0.4745 -1.0916 -0.6983
16209SOL    HW251166   5.867   5.851   8.465  1.0243 -0.8224  0.1293
16210SOL     OW51167   1.972   1.528   9.614  0.4687  0.2810 -0.0025
16210SOL    HW151168   2.024   1.529   9.694 -0.6575  0.9088  0.7364
16210SOL    HW251169   2.028   1.567   9.548  1.4914 -0.4525  0.4207
16211SOL     OW51170   8.360   7.213   9.291  0.1804  0.5609 -0.7011
16211SOL    HW151171   8.267   7.228   9.309  0.2319 -0.3753  0.4401
16211SOL    HW251172   8.405   7.249   9.367  0.6819  0.0620 -0.7621
16212SOL     OW51173   5.172   0.676   2.876  0.2991 -0.4344 -0.3038
16212SOL    HW151174   5.123   0.734   2.817  0.5071 -0.4531 -0.4971
16212SOL    HW251175   5.116   0.599   2.884 -0.1142 -0.0824  0.1947
16213SOL     OW51176   3.069   0.932   9.642  0.3327 -0.0644 -0.1175
16213SOL    HW151177   3.136   1.000   9.651 -1.6985  2.0321 -0.1938
16213SOL    HW251178   3.004   0.954   9.708 -1.0880 -1.0339 -1.1634
16214SOL     OW51179   1.334   7.185   1.973  0.2926 -0.0792 -0.1570
16214SOL    HW151180   1.238   7.183   1.981  0.2702 -1.7184 -0.6643
16214SOL    HW251181   1.363   7.239   2.046 -1.0731  1.0968 -0.4561
16215SOL     OW51182   1.642   1.903   4.894 -0.0899 -0.0589 -0.3476
16215SOL    HW151183   1.617   1.878   4.982  1.6283  3.8769  1.4133
16215SOL    HW251184   1.562   1.937   4.854 -0.3397  0.5141  0.6290
16216SOL     OW51185   6.441   8.569   8.065  0.2583  0.1818  0.3769
16216SOL    HW151186   6.527   8.598   8.037  0.7167 -2.6695 -1.3950
16216SOL    HW251187   6.458   8.504   8.133 -0.5765  0.8052  1.2070
16217SOL     OW51188   4.464   1.411   9.580 -0.0543 -0.1801 -0.1744
16217SOL    HW151189   4.427   1.487   9.536  0.1988  0.5367  0.8382
16217SOL    HW251190   4.484   1.441   9.668  2.6877 -0.6291 -0.6033
16218SOL     OW51191   1.038   5.515   8.633  0.3902  0.5927  0.0169
16218SOL    HW151192   0.980   5.586   8.661  0.5692  0.4843  0.6808
16218SOL    HW251193   1.044   5.524   8.538 -0.5386  0.7469 -0.0325
16219SOL     OW51194   0.487   8.509   5.958 -0.7075  0.3768 -0.1302
16219SOL    HW151195   0.454   8.560   6.032 -1.0231 -0.3982  0.2619
16219SOL    HW251196   0.437   8.428   5.961  0.6818 -0.4856 -0.0027
16220SOL     OW51197   2.469   7.500   7.761  0.1054 -0.3564  0.1654
16220SOL    HW151198   2.551   7.542   7.787 -1.1223  2.9307 -1.0260
16220SOL    HW251199   2.482   7.474   7.670  0.4160 -1.4045  0.5067
16221SOL     OW51200   3.027   4.690   3.017  0.2326  0.4232  0.4777
16221SOL    HW151201   3.105   4.743   3.032 -0.0247  0.7612  0.6176
16221SOL    HW251202   3.027   4.673   2.923  0.2131  0.8282  0.4045
16222SOL     OW51203   6.574   7.419   2.727 -0.5395  0.4199  0.1838
16222SOL    HW151204   6.552   7.469   2.648 -0.2611 -0.4380 -0.4368
16222SOL    HW251205   6.580   7.328   2.697 -1.0358  0.0167  1.3136
16223SOL     OW51206   9.536   8.270   3.643  0.0256 -0.2477  0.0771
16223SOL    HW151207   9.467   8.212   3.676  0.8510 -1.3823 -0.1647
16223SOL    HW251208   9.617   8.234   3.679  0.4655  1.2574  0.6034
16224SOL     OW51209   8.147   0.961   9.139 -0.4286  0.0809  0.1927
16224SOL    HW151210   8.232   0.978   9.179 -0.5298 -1.5631  1.1865
16224SOL    HW251211   8.167   0.908   9.061 -0.6939 -3.2326  2.2543
16225SOL     OW51212   2.818   6.109   5.411  0.1526 -0.0118  0.3393
16225SOL    HW151213   2.879   6.163   5.362 -0.2746  1.0644  0.9696
16225SOL    HW251214   2.854   6.106   5.500  0.1641 -0.7529  0.3134
16226SOL     OW51215   7.844   6.662   5.512  0.5220  0.3526 -0.0055
16226SOL    HW151216   7.938   6.673   5.518  0.5075  0.3674  0.2025
16226SOL    HW251217   7.822   6.688   5.423  0.7754 -0.0943 -0.2003
16227SOL     OW51218   6.125   6.079   2.512  0.6501 -0.3494  0.0683
16227SOL    HW151219   6.111   5.995   2.470  0.6852 -1.2874  1.8708
16227SOL    HW251220   6.161   6.057   2.598  1.0130  1.5198  0.4114
16228SOL     OW51221   6.586   9.841   0.656 -0.4349 -0.1895 -0.0978
16228SOL    HW151222   6.631   9.922   0.630 -0.7221  0.2875  0.8634
16228SOL    HW251223   6.657   9.781   0.679 -0.2398  0.0951  0.0547
16229SOL     OW51224   2.258   6.106   3.267 -0.2676  0.1473  0.4044
16229SOL    HW151225   2.342   6.121   3.224  0.4130 -0.9430  1.3499
16229SOL    HW251226   2.223   6.194   3.283 -0.5841  0.5786 -2.4237
16230SOL     OW51227   1.111   8.811   4.385  0.0074  0.2264 -0.1600
16230SOL    HW151228   1.040   8.750   4.407 -0.1096  0.1468 -0.7559
16230SOL    HW251229   1.191   8.758   4.393 -0.1512 -0.2001 -1.3928
16231SOL     OW51230   0.524   4.285   0.676  0.3043 -0.3254 -0.1179
16231SOL    HW151231   0.595   4.346   0.694 -0.4935  0.3682  0.6821
16231SOL    HW251232   0.532   4.267   0.582  0.9866  0.4379 -0.2146
16232SOL     OW51233   2.107   2.685   9.963 -0.2355 -0.0050  0.2394
16232SOL    HW151234   2.094   2.768   9.918  1.2704  0.0102 -0.2041
16232SOL    HW251235   2.044   2.625   9.922 -0.1525  0.4848 -0.6111
16233SOL     OW51236   8.324   2.429   8.401  0.4387  0.5663 -0.0755
16233SOL    HW151237   8.394   2.494   8.412  1.8797 -1.2320  1.7466
16233SOL    HW251238   8.255   2.459   8.461  0.5689  1.1127 -0.1907
16234SOL     OW51239   6.935   9.431   9.342 -0.0959 -0.2053 -1.2067
16234SOL    HW151240   6.978   9.454   9.259  0.0043 -2.2614 -1.7739
16234SOL    HW251241   6.983   9.354   9.373  1.3718  1.9068  2.0068
16235SOL     OW51242   4.678   4.555   7.416  0.0089 -0.2694  0.0532
16235SOL    HW151243   4.694   4.547   7.322 -1.4662 -1.4103 -0.1351
16235SOL    HW251244   4.692   4.647   7.435  0.7502 -0.1051 -1.2001
16236SOL     OW51245   6.962   8.494   4.329 -0.2875 -0.3813 -0.0493
16236SOL    HW151246   6.896   8.437   4.290 -0.7712  0.2730 -0.1989
16236SOL    HW251247   7.040   8.439   4.337 -1.0568 -1.3734  0.8069
16237SOL     OW51248   4.978   7.760   4.393  0.2548  0.2388 -0.3183
16237SOL    HW151249   5.039   7.833   4.390 -0.3774  0.7340 -1.2645
16237SOL    HW251250   4.924   7.770   4.315 -1.3473  0.0654  0.7371
16238SOL     OW51251   5.644   8.964   2.150 -0.6562 -0.3541  0.0111
16238SOL    HW151252   5.678   8.875   2.150  2.7082  0.8686  1.0391
16238SOL    HW251253   5.612   8.978   2.239 -2.3154 -0.9285 -0.4858
16239SOL     OW51254  10.033   2.424   1.583 -0.8566 -0.0433 -0.2066
16239SOL    HW151255  10.036   2.454   1.492  1.8114  1.4653  0.3374
16239SOL    HW251256   9.967   2.479   1.624  0.2805  1.5501 -0.4746
16240SOL     OW51257   8.255   1.562   4.671 -0.5013 -0.1072  0.3542
16240SOL    HW151258   8.294   1.488   4.624  2.5458  0.7320  1.4309
16240SOL    HW251259   8.217   1.522   4.749  0.2194 -0.6849  0.4252
16241SOL     OW51260   2.325   9.572   0.644 -0.3329  0.8417  0.1774
16241SOL    HW151261   2.234   9.597   0.663  0.0829  1.6380  1.1588
16241SOL    HW251262   2.378   9.637   0.689  0.7633 -1.0114  1.6508
16242SOL     OW51263   3.313   9.627   5.540 -0.1680 -0.1513 -0.0310
16242SOL    HW151264   3.223   9.596   5.529 -0.1016 -1.8817  3.3699
16242SOL    HW251265   3.366   9.547   5.543  1.5677  0.8570 -2.2611
16243SOL     OW51266   2.230   4.336   0.993 -0.6735 -0.1834  1.0605
16243SOL    HW151267   2.320   4.360   1.015 -0.2411 -0.6836 -0.1726
16243SOL    HW251268   2.195   4.414   0.951  0.0796 -0.9480 -1.0367
16244SOL     OW51269   8.409   1.839   1.024  0.3866 -0.0133  0.1454
16244SOL    HW151270   8.477   1.814   0.961  1.6708 -0.7483  1.7826
16244SOL    HW251271   8.455   1.847   1.108 -1.3696  0.4944  1.1030
16245SOL     OW51272   6.827   8.074   3.602 -0.2507  0.1387 -0.1345
16245SOL    HW151273   6.784   7.998   3.562  3.3844 -0.4546 -3.2332
16245SOL    HW251274   6.775   8.149   3.573 -1.0511 -0.7724 -1.1324
16246SOL     OW51275   5.012   1.149   5.993 -0.1815 -0.2792 -0.2366
16246SOL    HW151276   5.042   1.064   6.025  0.1295 -0.3574 -0.7280
16246SOL    HW251277   5.067   1.213   6.038 -1.5451 -0.2419  1.4079
16247SOL     OW51278   9.535   2.639   4.159 -0.5824 -0.4343 -0.0260
16247SOL    HW151279   9.561   2.673   4.073 -2.0353 -1.3722 -0.8497
16247SOL    HW251280   9.518   2.546   4.144 -1.7845 -0.3992  1.0687
16248SOL     OW51281   9.727   3.701   6.317 -0.2304  0.2286 -0.1832
16248SOL    HW151282   9.801   3.652   6.281 -0.5814  0.4562 -1.2442
16248SOL    HW251283   9.650   3.647   6.297 -0.4777  0.5901 -0.2194
16249SOL     OW51284   4.771   1.503   4.399 -0.3862  0.5889 -0.1930
16249SOL    HW151285   4.725   1.543   4.473  2.2852  0.8155  1.4105
16249SOL    HW251286   4.800   1.418   4.432  1.1364  0.8412 -0.8461
16250SOL     OW51287   1.778   7.932   2.053 -1.0414  0.2360 -0.0790
16250SOL    HW151288   1.854   7.990   2.050 -0.5416 -0.3984  0.3723
16250SOL    HW251289   1.703   7.992   2.053 -0.5357  0.8740  0.0662
16251SOL     OW51290   6.650   4.695   0.620 -0.4710 -0.5237 -0.2505
16251SOL    HW151291   6.636   4.743   0.538 -2.6297 -1.3777 -0.4058
16251SOL    HW251292   6.566   4.699   0.665  0.7152  0.0310  2.0117
16252SOL     OW51293   0.250   8.765   7.635  0.2674  0.0066  0.3803
16252SOL    HW151294   0.296   8.779   7.717 -0.0425  3.5232  0.0203
16252SOL    HW251295   0.312   8.792   7.567 -0.8377  0.8012 -0.3328
16253SOL     OW51296   8.500   3.885   7.101  0.0772 -0.0422 -0.0715
16253SOL    HW151297   8.472   3.839   7.180 -0.3577 -0.3608 -0.4083
16253SOL    HW251298   8.526   3.816   7.040 -0.4685  0.1590 -0.5375
16254SOL     OW51299   7.414   3.073  10.056  0.1421  0.1501  0.4961
16254SOL    HW151300   7.467   3.130  10.112 -0.1212  0.3887  0.4992
16254SOL    HW251301   7.353   3.132  10.013  1.2130  0.1637 -1.0621
16255SOL     OW51302   7.142   6.683   8.509 -0.0080  0.1243 -0.5749
16255SOL    HW151303   7.148   6.766   8.558  2.1220 -1.1899  1.4772
16255SOL    HW251304   7.205   6.692   8.438  1.5023 -0.3968  0.6860
16256SOL     OW51305   9.645   6.741   1.342 -0.4115  0.3184  0.1414
16256SOL    HW151306   9.671   6.773   1.256 -0.8730 -1.1974 -0.5775
16256SOL    HW251307   9.722   6.756   1.397 -0.0141  1.0265 -0.5990
16257SOL     OW51308   7.751   9.005   9.906  0.2332 -0.1286  0.7019
16257SOL    HW151309   7.839   9.015   9.941  0.6440 -0.2926 -0.2734
16257SOL    HW251310   7.753   8.923   9.857 -0.3433  0.0827  0.3158
16258SOL     OW51311   7.238  10.137   6.903  0.1272  0.1717 -0.2624
16258SOL    HW151312   7.266  10.205   6.842  0.7259  0.6346  0.5185
16258SOL    HW251313   7.143  10.130   6.890  0.1414  0.8091 -0.6927
16259SOL     OW51314   3.763   6.650   9.827 -0.2140  0.4438 -0.2268
16259SOL    HW151315   3.704   6.606   9.887  0.0835  1.9899  1.2352
16259SOL    HW251316   3.829   6.584   9.805 -0.7164 -0.3430  0.6021
16260SOL     OW51317   4.284   9.616   8.335 -0.4610  0.4672  0.5975
16260SOL    HW151318   4.271   9.681   8.404  1.2719  0.0143  1.3577
16260SOL    HW251319   4.278   9.532   8.380  1.9065  0.1898  0.4403
16261SOL     OW51320   7.908   6.994   3.652 -0.6113 -0.2150 -0.5902
16261SOL    HW151321   7.858   7.067   3.687 -0.3450 -0.4229  0.2524
16261SOL    HW251322   7.877   6.984   3.562 -1.1277  0.4973 -0.4957
16262SOL     OW51323   7.906   2.869   6.918 -0.3644  0.0842 -0.4211
16262SOL    HW151324   7.892   2.796   6.857  1.8579  0.5504 -1.5133
16262SOL    HW251325   7.880   2.946   6.868  0.0804  0.3210 -0.2833
16263SOL     OW51326   4.947   5.813   0.272  0.4359 -0.2944  0.3584
16263SOL    HW151327   4.886   5.834   0.200 -0.7175  1.0082  1.6746
16263SOL    HW251328   4.907   5.738   0.316 -0.5710  0.9686  1.6166
16264SOL     OW51329   7.059   8.467   5.723 -0.0078 -0.4907 -0.4604
16264SOL    HW151330   7.020   8.455   5.637 -0.0057  0.2743 -0.5748
16264SOL    HW251331   7.043   8.385   5.769 -0.6179 -0.6474 -0.9513
16265SOL     OW51332   5.211  10.006   0.497  0.5905 -0.3872  0.1468
16265SOL    HW151333   5.176  10.087   0.535 -0.0323 -1.3976  1.7424
16265SOL    HW251334   5.257  10.035   0.418 -1.3692  1.2907 -0.4163
16266SOL     OW51335   0.539   8.992   4.234  0.3691 -0.0695  0.1945
16266SOL    HW151336   0.508   8.986   4.143 -0.0587 -0.1868  0.3512
16266SOL    HW251337   0.635   8.993   4.225  0.3809 -1.9461 -0.1559
16267SOL     OW51338   5.628   2.202   8.258 -0.6315 -0.4695 -0.0176
16267SOL    HW151339   5.648   2.290   8.227  2.2378 -0.8102  0.6917
16267SOL    HW251340   5.593   2.157   8.181  1.0477  0.3375 -1.2842
16268SOL     OW51341   9.861   0.409   3.620 -0.1982 -0.0646 -0.2867
16268SOL    HW151342   9.893   0.319   3.626  0.4502  0.1921  0.1912
16268SOL    HW251343   9.935   0.459   3.586  0.0786  0.6130  1.2581
16269SOL     OW51344   8.153   5.056   8.557  0.5512 -0.1521  0.4414
16269SOL    HW151345   8.147   5.029   8.465 -0.6375 -1.5187  0.8828
16269SOL    HW251346   8.158   5.151   8.555  0.0126 -0.1484 -1.0277
16270SOL     OW51347   9.978   4.305   9.740 -0.3520  0.4247 -0.1651
16270SOL    HW151348   9.933   4.387   9.757 -0.1145  0.2930  1.1542
16270SOL    HW251349  10.000   4.271   9.826 -0.5889 -1.1085 -0.6887
16271SOL     OW51350   7.227   4.763   4.045 -0.1994  0.0766 -0.2458
16271SOL    HW151351   7.313   4.766   4.087 -0.3003 -0.8155  0.0386
16271SOL    HW251352   7.227   4.838   3.986  0.3847  0.6758  0.5057
16272SOL     OW51353   8.199   6.580   2.593  0.0298 -0.1487 -0.6258
16272SOL    HW151354   8.132   6.520   2.559 -0.2737 -0.0694 -0.1690
16272SOL    HW251355   8.150   6.645   2.642  0.5299 -0.8056  0.7825
16273SOL     OW51356   5.695   4.606   6.742  0.3630 -0.2128 -0.3564
16273SOL    HW151357   5.736   4.535   6.792 -0.2526  0.1716  0.7102
16273SOL    HW251358   5.601   4.591   6.751  0.2468 -0.0427 -1.2662
16274SOL     OW51359   3.046   1.711   9.014  0.4340  0.8229 -0.1803
16274SOL    HW151360   2.951   1.712   9.007  0.3387 -0.3383  0.8624
16274SOL    HW251361   3.071   1.803   9.006 -0.8914  1.2944  0.8652
16275SOL     OW51362   1.161   4.430   4.143 -0.0093  0.2742  0.0319
16275SOL    HW151363   1.168   4.437   4.238  0.8691  1.6124 -0.1133
16275SOL    HW251364   1.227   4.492   4.110 -0.6941  0.2282 -1.4385
16276SOL     OW51365   2.860   9.824   6.676 -0.0059  0.0569  0.1435
16276SOL    HW151366   2.802   9.783   6.740 -0.8584  0.4573 -0.3744
16276SOL    HW251367   2.835   9.916   6.675  0.9619  0.3225  0.2685
16277SOL     OW51368   4.156   4.410   5.929  0.1615  0.0506  0.3873
16277SOL    HW151369   4.145   4.430   5.836  1.2402 -1.1074  0.0006
16277SOL    HW251370   4.209   4.483   5.963 -0.6969  0.7596  0.2337
16278SOL     OW51371   5.099   5.256   5.058 -0.3409 -0.2422 -0.1376
16278SOL    HW151372   5.156   5.330   5.077 -2.0822  1.1733 -0.3735
16278SOL    HW251373   5.117   5.236   4.966  1.4108 -1.2741  0.3985
16279SOL     OW51374   6.710   9.190   6.879  0.4859  0.3500  0.0001
16279SOL    HW151375   6.775   9.154   6.818  0.5165  0.1337  0.1591
16279SOL    HW251376   6.724   9.285   6.876 -0.4430  0.4436 -1.3809
16280SOL     OW51377   2.439   5.342   9.287 -0.1979  0.2824  0.1130
16280SOL    HW151378   2.502   5.382   9.348  0.7383  1.1081 -1.3467
16280SOL    HW251379   2.465   5.376   9.201 -1.2830 -1.1205 -0.7890
16281SOL     OW51380   4.364   5.037   9.513 -0.4567 -0.4232 -0.1188
16281SOL    HW151381   4.434   5.093   9.482 -0.6065  1.4001  2.6544
16281SOL    HW251382   4.327   4.998   9.434  0.6319  2.2270 -1.9930
16282SOL     OW51383   2.357   4.302   6.527 -0.6136  0.2063 -0.0381
16282SOL    HW151384   2.346   4.322   6.434 -2.6729 -1.6762 -0.2379
16282SOL    HW251385   2.374   4.387   6.568  0.6564  1.0059 -2.1676
16283SOL     OW51386   0.668   2.738   7.681 -0.4695 -0.3526 -0.0555
16283SOL    HW151387   0.675   2.723   7.775  1.8987 -1.0527 -0.3013
16283SOL    HW251388   0.753   2.775   7.657 -1.2298  0.2718 -1.8450
16284SOL     OW51389   9.252   5.289   1.753 -0.3016  0.0961 -0.1247
16284SOL    HW151390   9.259   5.194   1.751 -2.5622 -0.0795 -2.5441
16284SOL    HW251391   9.203   5.308   1.833  0.7360 -0.7174  0.7063
16285SOL     OW51392   7.225   6.835   9.228 -0.4681 -0.0403 -0.0582
16285SOL    HW151393   7.320   6.839   9.227 -0.5239  1.4196 -1.5689
16285SOL    HW251394   7.204   6.753   9.183  0.0701 -0.4955  0.5095
16286SOL     OW51395   5.326   9.034   4.414 -0.1967 -0.2436  0.5199
16286SOL    HW151396   5.375   9.076   4.344 -2.7468  0.4340 -0.9192
16286SOL    HW251397   5.393   8.994   4.469  2.0165  1.6882 -0.6774
16287SOL     OW51398   0.533   2.293   9.498  0.4931 -0.1518  0.0765
16287SOL    HW151399   0.518   2.219   9.557 -0.3322  0.9092  1.2117
16287SOL    HW251400   0.518   2.257   9.410  1.9875 -1.8089  0.4669
16288SOL     OW51401   8.599   1.182   8.943 -0.2756  0.2124  0.1957
16288SOL    HW151402   8.664   1.169   8.873 -1.1638  0.5401 -0.7147
16288SOL    HW251403   8.649   1.218   9.016  0.2668  2.4361 -1.1955
16289SOL     OW51404   5.570   1.084   3.317  0.1029 -0.3337  0.0480
16289SOL    HW151405   5.666   1.087   3.308 -0.0834 -0.4614 -2.3009
16289SOL    HW251406   5.542   1.023   3.249 -1.7133  0.1477  0.3534
16290SOL     OW51407   7.977   8.963  10.099  0.7947  0.5966  0.4056
16290SOL    HW151408   7.924   9.040  10.118  1.0470  0.7495  0.5017
16290SOL    HW251409   8.067   8.991  10.117  0.9236  0.3868  0.0996
16291SOL     OW51410   6.188   7.824   7.954 -0.0720 -0.3726 -0.5096
16291SOL    HW151411   6.237   7.884   8.011  1.0381 -1.1344 -0.6400
16291SOL    HW251412   6.126   7.879   7.908  0.2069  0.5147  0.1666
16292SOL     OW51413   7.934   5.317   5.569 -0.3943 -0.1464  0.9181
16292SOL    HW151414   8.026   5.292   5.560 -0.8040 -1.5061  0.3893
16292SOL    HW251415   7.895   5.245   5.620 -1.0601  0.6443  1.5327
16293SOL     OW51416   9.906   8.508   5.541  0.5075  0.1205  0.0932
16293SOL    HW151417   9.856   8.510   5.459  1.2905 -1.9072 -0.4793
16293SOL    HW251418   9.908   8.415   5.565  0.8525  0.6161  2.0771
16294SOL     OW51419   6.728   1.131   7.968  0.3336 -0.0771  0.4192
16294SOL    HW151420   6.744   1.193   8.039 -0.1281 -1.8680  2.1322
16294SOL    HW251421   6.715   1.047   8.012  1.4742 -1.5053 -1.8765
16295SOL     OW51422   0.490   7.629   9.818  0.6268 -0.0383  0.1096
16295SOL    HW151423   0.423   7.681   9.773  0.7756 -1.3414 -1.6587
16295SOL    HW251424   0.440   7.562   9.865  0.6413 -0.5559 -0.6086
16296SOL     OW51425   0.975   1.464   3.631 -0.8545  0.0615 -0.2845
16296SOL    HW151426   0.976   1.377   3.671 -1.8120  0.2920  0.2723
16296SOL    HW251427   0.882   1.490   3.631 -0.4969  1.4085  0.2761
16297SOL     OW51428  10.066   2.680   6.363 -0.1470 -0.8071  0.0557
16297SOL    HW151429  10.097   2.768   6.383 -0.2902 -0.8636  0.5144
16297SOL    HW251430  10.080   2.671   6.268 -0.5775 -0.1209 -0.0709
16298SOL     OW51431   4.789   4.542   6.846 -0.2905  0.0542 -0.5778
16298SOL    HW151432   4.702   4.550   6.884  0.4114  1.2654  0.8175
16298SOL    HW251433   4.845   4.598   6.900  1.6177 -1.7512 -0.6107
16299SOL     OW51434   5.434   9.672   4.421 -0.0611 -0.0130  0.1499
16299SOL    HW151435   5.416   9.635   4.335 -0.6237  1.6585 -0.4607
16299SOL    HW251436   5.518   9.718   4.411 -0.1270  0.1833  0.4849
16300SOL     OW51437   3.911   5.790   0.570 -0.2830 -0.3128  0.2517
16300SOL    HW151438   3.880   5.876   0.540  0.0559 -0.1980  0.2275
16300SOL    HW251439   3.991   5.775   0.521 -1.3852 -1.5507 -1.2176
16301SOL     OW51440   2.095   6.572   4.510 -0.2628  0.6719  0.7434
16301SOL    HW151441   2.043   6.586   4.432 -0.7593 -1.4639  0.6533
16301SOL    HW251442   2.046   6.507   4.561  0.7420  0.9754  2.1511
16302SOL     OW51443   7.715   4.591   0.412 -0.2774  0.2837  0.4283
16302SOL    HW151444   7.636   4.624   0.369 -1.1219  1.7935  3.0005
16302SOL    HW251445   7.726   4.502   0.378 -2.2626  0.5521 -1.0143
16303SOL     OW51446   4.267   8.755   0.120  0.3633  0.1652 -0.3389
16303SOL    HW151447   4.239   8.668   0.093 -2.3310  0.2854  1.9684
16303SOL    HW251448   4.307   8.793   0.041  0.0805 -2.5108 -1.8027
16304SOL     OW51449   9.655   4.498   2.572  0.2185 -0.0426 -0.2004
16304SOL    HW151450   9.641   4.412   2.611  0.2146 -0.0769 -0.2781
16304SOL    HW251451   9.728   4.535   2.622  0.1529 -0.0498 -0.0985
16305SOL     OW51452   4.291   2.327   6.275 -0.3490 -0.0117  0.0489
16305SOL    HW151453   4.289   2.344   6.369  1.3656 -1.0569  0.2793
16305SOL    HW251454   4.337   2.402   6.238 -2.4143  1.1988 -0.1685
16306SOL     OW51455   7.886   5.005   5.980  0.3600 -0.3674  0.0150
16306SOL    HW151456   7.846   4.919   5.966 -0.6190 -0.0105  0.6185
16306SOL    HW251457   7.876   5.050   5.896 -0.1161 -0.4350  0.0368
16307SOL     OW51458   0.536   4.618  10.173 -0.0261 -0.0561  0.1637
16307SOL    HW151459   0.494   4.704  10.162 -1.1891 -0.5046  1.0089
16307SOL    HW251460   0.464   4.555  10.168  0.2693 -0.7332  3.1761
16308SOL     OW51461   5.333   5.948  10.202  0.1567  0.1622  0.1656
16308SOL    HW151462   5.408   5.953  10.144 -0.2653  1.0142 -0.3154
16308SOL    HW251463   5.317   5.854  10.212  1.2984 -0.0249  0.3084
16309SOL     OW51464   7.631   9.766   4.106  0.2687 -0.1067 -0.3420
16309SOL    HW151465   7.677   9.840   4.065  1.7208 -0.9170 -0.1969
16309SOL    HW251466   7.549   9.760   4.057  0.4024  1.2174 -0.7657
16310SOL     OW51467   1.021   2.061   6.794  0.0729  0.7425 -0.4467
16310SOL    HW151468   1.100   2.029   6.750 -0.1141 -1.8395  1.0017
16310SOL    HW251469   1.049   2.078   6.884 -0.6201  1.5730 -0.3823
16311SOL     OW51470   8.649   1.108   6.008 -0.9400 -0.1896 -0.1066
16311SOL    HW151471   8.570   1.125   5.956 -0.9103 -0.1266 -0.1319
16311SOL    HW251472   8.668   1.191   6.051 -0.9299 -0.2255 -0.0413
16312SOL     OW51473   2.299   1.282   8.414 -0.8419 -0.0651  0.0278
16312SOL    HW151474   2.335   1.362   8.451  0.7926 -0.4343 -0.7080
16312SOL    HW251475   2.298   1.220   8.486  0.2063 -0.1051  0.0157
16313SOL     OW51476   8.235   0.445   8.877 -0.3720  0.4016 -0.1151
16313SOL    HW151477   8.247   0.410   8.789 -1.5551 -0.3815  0.0243
16313SOL    HW251478   8.144   0.424   8.899 -0.2970  1.2316  1.0091
16314SOL     OW51479   1.678   4.963   6.377 -0.5441 -0.5622 -0.0136
16314SOL    HW151480   1.749   4.982   6.439  1.1386 -0.4903 -1.8870
16314SOL    HW251481   1.604   5.013   6.409  0.7977  0.8332  0.9931
16315SOL     OW51482   4.635   3.105   6.159  0.2265  0.2866 -0.4994
16315SOL    HW151483   4.641   3.132   6.067  1.7268 -0.5951 -0.6701
16315SOL    HW251484   4.654   3.011   6.157  0.1379  0.2367  0.7061
16316SOL     OW51485   0.914   9.277   1.299 -0.8415  0.2355 -0.0088
16316SOL    HW151486   0.912   9.352   1.359 -1.3326  0.0818  0.1716
16316SOL    HW251487   0.964   9.210   1.346 -1.0108  0.2038  0.1286
16317SOL     OW51488   0.183   1.793   4.739 -0.0567  0.0127  0.3143
16317SOL    HW151489   0.210   1.850   4.667  0.1245 -0.9377 -0.3669
16317SOL    HW251490   0.092   1.771   4.719  0.6728 -2.0807 -0.8239
16318SOL     OW51491   6.844   1.670   1.484 -0.4914  0.2626 -0.2231
16318SOL    HW151492   6.903   1.745   1.475 -2.1849  1.5181 -0.9020
16318SOL    HW251493   6.900   1.594   1.466  1.1907  1.3487  0.2649
16319SOL     OW51494   6.640   9.263   9.838 -0.0363 -0.3887 -0.5961
16319SOL    HW151495   6.572   9.197   9.824  0.4265 -1.1285  0.4668
16319SOL    HW251496   6.672   9.244   9.927  0.5719  0.8443 -0.5524
16320SOL     OW51497   8.402   1.624   1.986 -0.0333  0.0193  0.1251
16320SOL    HW151498   8.480   1.655   1.939 -0.7317 -0.1536 -1.1895
16320SOL    HW251499   8.331   1.633   1.922 -0.9685 -0.4525  1.0853
16321SOL     OW51500   4.011   2.342   5.431 -0.7461  0.4485 -0.2225
16321SOL    HW151501   3.949   2.384   5.371 -0.7222 -0.3475 -0.8112
16321SOL    HW251502   4.039   2.263   5.384  1.6234  1.4088 -0.4926
16322SOL     OW51503   8.497   6.220   0.917 -0.2038 -0.2462 -0.4484
16322SOL    HW151504   8.479   6.202   0.825  1.2102  0.0914 -0.8090
16322SOL    HW251505   8.565   6.287   0.915 -0.6678  0.2754  0.8501
16323SOL     OW51506   3.684   0.152   8.998  0.2049 -0.2631  0.1952
16323SOL    HW151507   3.700   0.140   8.904  1.4246  2.3558  0.0401
16323SOL    HW251508   3.766   0.184   9.033 -0.5537 -0.2168  2.0029
16324SOL     OW51509   0.870   0.184   4.686 -0.2417  0.7618  0.3336
16324SOL    HW151510   0.950   0.237   4.690 -0.6831  1.4963 -0.4005
16324SOL    HW251511   0.901   0.094   4.691  0.9453  0.8668 -3.3864
16325SOL     OW51512   0.174   6.417   9.683  0.1703  0.0594 -0.0305
16325SOL    HW151513   0.188   6.331   9.644 -0.0740 -1.5043  3.1485
16325SOL    HW251514   0.250   6.431   9.739 -0.3066  1.4228  0.2983
16326SOL     OW51515   8.883   2.469   6.579  0.7821 -0.3240  0.0102
16326SOL    HW151516   8.939   2.458   6.656  2.0704 -0.3029 -0.9119
16326SOL    HW251517   8.885   2.384   6.536  0.1218 -0.3145 -0.0346
16327SOL     OW51518   6.418   5.702   4.635 -0.0370  0.0788  0.3264
16327SOL    HW151519   6.474   5.626   4.616 -0.2243 -0.5633  2.1549
16327SOL    HW251520   6.478   5.766   4.674  0.1951  1.0540 -1.5689
16328SOL     OW51521   3.166   2.376   6.704 -0.4298  0.7152  0.1017
16328SOL    HW151522   3.136   2.342   6.788  1.2519  0.2771  0.5503
16328SOL    HW251523   3.255   2.341   6.694  0.2660  2.6720 -0.7573
16329SOL     OW51524   1.220   4.815   2.679  0.5322  0.4166  0.2549
16329SOL    HW151525   1.153   4.764   2.634  1.2948  0.5607 -1.0683
16329SOL    HW251526   1.298   4.759   2.677  0.9666  1.0265  0.0860
16330SOL     OW51527   9.614   2.364   4.093  0.4710 -0.0208 -0.2190
16330SOL    HW151528   9.591   2.298   4.159 -0.9972 -1.3961 -2.0254
16330SOL    HW251529   9.708   2.375   4.102  0.4671 -1.0647  1.3179
16331SOL     OW51530   0.943   3.949   0.312 -1.1431  0.1974 -0.3757
16331SOL    HW151531   0.999   3.878   0.280  0.4440  1.1888  0.1623
16331SOL    HW251532   0.991   3.987   0.386 -0.3399  3.9567 -2.6611
16332SOL     OW51533   3.323   2.362   4.324 -1.1052  0.1892  0.5731
16332SOL    HW151534   3.349   2.393   4.238  1.4579  0.0100  1.2353
16332SOL    HW251535   3.228   2.375   4.327 -1.2839 -0.1549 -2.3844
16333SOL     OW51536   5.449   8.992   6.307 -0.1975  0.6169  0.0093
16333SOL    HW151537   5.514   8.947   6.360 -0.7749 -1.6801 -1.1415
16333SOL    HW251538   5.471   9.085   6.314  2.2800 -0.0050  0.8106
16334SOL     OW51539   0.956   5.243   8.631  0.0776  0.4000 -0.1031
16334SOL    HW151540   1.012   5.190   8.574 -1.3981 -0.6396 -0.6167
16334SOL    HW251541   0.997   5.329   8.631  1.9741 -0.4712 -0.0388
16335SOL     OW51542   4.644   9.297   0.311 -0.1345 -0.0406  0.5285
16335SOL    HW151543   4.656   9.213   0.265  0.3736  0.0967  0.4100
16335SOL    HW251544   4.647   9.274   0.403 -0.8000 -0.2658  0.5017
16336SOL     OW51545   3.583   9.971   7.545  0.6263  1.3218  0.4705
16336SOL    HW151546   3.620   9.890   7.579  0.0144  1.7793  2.3078
16336SOL    HW251547   3.515   9.943   7.484  1.9513  0.4766 -0.6388
16337SOL     OW51548   3.862   9.138   6.039  0.2494 -0.4376 -0.1258
16337SOL    HW151549   3.831   9.081   6.109 -1.7114  0.5758 -0.1451
16337SOL    HW251550   3.884   9.220   6.083  2.9440 -1.1278 -0.1161
16338SOL     OW51551   4.249   2.648   2.011 -0.5234 -0.2654  0.0443
16338SOL    HW151552   4.222   2.570   1.962  1.1384 -0.2336 -0.9345
16338SOL    HW251553   4.336   2.670   1.977  0.1915  0.4217  2.2241
16339SOL     OW51554   2.109   5.136   0.761 -0.3628 -0.1327 -0.7729
16339SOL    HW151555   2.018   5.160   0.744 -0.8405 -2.5212 -1.7508
16339SOL    HW251556   2.153   5.220   0.777 -2.3453  1.2162 -2.1383
16340SOL     OW51557   1.689   0.086   2.640 -0.1778 -0.0059 -0.2250
16340SOL    HW151558   1.739   0.106   2.719  1.1456 -2.8739 -0.2932
16340SOL    HW251559   1.610   0.042   2.672  0.2359 -0.9315 -0.4453
16341SOL     OW51560   4.362   4.093   5.107  0.5383 -0.4084 -0.2147
16341SOL    HW151561   4.423   4.165   5.125 -1.0089  1.2618 -1.4187
16341SOL    HW251562   4.406   4.041   5.039  1.4458 -0.3077  0.2838
16342SOL     OW51563   7.505   9.078   9.570 -0.5158 -0.3126 -0.2995
16342SOL    HW151564   7.563   9.005   9.547 -1.0544 -1.4454  1.8050
16342SOL    HW251565   7.559   9.136   9.624 -0.9495 -0.6819  0.5324
16343SOL     OW51566   4.982   3.886   5.922  0.4724 -0.2371  0.0975
16343SOL    HW151567   4.940   3.872   5.837 -0.4557 -1.5219  0.7364
16343SOL    HW251568   5.055   3.824   5.923  1.2446  0.6621 -0.2563
16344SOL     OW51569   3.491   6.143   0.161  0.3147 -0.4051  0.4346
16344SOL    HW151570   3.482   6.119   0.254  1.6026 -0.2449  0.6072
16344SOL    HW251571   3.555   6.214   0.161 -0.4263  0.2725 -0.4863
16345SOL     OW51572   1.730   0.681   2.875 -0.4643  0.6082  0.7469
16345SOL    HW151573   1.791   0.673   2.801 -1.0932 -0.8923  0.3650
16345SOL    HW251574   1.749   0.767   2.912  0.0380  1.2871 -1.0075
16346SOL     OW51575   3.191   4.869   2.689  0.9122 -0.1863  0.1196
16346SOL    HW151576   3.200   4.870   2.784  1.6340  2.5271  0.0810
16346SOL    HW251577   3.234   4.789   2.660  0.8987 -0.9034  2.0596
16347SOL     OW51578   1.746   0.560   4.372 -0.2456 -0.1551 -0.2053
16347SOL    HW151579   1.721   0.469   4.357 -0.8916 -0.0624  0.2893
16347SOL    HW251580   1.730   0.604   4.288 -0.5625 -0.3533 -0.2460
16348SOL     OW51581   4.534   8.090   1.540  0.0619  0.0071 -0.1954
16348SOL    HW151582   4.551   8.014   1.597 -0.2597  0.3323  0.3440
16348SOL    HW251583   4.620   8.113   1.505  0.2429 -0.2974  0.0401
16349SOL     OW51584   2.563   2.903   5.340 -0.3440  0.6128 -0.0261
16349SOL    HW151585   2.601   2.984   5.375 -0.7555  1.0395 -0.5627
16349SOL    HW251586   2.615   2.833   5.381 -1.4390  1.0598  2.2172
16350SOL     OW51587   9.459   9.435   5.523 -1.1034  0.1289  0.1356
16350SOL    HW151588   9.457   9.461   5.615  0.2875 -0.8189  0.4561
16350SOL    HW251589   9.391   9.488   5.481 -1.6834  0.6360  1.6847
16351SOL     OW51590   0.424   6.293   5.305  0.2980 -0.1087  0.2923
16351SOL    HW151591   0.381   6.208   5.308  1.1620 -0.5215  1.4467
16351SOL    HW251592   0.364   6.349   5.256  0.9362 -2.0484 -2.8231
16352SOL     OW51593   9.033   6.689   0.124  0.4533 -0.7535  0.1109
16352SOL    HW151594   9.096   6.630   0.082  0.4372 -1.3163  0.8732
16352SOL    HW251595   8.947   6.655   0.099  0.4439 -0.8823  0.3241
16353SOL     OW51596  10.179   0.162   9.503 -0.4725 -0.7195 -0.1536
16353SOL    HW151597  10.254   0.104   9.517 -0.3764 -1.0080 -1.8005
16353SOL    HW251598  10.177   0.177   9.409 -2.5285 -0.7569 -0.1362
16354SOL     OW51599   2.091   1.239   3.499 -0.3622 -0.6890 -0.3021
16354SOL    HW151600   2.104   1.252   3.593 -1.8517 -0.5706 -0.0960
16354SOL    HW251601   2.088   1.327   3.462 -1.4245 -0.6799 -0.2123
16355SOL     OW51602   6.960   3.578   4.129  0.3762  0.1173  0.1151
16355SOL    HW151603   6.919   3.512   4.185 -1.2831  1.7663  0.9084
16355SOL    HW251604   6.958   3.539   4.041 -0.4753 -0.9302  0.5910
16356SOL     OW51605   4.461   2.554   8.458  0.2682 -0.0621 -0.0735
16356SOL    HW151606   4.550   2.522   8.470  0.6678  0.9495 -0.3575
16356SOL    HW251607   4.427   2.565   8.547  0.6416  0.1566  0.0418
16357SOL     OW51608   2.002   9.860   5.997 -0.3962  0.4850  0.5383
16357SOL    HW151609   2.038   9.926   6.056 -0.5012  0.3137  0.7945
16357SOL    HW251610   2.057   9.783   6.012  0.3650  0.8021 -0.4784
16358SOL     OW51611  10.129   6.193   3.859 -0.4077  0.6065 -0.5013
16358SOL    HW151612  10.057   6.255   3.850 -1.1836 -0.4313 -1.5320
16358SOL    HW251613  10.198   6.228   3.802  0.0913  1.8186  0.8004
16359SOL     OW51614   2.738   8.262   8.994  0.2816 -0.0242 -0.3888
16359SOL    HW151615   2.749   8.357   9.002  0.8309  0.0473 -1.9061
16359SOL    HW251616   2.800   8.226   9.058  0.0928  0.6230  0.1724
16360SOL     OW51617   6.178   6.083   8.074  1.1358 -0.0436  0.0822
16360SOL    HW151618   6.258   6.112   8.117  0.3835  0.1804  1.3506
16360SOL    HW251619   6.108   6.115   8.130  0.2266 -2.7901  0.5758
16361SOL     OW51620   8.871   2.939   4.161 -0.5818  0.2728 -0.0933
16361SOL    HW151621   8.880   3.003   4.232 -1.6509  0.0615  0.2487
16361SOL    HW251622   8.879   2.990   4.081  0.8206  0.4885  0.1833
16362SOL     OW51623   1.781   3.320   5.371  0.3315  0.0177 -0.6578
16362SOL    HW151624   1.806   3.403   5.410 -0.0801  0.8556 -2.1528
16362SOL    HW251625   1.861   3.267   5.377 -0.0115 -0.2730  2.2418
16363SOL     OW51626   2.543   9.679   9.626 -0.1381  0.0325 -0.4554
16363SOL    HW151627   2.576   9.754   9.675 -0.3766  0.1927 -0.5366
16363SOL    HW251628   2.452   9.702   9.605 -1.2309 -1.6187  2.2201
16364SOL     OW51629   4.026   0.494   0.479 -0.5284 -0.2976  0.3443
16364SOL    HW151630   3.986   0.549   0.412 -3.1293 -0.8565  1.4040
16364SOL    HW251631   4.043   0.554   0.552  2.3356  0.3190 -0.7360
16365SOL     OW51632   8.915   7.029   7.559  0.9425 -0.3724 -0.2146
16365SOL    HW151633   8.880   6.947   7.523  1.1544 -0.2035 -0.8192
16365SOL    HW251634   8.881   7.033   7.648  0.1061 -0.6254 -0.5207
16366SOL     OW51635   5.181   6.081   7.948  0.4233  0.1128 -0.2502
16366SOL    HW151636   5.231   6.066   8.029  0.2581  0.4941 -0.0732
16366SOL    HW251637   5.240   6.133   7.893  0.1794  0.6708  0.0091
16367SOL     OW51638   5.062   1.746   2.036  0.1017 -0.0177 -0.4136
16367SOL    HW151639   4.969   1.757   2.054  0.2167 -1.8731  1.5440
16367SOL    HW251640   5.106   1.799   2.103  0.4625 -0.3120 -0.4158
16368SOL     OW51641   2.661   7.431   5.571 -0.0219  0.2753 -0.1531
16368SOL    HW151642   2.746   7.418   5.529 -0.3467 -0.5752 -0.5817
16368SOL    HW251643   2.606   7.361   5.534 -0.7083  0.3937  0.6345
16369SOL     OW51644   9.351   0.389   4.382 -0.3597  0.6169 -0.1192
16369SOL    HW151645   9.291   0.347   4.320  1.8201 -0.5450 -1.4872
16369SOL    HW251646   9.332   0.346   4.466 -1.5390  0.3559 -0.5123
16370SOL     OW51647   6.838   5.132   8.495  0.2892  0.0702  0.3478
16370SOL    HW151648   6.785   5.171   8.565 -0.5932  0.1409 -0.3583
16370SOL    HW251649   6.817   5.183   8.417  0.6410 -0.5479 -0.1604
16371SOL     OW51650   1.150   3.752   6.125  0.1183 -0.0093  0.5341
16371SOL    HW151651   1.239   3.771   6.094 -0.0596  0.9792  0.5982
16371SOL    HW251652   1.109   3.703   6.054  0.5842 -0.1097  0.3333
16372SOL     OW51653   6.307   7.532   6.189 -0.4318  0.2758  0.0331
16372SOL    HW151654   6.299   7.442   6.157  1.5460 -0.3053  1.1007
16372SOL    HW251655   6.231   7.544   6.245  0.2089 -1.3683  1.3182
16373SOL     OW51656   5.584   1.393   1.178 -0.3026 -0.1581 -0.3392
16373SOL    HW151657   5.490   1.399   1.195 -0.6830 -1.4568 -1.8387
16373SOL    HW251658   5.612   1.314   1.226  0.0910  0.3878  0.3436
16374SOL     OW51659   1.976   4.934   4.932  0.3506 -0.0148 -0.2616
16374SOL    HW151660   2.005   5.021   4.959 -0.2234  0.0805  0.0538
16374SOL    HW251661   1.902   4.914   4.990  0.2654 -0.5680 -0.5578
16375SOL     OW51662   1.953   3.470   3.545 -0.1604  0.0500  0.2001
16375SOL    HW151663   1.939   3.510   3.631  1.3418  3.0118 -0.8419
16375SOL    HW251664   2.042   3.435   3.549 -0.1953 -0.0636 -0.0543
16376SOL     OW51665   1.447   7.321   6.303  0.0948 -0.5110 -0.1373
16376SOL    HW151666   1.382   7.346   6.237  0.0710  0.0066  0.0861
16376SOL    HW251667   1.512   7.271   6.254  0.5915  0.7172 -0.7443
16377SOL     OW51668   3.444  10.142   2.593 -0.2186 -0.2549 -0.1393
16377SOL    HW151669   3.425  10.052   2.566 -1.8448 -0.3387  1.2018
16377SOL    HW251670   3.528  10.162   2.552  1.0135 -2.9812  0.8963
16378SOL     OW51671   7.317   6.931   2.264 -0.2640  0.6820 -0.4653
16378SOL    HW151672   7.249   6.985   2.224 -0.8599  1.4851  1.5505
16378SOL    HW251673   7.300   6.938   2.358 -0.6246 -3.4070 -0.1465
16379SOL     OW51674   5.571   0.734   7.751  0.9213 -0.1454 -1.0783
16379SOL    HW151675   5.498   0.792   7.730  0.6925  0.2065  0.6213
16379SOL    HW251676   5.596   0.695   7.667 -0.9380  0.0606 -1.7437
16380SOL     OW51677   7.788   4.459   9.445 -0.3940 -0.1383 -0.5091
16380SOL    HW151678   7.770   4.451   9.538  0.0007 -0.6424 -0.4727
16380SOL    HW251679   7.815   4.550   9.433  0.0847 -0.2165 -0.0353
16381SOL     OW51680   9.360   2.353   8.212  0.0825 -0.1401  0.1344
16381SOL    HW151681   9.290   2.298   8.177  0.0979  0.9346 -1.6574
16381SOL    HW251682   9.441   2.309   8.187  0.0679 -0.6340  0.9480
16382SOL     OW51683   8.972   0.708   1.860 -0.4210 -0.4015 -0.1872
16382SOL    HW151684   8.983   0.635   1.800  2.7408 -1.1093  1.1493
16382SOL    HW251685   9.055   0.756   1.855 -1.2159  1.2114  1.4038
16383SOL     OW51686   4.591   3.366   0.404 -0.1723 -0.1513 -0.1525
16383SOL    HW151687   4.515   3.424   0.408  0.5732  1.0773 -2.3887
16383SOL    HW251688   4.623   3.362   0.494 -2.1681  0.2915  0.5931
16384SOL     OW51689   5.707   3.334   6.079 -0.3012 -0.0552 -0.2886
16384SOL    HW151690   5.794   3.352   6.114 -0.0841  1.4761 -1.5565
16384SOL    HW251691   5.667   3.420   6.069 -1.3254 -0.6373 -1.3140
16385SOL     OW51692   1.221   5.731   7.555 -0.0251 -0.0769  0.1563
16385SOL    HW151693   1.154   5.775   7.607  0.0695 -1.2450  1.2794
16385SOL    HW251694   1.173   5.660   7.510 -0.0185  0.6354 -1.0084
16386SOL     OW51695   9.339   5.524   4.163 -0.1672 -0.1436 -0.1224
16386SOL    HW151696   9.275   5.582   4.205 -0.5116 -0.4204 -0.2666
16386SOL    HW251697   9.315   5.436   4.191 -0.7112 -0.3758 -1.3089
16387SOL     OW51698   2.158   2.715   0.028 -0.3701 -0.6349  0.1629
16387SOL    HW151699   2.215   2.791   0.018  0.1799 -1.0615  0.0591
16387SOL    HW251700   2.109   2.710  -0.054  1.4506 -1.9192 -0.8701
16388SOL     OW51701   5.594   3.565   6.062  0.2816  0.4113 -0.5747
16388SOL    HW151702   5.503   3.571   6.033 -0.0567  1.0715  0.5858
16388SOL    HW251703   5.635   3.645   6.030  0.4828  0.0581 -1.1986
16389SOL     OW51704   1.199   9.656   6.277 -0.2065 -0.7091  0.1918
16389SOL    HW151705   1.186   9.604   6.356  1.6628 -2.1177 -0.4052
16389SOL    HW251706   1.117   9.644   6.228  0.3886 -3.5559 -0.1905
16390SOL     OW51707   8.441   9.622   9.599  0.7008  0.2735  0.0924
16390SOL    HW151708   8.397   9.646   9.518  1.1292  1.7798  0.2923
16390SOL    HW251709   8.452   9.527   9.593  0.8168  0.3838 -1.6505
16391SOL     OW51710   8.278   7.440   3.882 -0.1187 -0.1354 -0.2685
16391SOL    HW151711   8.312   7.416   3.969 -0.9227 -0.7569 -0.1255
16391SOL    HW251712   8.259   7.533   3.889 -1.1947 -0.4021  0.5723
16392SOL     OW51713   1.292   3.043   1.906 -0.3792 -0.0635  0.4094
16392SOL    HW151714   1.343   3.069   1.983 -0.5883 -1.5555  1.0788
16392SOL    HW251715   1.300   3.116   1.845  0.6109  0.7124  1.4606
16393SOL     OW51716   5.792   5.393   2.437 -0.1507 -0.2921  0.1102
16393SOL    HW151717   5.780   5.487   2.421  0.9707 -0.0802  0.4275
16393SOL    HW251718   5.875   5.372   2.394 -1.0717 -1.4436 -1.1327
16394SOL     OW51719   7.842   2.472   2.779 -0.0633 -0.0988  0.2687
16394SOL    HW151720   7.861   2.388   2.736 -1.5128  0.2424 -1.0834
16394SOL    HW251721   7.794   2.448   2.858  1.8785 -0.6856  1.3061
16395SOL     OW51722   1.741   5.220   7.889  0.0523  0.0756  0.0981
16395SOL    HW151723   1.805   5.153   7.915  0.9005  0.3918 -1.1437
16395SOL    HW251724   1.739   5.282   7.962 -1.2303 -1.6211  1.5722
16396SOL     OW51725   8.599   6.762   6.037  0.1032  0.0579  0.2239
16396SOL    HW151726   8.623   6.788   6.126 -0.8304 -0.0112  0.5004
16396SOL    HW251727   8.509   6.791   6.027  0.3029  0.3391 -0.8191
16397SOL     OW51728   3.322   1.018   3.656  0.1669 -0.2629  0.5808
16397SOL    HW151729   3.376   1.028   3.577  0.0971 -0.9186  0.4518
16397SOL    HW251730   3.350   0.935   3.694  1.0885  0.6496  1.9337
16398SOL     OW51731   2.473   9.491   1.238  0.6558  0.1804 -0.3313
16398SOL    HW151732   2.382   9.507   1.210  0.4608  1.3128  0.8971
16398SOL    HW251733   2.473   9.401   1.270  0.2061 -0.1685 -1.2907
16399SOL     OW51734   5.707   4.350   4.484  0.6753  0.0746  0.0564
16399SOL    HW151735   5.729   4.378   4.395  0.3378 -0.7124 -0.2734
16399SOL    HW251736   5.736   4.423   4.539  1.4339  0.3100 -0.6418
16400SOL     OW51737   6.589   8.212   3.259 -0.4522 -0.3755 -0.3996
16400SOL    HW151738   6.569   8.267   3.183  0.2862  1.5255  0.7383
16400SOL    HW251739   6.517   8.227   3.319  0.7548  0.9442  0.7510
16401SOL     OW51740   6.667   3.619   2.957  0.6052  0.3585 -0.1731
16401SOL    HW151741   6.692   3.603   3.048  1.2968  1.7076 -0.1218
16401SOL    HW251742   6.575   3.646   2.962  0.0129 -1.5700 -0.0831
16402SOL     OW51743   0.687   4.337   7.848 -0.2885 -0.2986  0.1228
16402SOL    HW151744   0.751   4.385   7.901 -0.2753  1.8913 -1.7753
16402SOL    HW251745   0.718   4.347   7.758 -2.4665 -0.4956 -0.6838
16403SOL     OW51746   6.560   1.656   9.057  0.1083 -0.8330 -0.5139
16403SOL    HW151747   6.532   1.693   9.141  0.6418 -0.1300 -0.6374
16403SOL    HW251748   6.624   1.719   9.024 -0.0371 -1.1532 -1.4089
16404SOL     OW51749   7.958   3.433   3.477 -0.1902  0.2864 -0.1317
16404SOL    HW151750   7.983   3.471   3.562  0.4170 -0.8602  0.2073
16404SOL    HW251751   7.989   3.497   3.413  0.8850  0.3417  0.4332
16405SOL     OW51752   7.075   7.210   3.843 -0.4032  0.0868  0.0224
16405SOL    HW151753   7.008   7.167   3.790 -0.2000 -1.6731  1.1709
16405SOL    HW251754   7.026   7.269   3.901 -0.8666 -0.3773  0.1038
16406SOL     OW51755   4.175   8.310   9.255  0.4434 -0.0805 -0.0733
16406SOL    HW151756   4.259   8.332   9.214  1.6524 -0.4631  2.0945
16406SOL    HW251757   4.109   8.344   9.195  2.1327 -0.1724 -2.0569
16407SOL     OW51758   5.418   3.090   2.022 -0.2581 -0.3523 -1.0430
16407SOL    HW151759   5.494   3.121   1.972 -0.1625 -1.0155 -1.3153
16407SOL    HW251760   5.416   3.146   2.100 -0.0880  0.3332 -1.5289
16408SOL     OW51761   6.554   3.279   9.832  0.5948  0.0300 -0.8622
16408SOL    HW151762   6.607   3.254   9.757  1.2268  0.2122 -0.4813
16408SOL    HW251763   6.562   3.205   9.893  3.1127  1.4595  0.6038
16409SOL     OW51764   2.005   9.953   3.953 -0.1930  0.2504 -0.3499
16409SOL    HW151765   2.046   9.882   4.002 -0.2689  0.0225 -0.6102
16409SOL    HW251766   2.067   9.972   3.882  0.9447  2.0539  1.0830
16410SOL     OW51767   1.514   8.596   2.376 -0.1804  0.2096 -0.1250
16410SOL    HW151768   1.588   8.617   2.433  1.7123 -0.6764 -2.1779
16410SOL    HW251769   1.532   8.507   2.345 -1.9648  0.0850 -0.8803
16411SOL     OW51770   1.707   1.015   7.183  0.0628  0.0646  0.3395
16411SOL    HW151771   1.694   1.109   7.171 -1.4986 -0.1102  0.5122
16411SOL    HW251772   1.798   1.006   7.211 -0.1850  1.6408  1.6749
16412SOL     OW51773   5.142   8.850   4.066 -0.4165  0.3202  0.5097
16412SOL    HW151774   5.183   8.854   3.980  1.9639 -0.2249  1.5632
16412SOL    HW251775   5.163   8.934   4.106 -0.5141  0.1217  0.9837
16413SOL     OW51776   2.127   3.011   2.822 -0.3456 -0.0705 -0.9513
16413SOL    HW151777   2.207   2.986   2.867  0.1199  2.0956 -0.4914
16413SOL    HW251778   2.126   2.959   2.742  0.8605 -1.0446 -0.3349
16414SOL     OW51779   2.728   5.440   0.375  0.0125 -0.1231  0.0910
16414SOL    HW151780   2.670   5.491   0.318  0.1222 -0.3595 -0.2353
16414SOL    HW251781   2.812   5.441   0.329 -0.0894 -0.9358 -0.1099
16415SOL     OW51782   9.482   4.418   8.160 -0.3034 -0.1377  0.0431
16415SOL    HW151783   9.514   4.500   8.122  0.8892 -0.8462 -0.4894
16415SOL    HW251784   9.482   4.433   8.254  1.1946  0.0201  0.0279
16416SOL     OW51785   5.205   8.262   6.002  0.5188  0.4796 -0.4257
16416SOL    HW151786   5.195   8.248   6.097 -0.9590 -0.3531 -0.6946
16416SOL    HW251787   5.209   8.357   5.993 -0.8979  0.6303  0.3358
16417SOL     OW51788   1.758   6.096   0.385  0.5040 -0.2574  0.7008
16417SOL    HW151789   1.839   6.044   0.378 -0.8235 -2.1265 -1.2636
16417SOL    HW251790   1.774   6.173   0.331  1.7100  0.4169  1.9717
16418SOL     OW51791   1.482   8.448   0.554 -0.0832 -0.3490 -0.2924
16418SOL    HW151792   1.567   8.414   0.525 -0.0526 -1.0877  0.6407
16418SOL    HW251793   1.497   8.476   0.644 -1.0029 -1.1556  0.1188
16419SOL     OW51794   8.458   3.663   2.284  0.4893  0.0052  0.5189
16419SOL    HW151795   8.374   3.691   2.321 -0.1610 -1.6531  0.3564
16419SOL    HW251796   8.460   3.568   2.299  1.1991 -0.3644 -1.7216
16420SOL     OW51797   9.569   4.175   0.724  0.8141  0.2358 -0.2275
16420SOL    HW151798   9.546   4.082   0.720 -0.2210  0.4521  0.5026
16420SOL    HW251799   9.661   4.178   0.695 -0.4732 -0.4678 -4.8143
16421SOL     OW51800   7.832   1.122   4.489  0.1148  0.3011  0.1508
16421SOL    HW151801   7.869   1.108   4.402 -1.1112  1.5249 -0.5868
16421SOL    HW251802   7.908   1.134   4.546  0.9301 -0.8257 -0.6776
16422SOL     OW51803   4.591   5.674   4.473 -0.2290 -0.1946  0.3052
16422SOL    HW151804   4.645   5.645   4.400 -0.6315  2.2562 -1.0158
16422SOL    HW251805   4.655   5.694   4.543  0.2929 -0.7864  0.0027
16423SOL     OW51806   4.709   0.004   0.339  0.1735  0.0796  0.7282
16423SOL    HW151807   4.744  -0.065   0.396 -1.2702 -0.3656  1.1061
16423SOL    HW251808   4.616  -0.017   0.332 -0.0050  1.2061 -0.2922
16424SOL     OW51809   4.406   1.207   8.056 -0.3097 -0.5106 -0.3100
16424SOL    HW151810   4.405   1.209   8.152  0.8112 -0.6344 -0.2890
16424SOL    HW251811   4.443   1.121   8.034  1.8650  0.5212 -0.8204
16425SOL     OW51812   5.670   2.275   2.143  0.2195  0.0345 -0.2415
16425SOL    HW151813   5.727   2.228   2.082  0.3158  0.2411 -0.3084
16425SOL    HW251814   5.730   2.325   2.199  0.1144  0.0986 -0.1857
16426SOL     OW51815   8.345   8.242   4.337  0.2005 -0.0036  0.1279
16426SOL    HW151816   8.332   8.300   4.262 -2.2076  1.8140  1.8971
16426SOL    HW251817   8.280   8.173   4.325  0.9734 -0.6703 -0.3216
16427SOL     OW51818   4.324   4.909   4.680  0.5864 -0.0881 -0.2077
16427SOL    HW151819   4.287   4.994   4.703  0.8380  0.3048 -1.2086
16427SOL    HW251820   4.285   4.847   4.742 -1.0166  0.4636 -0.6556
16428SOL     OW51821   8.466   1.860   2.178  0.0255 -0.0555  0.5520
16428SOL    HW151822   8.490   1.900   2.262 -1.0347  1.5354  0.1278
16428SOL    HW251823   8.383   1.815   2.196 -1.2878  2.0360 -0.1067
16429SOL     OW51824   9.466   2.854   4.343 -0.4688 -0.0458  0.0526
16429SOL    HW151825   9.477   2.778   4.286 -0.7985  1.8576 -2.6737
16429SOL    HW251826   9.544   2.908   4.328 -0.8242  0.7586  0.9932
16430SOL     OW51827   4.760   6.799   5.869  0.2475 -0.3544 -0.1510
16430SOL    HW151828   4.812   6.788   5.789 -1.4905  0.0181 -1.3732
16430SOL    HW251829   4.704   6.722   5.872 -0.2245  0.0046  0.2948
16431SOL     OW51830   0.692   6.193   2.298 -0.2691  0.0476  0.0344
16431SOL    HW151831   0.741   6.111   2.284  2.0095  1.1288  1.3047
16431SOL    HW251832   0.708   6.245   2.220  1.9192  0.9865  1.0531
16432SOL     OW51833   0.561   3.677   9.740  0.6280  0.1587 -0.3504
16432SOL    HW151834   0.529   3.767   9.733 -2.3102 -0.6543  1.5896
16432SOL    HW251835   0.512   3.629   9.673  1.3889 -0.2157 -0.6433
16433SOL     OW51836   0.372   6.349   4.883  0.3095 -0.1083  0.5630
16433SOL    HW151837   0.457   6.387   4.905 -0.1063  1.6910 -0.9009
16433SOL    HW251838   0.317   6.370   4.958  0.7750 -0.0897  0.9076
16434SOL     OW51839   5.120   6.151   5.434  0.2447  0.0519 -0.0422
16434SOL    HW151840   5.038   6.195   5.457 -0.3917 -1.1278  0.0078
16434SOL    HW251841   5.166   6.214   5.378 -1.0279  0.4478 -0.6680
16435SOL     OW51842   0.547   8.333   6.746  0.6638  0.1596 -0.0412
16435SOL    HW151843   0.531   8.414   6.794  0.7542 -0.4833  1.1204
16435SOL    HW251844   0.593   8.359   6.667 -0.9595  1.4392 -0.5909
16436SOL     OW51845   2.160   4.607   5.039  0.1103 -0.1542  0.1544
16436SOL    HW151846   2.178   4.674   4.974  1.5204  0.6801  1.3634
16436SOL    HW251847   2.064   4.604   5.045 -0.0025  0.5291 -1.1367
16437SOL     OW51848   3.200   6.401   4.375  0.2368 -0.1587  0.1554
16437SOL    HW151849   3.119   6.359   4.346  0.6351  0.0218 -1.2229
16437SOL    HW251850   3.249   6.330   4.417 -0.3255 -0.4224  0.3761
16438SOL     OW51851   8.874   6.632   8.009 -0.0330  0.0307  0.3601
16438SOL    HW151852   8.919   6.569   8.066  0.8244  0.4770  0.1782
16438SOL    HW251853   8.798   6.660   8.060  0.8351  0.5741  1.3709
16439SOL     OW51854   8.537   2.134   8.496 -0.1907  0.3735  0.2917
16439SOL    HW151855   8.618   2.178   8.521  0.0126  0.3075 -0.2380
16439SOL    HW251856   8.545   2.123   8.401 -0.7899  0.3061  0.2504
16440SOL     OW51857   9.562   4.056   7.879 -0.0506 -0.2698  0.8052
16440SOL    HW151858   9.603   4.124   7.825 -0.5363 -0.1946  0.5245
16440SOL    HW251859   9.633   3.995   7.899  0.5047  0.5954  1.4977
16441SOL     OW51860   9.740   9.816   4.394  0.1641  0.2671  0.1365
16441SOL    HW151861   9.806   9.809   4.325 -0.8456  0.0312 -0.8101
16441SOL    HW251862   9.760   9.899   4.438  0.8863  0.3548 -0.3472
16442SOL     OW51863   3.652   5.072   1.513 -0.5423 -0.7165 -0.2455
16442SOL    HW151864   3.653   5.092   1.419  0.7307 -1.1145 -0.3254
16442SOL    HW251865   3.621   5.153   1.554  0.6453  0.0663 -0.8781
16443SOL     OW51866   5.423   2.612   1.197 -0.5198  0.4554  0.4346
16443SOL    HW151867   5.383   2.528   1.174  0.6742  0.3871 -1.4906
16443SOL    HW251868   5.450   2.601   1.288 -2.0129 -0.5876  0.7794
16444SOL     OW51869   2.550   1.516   7.860 -0.0003 -0.0421 -0.0627
16444SOL    HW151870   2.551   1.532   7.765 -0.6929 -0.3526 -0.1301
16444SOL    HW251871   2.538   1.602   7.899 -0.6966 -0.0305 -0.2966
16445SOL     OW51872   6.478   2.569   3.636  0.0706  0.1106  0.1122
16445SOL    HW151873   6.395   2.595   3.596 -0.0934 -0.2899  0.1861
16445SOL    HW251874   6.494   2.635   3.704  0.5801  1.0571 -0.9059
16446SOL     OW51875   8.284   2.685   4.232  0.2273 -0.7297 -0.3843
16446SOL    HW151876   8.318   2.753   4.174 -1.0097  1.7884  1.7548
16446SOL    HW251877   8.207   2.652   4.186 -0.9790  1.5303 -0.0714
16447SOL     OW51878   7.492   3.654   1.912  0.3222 -0.3429  0.2554
16447SOL    HW151879   7.449   3.719   1.856  1.8751  0.4317 -0.0649
16447SOL    HW251880   7.469   3.680   2.001 -0.8951 -0.6725  0.0403
16448SOL     OW51881   1.767  10.080   1.367 -0.0294  0.1193 -0.1534
16448SOL    HW151882   1.823  10.136   1.421  0.0567 -1.2052  1.1399
16448SOL    HW251883   1.817  10.069   1.286  2.1728 -1.9816  1.4009
16449SOL     OW51884   1.937   7.894   4.893  0.2875 -0.7563 -0.2775
16449SOL    HW151885   2.026   7.875   4.923 -0.2322 -2.2592  0.4045
16449SOL    HW251886   1.887   7.906   4.974 -0.5394 -2.0125 -0.5822
16450SOL     OW51887   7.111   7.212   6.135 -0.5776 -0.0704 -0.4980
16450SOL    HW151888   7.042   7.146   6.124 -0.7280 -0.2177  1.1485
16450SOL    HW251889   7.085   7.284   6.079  0.1770 -1.8566 -3.2492
16451SOL     OW51890   1.782   5.275   8.483 -0.2619 -0.2352 -0.6169
16451SOL    HW151891   1.766   5.230   8.400  0.1684 -0.9806 -0.2961
16451SOL    HW251892   1.854   5.335   8.465 -0.9462  0.4431 -1.0907
16452SOL     OW51893   9.122   0.163   9.214 -0.1246  0.5508 -0.0600
16452SOL    HW151894   9.033   0.130   9.227 -0.3678  1.3004  0.2038
16452SOL    HW251895   9.168   0.140   9.294  1.3782 -4.4256 -2.1644
16453SOL     OW51896   3.651   5.181   3.597  0.3979 -0.0949  0.2681
16453SOL    HW151897   3.634   5.258   3.542  0.8534 -0.3082 -0.1679
16453SOL    HW251898   3.619   5.207   3.684 -1.2359 -0.1117 -0.3005
16454SOL     OW51899   1.353   2.419   1.674 -0.4452  0.9014 -0.0002
16454SOL    HW151900   1.418   2.489   1.669  0.3972  0.0406 -1.7084
16454SOL    HW251901   1.388   2.350   1.616 -1.1452 -1.0113  1.7912
16455SOL     OW51902   0.891   0.078   1.461  0.1278 -0.6240 -0.0944
16455SOL    HW151903   0.880  -0.014   1.436 -2.5156 -0.1620 -0.8036
16455SOL    HW251904   0.897   0.124   1.377 -1.5239  0.1671  0.2192
16456SOL     OW51905   8.191   3.321   7.874  0.3308  0.1523  0.0293
16456SOL    HW151906   8.134   3.298   7.800  2.1635 -2.0472 -0.7506
16456SOL    HW251907   8.277   3.334   7.835  1.1399 -0.2213  1.6605
16457SOL     OW51908   1.910   6.496   4.072  0.4129  0.7988  0.1436
16457SOL    HW151909   1.929   6.584   4.040  0.8852  0.9302  0.7749
16457SOL    HW251910   1.990   6.469   4.117  0.1408  0.1923  0.2636
16458SOL     OW51911   9.442   7.800   3.163  0.1809  0.1869 -0.1483
16458SOL    HW151912   9.418   7.886   3.198  0.4051  0.2805 -0.2246
16458SOL    HW251913   9.526   7.780   3.205  1.3354  1.0851 -1.9731
16459SOL     OW51914   4.971   9.330   9.811  0.0995  0.3850 -1.0535
16459SOL    HW151915   4.981   9.272   9.887  0.6448  1.4016 -0.3376
16459SOL    HW251916   4.885   9.308   9.775 -0.4332  0.3246  0.2252
16460SOL     OW51917   4.854   8.752   5.885 -0.0133 -0.2309 -0.4169
16460SOL    HW151918   4.807   8.829   5.919 -2.0565 -0.5540 -2.3967
16460SOL    HW251919   4.946   8.772   5.900 -0.6814  0.8695  2.6649
16461SOL     OW51920   2.345   9.918   6.182  0.4756  0.3064  0.1429
16461SOL    HW151921   2.335   9.936   6.088  0.6535  0.5983  0.1819
16461SOL    HW251922   2.418   9.972   6.210 -0.1023  0.8426  0.6246
16462SOL     OW51923   4.004   7.072   6.891 -0.1438 -0.4307  0.5670
16462SOL    HW151924   4.026   7.110   6.806 -0.9302  2.1948  1.4794
16462SOL    HW251925   3.910   7.053   6.886 -0.2033 -0.2266  0.8444
16463SOL     OW51926   3.691   0.731   0.873 -0.0732 -0.4004  0.2538
16463SOL    HW151927   3.745   0.804   0.901  1.0115 -0.8205 -0.6922
16463SOL    HW251928   3.669   0.685   0.954  0.0709  0.3942  0.7503
16464SOL     OW51929   0.915   7.421   0.248 -0.6870 -0.2380  0.1816
16464SOL    HW151930   0.889   7.457   0.333 -1.5041  0.7709 -0.4932
16464SOL    HW251931   0.969   7.345   0.270  3.2321  2.8168  1.7136
16465SOL     OW51932   8.364   1.686   7.850  0.0489  0.1270  1.2393
16465SOL    HW151933   8.269   1.677   7.842  0.0296  1.1056  0.2522
16465SOL    HW251934   8.381   1.780   7.840  1.0863  0.0113  1.8035
16466SOL     OW51935   0.100   1.352   4.518 -0.1282 -0.4054 -0.5468
16466SOL    HW151936   0.073   1.297   4.445 -1.4237 -1.0706  0.4120
16466SOL    HW251937   0.113   1.439   4.479 -0.6140 -0.7955 -1.6022
16467SOL     OW51938   9.353   1.382   4.839  0.2415  0.9012 -0.2481
16467SOL    HW151939   9.436   1.335   4.831  0.2626  0.0510  3.8208
16467SOL    HW251940   9.286   1.315   4.825  0.2587  0.5854  1.1742
16468SOL     OW51941   4.329   1.562   1.379  0.4743 -0.6007 -0.1561
16468SOL    HW151942   4.288   1.555   1.465 -1.7721  0.2263 -1.0936
16468SOL    HW251943   4.295   1.487   1.330 -0.2240  0.2722 -1.0434
16469SOL     OW51944   8.402   1.886   1.358  0.2049 -0.8678  0.4555
16469SOL    HW151945   8.454   1.824   1.409  1.6198 -0.8614 -0.9210
16469SOL    HW251946   8.467   1.945   1.319 -0.9196 -0.1817 -0.3984
16470SOL     OW51947  10.057   4.739   8.702  0.1482  0.4688  0.0176
16470SOL    HW151948  10.055   4.797   8.778 -1.5229 -0.7772  0.9571
16470SOL    HW251949   9.973   4.752   8.659  0.1858 -0.4556 -0.3518
16471SOL     OW51950   8.679   8.126   7.965 -0.0402  0.2551 -0.2447
16471SOL    HW151951   8.750   8.188   7.983 -1.3012  1.6105  0.1176
16471SOL    HW251952   8.720   8.040   7.976  1.0175  1.0109  2.1407
16472SOL     OW51953  10.199   4.413   0.868  0.1280 -0.1245  0.9950
16472SOL    HW151954  10.201   4.504   0.841  2.0833 -0.5997 -0.6394
16472SOL    HW251955  10.107   4.388   0.864 -0.0832  0.9329 -1.5436
16473SOL     OW51956   5.111   8.570   1.465  0.6040  0.2979  0.2554
16473SOL    HW151957   5.063   8.617   1.533 -0.7467 -1.6478  0.7134
16473SOL    HW251958   5.183   8.528   1.512  1.5884  1.5882 -0.0873
16474SOL     OW51959   4.833   5.185   0.268  0.2968  0.8754  0.0144
16474SOL    HW151960   4.790   5.269   0.253 -1.8274 -0.1401  0.1314
16474SOL    HW251961   4.781   5.123   0.216 -0.0638 -0.8605  2.4001
16475SOL     OW51962   9.016   4.897   1.481  0.6471  0.7356 -0.4620
16475SOL    HW151963   8.966   4.941   1.550  0.1263 -1.5388  0.6566
16475SOL    HW251964   8.962   4.906   1.403 -0.9206 -0.5608  0.4497
16476SOL     OW51965   1.815   0.927   3.856 -0.1815 -0.4047 -0.2551
16476SOL    HW151966   1.878   0.862   3.888 -1.0162 -0.6457  0.8910
16476SOL    HW251967   1.756   0.878   3.799 -0.6259 -0.5939  0.3674
16477SOL     OW51968   3.242   0.238   0.463 -0.0133 -0.0123 -0.2799
16477SOL    HW151969   3.279   0.172   0.521 -3.0217 -1.0823  0.5570
16477SOL    HW251970   3.216   0.309   0.521  0.2825  0.4926 -0.7676
16478SOL     OW51971   7.932   6.418   4.167  0.0518  0.1263  0.2538
16478SOL    HW151972   7.864   6.478   4.138  0.8529  0.4332 -1.0511
16478SOL    HW251973   7.943   6.438   4.260 -1.6766  0.0128  0.4947
16479SOL     OW51974   9.542  10.019   1.411  0.1124  0.7239 -0.4239
16479SOL    HW151975   9.563   9.946   1.353  2.4596  0.7895  0.3034
16479SOL    HW251976   9.577  10.097   1.366 -1.1775  1.2486 -0.5543
16480SOL     OW51977   3.885   8.590   7.073 -0.1240 -0.4054  0.1529
16480SOL    HW151978   3.817   8.551   7.128 -0.1028 -1.3885 -0.5026
16480SOL    HW251979   3.963   8.537   7.091  0.7803  1.4340  1.7646
16481SOL     OW51980   9.152   0.450   9.765  0.5123 -0.5599  0.5765
16481SOL    HW151981   9.076   0.467   9.820  1.7871  0.0659  2.1670
16481SOL    HW251982   9.203   0.530   9.769  1.7278 -1.3093  0.2914
16482SOL     OW51983   0.040   4.620   0.018 -0.4769  0.1124  0.3044
16482SOL    HW151984   0.050   4.526   0.033  0.3324 -0.0938 -1.4795
16482SOL    HW251985   0.060   4.659   0.103 -0.4728 -1.3073  0.9718
16483SOL     OW51986   1.589   9.716   5.621 -0.0317 -0.2427  0.1835
16483SOL    HW151987   1.672   9.739   5.661 -0.1912 -1.2764  1.1211
16483SOL    HW251988   1.552   9.799   5.591 -0.1300  0.6018  2.5873
16484SOL     OW51989   6.005   1.697   4.219  0.5153 -0.5292  0.4688
16484SOL    HW151990   5.926   1.720   4.170  1.0245 -0.7547 -0.4559
16484SOL    HW251991   6.044   1.781   4.242  1.1625 -0.4302 -0.9538
16485SOL     OW51992   9.168   8.545   7.620  0.4449 -0.0899  0.0876
16485SOL    HW151993   9.106   8.502   7.562 -0.5088 -1.1062  1.8128
16485SOL    HW251994   9.245   8.487   7.620  1.2771  0.9630 -1.7299
16486SOL     OW51995   6.691   9.110   5.713  0.7669 -0.1212 -0.4141
16486SOL    HW151996   6.708   9.024   5.673  1.2277 -0.4199  0.4011
16486SOL    HW251997   6.749   9.112   5.788  0.6558  0.8644 -0.3585
16487SOL     OW51998   0.248   9.334   0.203 -0.5160  0.3360  0.3227
16487SOL    HW151999   0.344   9.333   0.212 -0.6018 -0.6196  1.2127
16487SOL    HW252000   0.218   9.260   0.256 -1.6303 -0.5289 -1.4828
16488SOL     OW52001   9.727   5.079   1.430 -0.1980  0.1520  0.1941
16488SOL    HW152002   9.724   5.164   1.473 -1.3215  0.5411 -0.6462
16488SOL    HW252003   9.775   5.023   1.491 -0.1895  1.1694  1.1271
16489SOL     OW52004   0.281   1.828   1.499 -0.4281 -0.1837 -0.2025
16489SOL    HW152005   0.232   1.907   1.518 -0.3737 -0.3332  0.5482
16489SOL    HW252006   0.359   1.833   1.554  0.7668  0.3975 -1.9029
16490SOL     OW52007   0.200   3.842   6.355 -0.4307  0.1876 -0.4498
16490SOL    HW152008   0.247   3.906   6.302  1.4483 -0.7370  0.0762
16490SOL    HW252009   0.268   3.787   6.393 -1.8706 -0.5529  1.1415
16491SOL     OW52010   9.967   8.695   7.383 -0.2406 -0.6525  0.2285
16491SOL    HW152011  10.025   8.622   7.360  0.2120 -0.3021  0.2425
16491SOL    HW252012   9.944   8.735   7.299  0.5152 -0.0553  0.2983
16492SOL     OW52013   1.596   4.300   4.192 -0.2102 -0.3753  0.3276
16492SOL    HW152014   1.630   4.345   4.269  1.2650 -1.2236  0.2064
16492SOL    HW252015   1.670   4.248   4.161 -1.4102 -1.6568 -0.4382
16493SOL     OW52016   2.626   8.133   5.005  0.0678  0.0855 -0.3652
16493SOL    HW152017   2.717   8.111   4.987  0.3889  0.6652  0.5155
16493SOL    HW252018   2.630   8.196   5.077 -0.9613  1.0288 -1.1109
16494SOL     OW52019   1.070   7.911   9.370 -0.0583  0.1628  0.6143
16494SOL    HW152020   1.079   7.818   9.394 -2.1912  0.2084  1.7472
16494SOL    HW252021   1.154   7.950   9.394  0.3675 -1.2165  1.4238
16495SOL     OW52022   4.212   2.329   0.811 -0.0039 -0.3219 -0.4850
16495SOL    HW152023   4.251   2.411   0.842  2.1904 -1.2796 -0.5762
16495SOL    HW252024   4.187   2.347   0.721 -1.3431  0.8107  0.0816
16496SOL     OW52025   1.178   5.680   1.797 -0.9242  0.3645  0.1664
16496SOL    HW152026   1.167   5.614   1.729 -1.2556  0.2235  0.3562
16496SOL    HW252027   1.273   5.695   1.801 -0.8827  0.1735 -0.1346
16497SOL     OW52028   7.763   4.971   1.125 -0.4038 -0.2731 -0.1122
16497SOL    HW152029   7.796   4.895   1.077 -0.3760  0.0423 -0.5948
16497SOL    HW252030   7.808   5.046   1.087 -1.2460  0.1016 -0.3957
16498SOL     OW52031   4.885   5.758   9.466 -0.0514  0.1074  0.3730
16498SOL    HW152032   4.828   5.750   9.543 -0.7674  1.4096 -0.0052
16498SOL    HW252033   4.954   5.694   9.481 -0.6256 -0.2192  1.7210
16499SOL     OW52034   9.197   3.170   4.482  0.2012  0.0360 -0.1557
16499SOL    HW152035   9.217   3.206   4.396  0.0304  1.6768  0.4653
16499SOL    HW252036   9.118   3.216   4.510 -0.7589 -1.7516  0.1379
16500SOL     OW52037   0.903   3.086   3.821 -0.5981  0.1950 -0.3204
16500SOL    HW152038   0.858   3.164   3.854  0.6565  1.1109 -0.7273
16500SOL    HW252039   0.915   3.104   3.728  0.1626 -0.2748 -0.3118
16501SOL     OW52040   8.087   2.162   2.028  0.1654 -0.5108 -0.3579
16501SOL    HW152041   8.154   2.203   1.974 -1.9796  1.5377 -1.5622
16501SOL    HW252042   8.020   2.132   1.966 -0.8285 -0.9880  0.9169
16502SOL     OW52043   3.179   1.441   5.179 -0.0052 -0.0814 -0.1849
16502SOL    HW152044   3.121   1.489   5.239  0.8149 -0.8284  1.2377
16502SOL    HW252045   3.196   1.502   5.108  0.0383  1.2910  0.9865
16503SOL     OW52046   8.609   4.144   9.333  0.0242 -0.0306  0.3324
16503SOL    HW152047   8.632   4.134   9.241  0.7764 -0.6605  0.5793
16503SOL    HW252048   8.577   4.057   9.360  2.2627 -0.5914  1.3203
16504SOL     OW52049   0.052   6.079   5.090  0.1248  0.4243  0.6916
16504SOL    HW152050  -0.023   6.123   5.051  0.0134 -1.2966 -1.1500
16504SOL    HW252051   0.042   5.987   5.064  0.8281 -0.5439  3.6318
16505SOL     OW52052   1.428   1.771   0.846  0.3416  0.0982 -0.1862
16505SOL    HW152053   1.357   1.710   0.829 -0.4735  1.1386 -0.6154
16505SOL    HW252054   1.487   1.760   0.771  0.7342 -0.8860  0.2561
16506SOL     OW52055   6.563   8.299   7.583  0.3354  0.4177 -0.4252
16506SOL    HW152056   6.478   8.274   7.548  0.5089 -0.0640 -0.5088
16506SOL    HW252057   6.543   8.350   7.661 -0.0556  1.3232 -1.1026
16507SOL     OW52058   1.080   0.010   1.651 -0.3126 -0.0992  0.1264
16507SOL    HW152059   1.148  -0.018   1.590 -0.2423 -1.9405  1.0132
16507SOL    HW252060   1.022   0.066   1.599  0.3306 -0.7757 -1.3405
16508SOL     OW52061   2.780   5.600   9.640  0.9089 -0.4842  0.4583
16508SOL    HW152062   2.746   5.618   9.728  1.3684 -1.6101  0.8779
16508SOL    HW252063   2.799   5.686   9.604  0.9422 -0.0199  1.5591
16509SOL     OW52064   6.681   7.979   8.685 -0.2213 -0.6923  0.1599
16509SOL    HW152065   6.682   7.991   8.590 -0.6924 -2.4335 -0.0893
16509SOL    HW252066   6.693   8.067   8.721 -3.0828  0.4159 -1.4764
16510SOL     OW52067   2.269   7.431   2.967  0.2211  0.4183  0.3130
16510SOL    HW152068   2.178   7.399   2.972  0.2532  0.0471 -1.3153
16510SOL    HW252069   2.317   7.376   3.029 -0.4527 -0.1181  0.3607
16511SOL     OW52070   1.830   1.578   2.806  0.0087 -0.2849  0.5200
16511SOL    HW152071   1.862   1.593   2.717 -1.3730  0.2342  0.0892
16511SOL    HW252072   1.770   1.651   2.822 -1.1123 -1.3316  1.1922
16512SOL     OW52073   3.566   5.840   8.569  0.4617  0.0989 -0.5441
16512SOL    HW152074   3.547   5.819   8.661 -0.4381 -1.1206 -0.9997
16512SOL    HW252075   3.576   5.936   8.569 -2.1379  0.4064  0.3747
16513SOL     OW52076   3.653   0.648   4.000  0.1399  0.0745  0.7117
16513SOL    HW152077   3.568   0.634   4.042 -0.5296 -1.0370 -0.9319
16513SOL    HW252078   3.634   0.643   3.907  1.8472  0.9297  0.3050
16514SOL     OW52079   7.341   6.527   1.198  0.2581  0.2335 -0.0654
16514SOL    HW152080   7.319   6.550   1.289  0.2559  0.4372 -0.1168
16514SOL    HW252081   7.274   6.571   1.146  0.8185  0.9150 -0.2281
16515SOL     OW52082   7.256   6.586   0.249 -0.1492  0.1188  0.2330
16515SOL    HW152083   7.307   6.667   0.250 -0.0310  0.0451  1.8449
16515SOL    HW252084   7.192   6.597   0.319 -0.7491 -0.7949 -0.1652
16516SOL     OW52085   1.898   6.581   8.451  0.7061 -0.2542  0.6213
16516SOL    HW152086   1.941   6.500   8.422  0.2818 -0.4230  0.4678
16516SOL    HW252087   1.929   6.593   8.541  0.7251 -0.6168  0.6660
16517SOL     OW52088   7.737   8.775   4.241 -0.0503 -0.4549 -0.7297
16517SOL    HW152089   7.832   8.770   4.233  0.0806  0.8848 -0.0063
16517SOL    HW252090   7.715   8.865   4.218 -0.9644 -0.2373  0.9412
16518SOL     OW52091   6.968   0.378   5.344 -0.1143 -0.5107 -0.2133
16518SOL    HW152092   6.968   0.358   5.438  0.0147  1.0481  0.1319
16518SOL    HW252093   7.051   0.342   5.312  0.3326 -0.1099  0.4837
16519SOL     OW52094   7.468   8.407   0.654 -0.3817  0.4036 -0.0218
16519SOL    HW152095   7.394   8.399   0.594  0.1102 -2.3143 -0.3136
16519SOL    HW252096   7.511   8.489   0.629 -1.9549  0.8394 -1.3371
16520SOL     OW52097   4.753   7.164   7.730  0.0967 -0.6194 -0.4054
16520SOL    HW152098   4.716   7.244   7.694  1.6012  1.6668  2.9144
16520SOL    HW252099   4.847   7.180   7.731  0.3840 -2.2909  0.6351
16521SOL     OW52100   9.717   4.820   1.256 -0.2082 -0.1393  0.2125
16521SOL    HW152101   9.637   4.811   1.204 -0.6507 -1.4773  1.1171
16521SOL    HW252102   9.731   4.733   1.294  2.5703 -0.4122 -1.2433
16522SOL     OW52103   5.116   2.784   3.973 -0.2986  0.0624 -0.4504
16522SOL    HW152104   5.210   2.773   3.965 -0.2420  0.8234 -0.9048
16522SOL    HW252105   5.103   2.879   3.968 -1.0846 -0.0406 -0.3964
16523SOL     OW52106   0.074   4.306   1.461  0.2971 -0.4236  0.1310
16523SOL    HW152107   0.157   4.293   1.415  1.8364 -0.6620  2.9027
16523SOL    HW252108   0.061   4.401   1.460 -0.1706 -0.4876 -1.5679
16524SOL     OW52109   5.372   9.905   9.071 -0.3409  0.5621 -0.0274
16524SOL    HW152110   5.361   9.847   8.996 -0.9866 -0.6596  0.9958
16524SOL    HW252111   5.345   9.853   9.146 -0.1171  1.9123  1.0145
16525SOL     OW52112   0.482   4.207   5.308 -0.4474 -0.3117  0.2712
16525SOL    HW152113   0.419   4.147   5.345 -0.6892  0.7679  1.6386
16525SOL    HW252114   0.555   4.152   5.280 -0.9435 -1.2986  0.9241
16526SOL     OW52115   8.329   1.864   6.747 -0.1016  0.0265 -0.2641
16526SOL    HW152116   8.291   1.790   6.700  1.0511 -0.6366 -0.1730
16526SOL    HW252117   8.333   1.935   6.682  3.7254 -1.5927 -1.9350
16527SOL     OW52118   1.470   7.972   3.997  0.0938  0.3752 -0.2366
16527SOL    HW152119   1.475   7.878   4.016  0.2029  0.4108 -0.0846
16527SOL    HW252120   1.377   7.988   3.982 -0.5178  0.9589  3.5420
16528SOL     OW52121   5.468   7.328   8.047  0.1795 -0.4752  0.6763
16528SOL    HW152122   5.389   7.340   8.099  0.5488  0.8506  0.9481
16528SOL    HW252123   5.512   7.252   8.086 -0.0243 -0.0766  1.6799
16529SOL     OW52124   3.288   6.286   5.257 -0.3606 -0.5515 -0.5120
16529SOL    HW152125   3.261   6.304   5.167  1.6942  1.5193 -0.7521
16529SOL    HW252126   3.282   6.370   5.302 -0.1532 -1.3128  0.9739
16530SOL     OW52127   6.835   6.463   0.245 -0.6739 -0.2061  0.4152
16530SOL    HW152128   6.812   6.373   0.271  1.2055 -0.6255  0.6463
16530SOL    HW252129   6.890   6.452   0.167  0.7618  0.6920  1.3018
16531SOL     OW52130   9.481   0.377   5.182  0.4375 -0.7654 -0.2617
16531SOL    HW152131   9.547   0.420   5.236  2.2691 -2.6831 -0.8950
16531SOL    HW252132   9.404   0.434   5.187  2.2105  1.6221  0.2953
16532SOL     OW52133   4.253   7.607   5.957  0.1273 -0.8243  0.2166
16532SOL    HW152134   4.216   7.536   6.009 -3.9316 -0.6453 -2.1735
16532SOL    HW252135   4.273   7.566   5.872  0.3855  0.2815 -0.2626
16533SOL     OW52136   5.469   3.473   9.424  0.0931  0.0449  0.2011
16533SOL    HW152137   5.521   3.552   9.441 -0.7300  1.0110 -1.6227
16533SOL    HW252138   5.404   3.473   9.494  0.5522  0.5932  0.6387
16534SOL     OW52139   6.274   1.894   7.476  0.1573 -0.0318 -0.1788
16534SOL    HW152140   6.341   1.911   7.410 -1.1874  1.1483 -1.2841
16534SOL    HW252141   6.233   1.979   7.491  0.7517 -0.1974  2.5543
16535SOL     OW52142   1.150   5.848   4.179  0.3343 -0.2471 -0.2756
16535SOL    HW152143   1.214   5.915   4.205 -1.8648  1.6673  0.4039
16535SOL    HW252144   1.116   5.878   4.095 -1.2259 -0.0636  0.3960
16536SOL     OW52145   3.414   9.849   2.552 -0.0820  0.1744  0.2749
16536SOL    HW152146   3.491   9.793   2.564 -1.0587 -1.0894  0.7809
16536SOL    HW252147   3.352   9.819   2.619 -1.7875 -0.2063 -1.4289
16537SOL     OW52148   4.514   2.941   5.612 -0.5653 -0.2452  0.0294
16537SOL    HW152149   4.501   2.948   5.517  1.0236 -0.6021 -0.2335
16537SOL    HW252150   4.436   2.981   5.650 -1.2447 -0.1494 -1.4309
16538SOL     OW52151   2.461   2.041   2.241 -0.1520 -0.3181  0.7556
16538SOL    HW152152   2.530   2.034   2.175  1.4120  0.3100  2.3002
16538SOL    HW252153   2.411   1.960   2.232  1.5005 -1.3163  0.4089
16539SOL     OW52154   6.361   8.217   1.504  0.0241  0.2670  0.6829
16539SOL    HW152155   6.268   8.194   1.504  0.4337 -1.6850 -2.1555
16539SOL    HW252156   6.388   8.209   1.595 -1.7783 -2.7256  1.0109
16540SOL     OW52157   7.681   5.762   1.818  0.5225 -0.8006  0.0233
16540SOL    HW152158   7.771   5.791   1.800  0.7911 -0.8071  1.2686
16540SOL    HW252159   7.656   5.812   1.896 -0.6035 -0.7128 -0.3879
16541SOL     OW52160   2.377   8.620   5.626 -0.4704 -0.3906  0.4595
16541SOL    HW152161   2.382   8.526   5.606  1.0056 -0.1659 -0.3273
16541SOL    HW252162   2.412   8.662   5.547  1.8177  0.6970  2.0192
16542SOL     OW52163   8.015  10.200   9.948 -0.0497 -0.2615  0.0650
16542SOL    HW152164   8.052  10.112   9.952 -0.3105 -0.5128 -2.4420
16542SOL    HW252165   8.092  10.258   9.944  0.1465 -0.6616 -2.9713
16543SOL     OW52166   4.097   7.634   4.025  0.1709 -0.9045 -0.2837
16543SOL    HW152167   4.012   7.612   4.065 -0.0740 -0.5924 -0.6271
16543SOL    HW252168   4.144   7.551   4.022  0.2515 -0.8998  0.7944
16544SOL     OW52169  10.153   4.849   3.712  0.2999  0.0746 -0.1597
16544SOL    HW152170  10.185   4.901   3.785  1.2961  0.9953 -1.2243
16544SOL    HW252171  10.226   4.793   3.687  0.7463  1.3401 -1.8375
16545SOL     OW52172   6.389   2.422   1.343 -0.6623  0.8187 -0.8475
16545SOL    HW152173   6.389   2.368   1.263 -0.5468 -0.3064 -0.1058
16545SOL    HW252174   6.313   2.390   1.393 -0.0800  0.7486 -0.0027
16546SOL     OW52175   9.157   0.275   7.348 -0.6006 -0.0986 -0.4638
16546SOL    HW152176   9.157   0.299   7.256 -0.9927 -1.3206 -0.7978
16546SOL    HW252177   9.119   0.187   7.350  0.3955 -0.5258  0.7482
16547SOL     OW52178   4.271   9.469   5.509 -0.3963  0.6741  0.0169
16547SOL    HW152179   4.342   9.516   5.465 -0.1931 -1.2350 -1.7156
16547SOL    HW252180   4.314   9.426   5.583  0.4180 -0.9882 -1.3819
16548SOL     OW52181   1.292   5.914   1.925 -0.2032 -0.1560 -0.2655
16548SOL    HW152182   1.273   5.905   2.019 -0.8096 -0.1379 -0.3897
16548SOL    HW252183   1.218   5.872   1.881 -0.1398  0.2331 -0.7473
16549SOL     OW52184   1.316   3.747   1.836  0.0649  0.7555  0.6098
16549SOL    HW152185   1.353   3.732   1.749 -0.4144  2.5625  0.0715
16549SOL    HW252186   1.222   3.741   1.823  0.0355 -0.4655  1.3150
16550SOL     OW52187   9.327   0.080   8.866  0.3896 -0.0253 -0.0556
16550SOL    HW152188   9.358   0.021   8.935  0.1642 -1.8650 -1.4841
16550SOL    HW252189   9.407   0.105   8.819  0.5204  1.0789  0.7393
16551SOL     OW52190   6.325   0.235   1.218  0.2001  0.4249 -0.1202
16551SOL    HW152191   6.401   0.248   1.275  0.3256  0.4354 -0.2885
16551SOL    HW252192   6.250   0.257   1.273  0.3942  1.6661 -0.3259
16552SOL     OW52193   0.459   9.332   4.841 -0.0382 -0.1467  0.2630
16552SOL    HW152194   0.513   9.405   4.809 -0.4305  0.3525  0.7393
16552SOL    HW252195   0.416   9.366   4.919 -0.0190 -0.9814  0.6411
16553SOL     OW52196   1.700   6.106   1.625 -0.1865 -0.2702  0.0810
16553SOL    HW152197   1.621   6.123   1.573  0.4304 -0.5322 -0.9621
16553SOL    HW252198   1.696   6.169   1.697 -0.7839  0.4603 -0.5844
16554SOL     OW52199   8.606   1.313   8.338 -0.2975 -0.0491  0.3628
16554SOL    HW152200   8.637   1.318   8.248  0.2665 -2.1528  0.4072
16554SOL    HW252201   8.686   1.302   8.390 -0.7735 -1.1178  0.8855
16555SOL     OW52202   6.625   2.183   3.135 -0.0021 -0.2903  0.0873
16555SOL    HW152203   6.683   2.218   3.068 -0.4577  0.0987 -0.1105
16555SOL    HW252204   6.663   2.212   3.218  0.3557 -0.4575 -0.0160
16556SOL     OW52205   3.703   8.872   7.487  0.2499 -0.3314 -0.2407
16556SOL    HW152206   3.678   8.964   7.476  0.5569 -0.4111 -1.7020
16556SOL    HW252207   3.732   8.866   7.578  0.7895  1.1562 -0.2934
16557SOL     OW52208   0.544   8.554   4.946 -0.3511 -0.2597 -0.2025
16557SOL    HW152209   0.622   8.498   4.955 -0.1349  0.1603  0.5657
16557SOL    HW252210   0.578   8.643   4.946 -0.8159 -0.0820 -0.1408
16558SOL     OW52211   2.979   4.196   7.448  0.2201  0.5955 -0.8731
16558SOL    HW152212   2.942   4.283   7.462  1.1714  0.9684 -0.6322
16558SOL    HW252213   2.953   4.173   7.358 -0.7478  0.7589 -0.6428
16559SOL     OW52214   7.825   8.479   9.886  0.0470 -0.1102 -0.1124
16559SOL    HW152215   7.910   8.481   9.929 -0.0535  0.3442  0.0667
16559SOL    HW252216   7.833   8.411   9.819  1.2962  1.4599 -1.6169
16560SOL     OW52217   7.683   8.609   1.896 -0.8117 -0.1063  0.1486
16560SOL    HW152218   7.598   8.596   1.938 -1.6228 -0.8775 -1.6951
16560SOL    HW252219   7.743   8.558   1.950 -1.3879  0.8731  1.7833
16561SOL     OW52220   0.744   3.864   5.800 -0.3535 -0.0013 -0.0193
16561SOL    HW152221   0.667   3.859   5.743 -1.0455  0.9416  0.8160
16561SOL    HW252222   0.718   3.816   5.878  0.0460  0.0119  0.1188
16562SOL     OW52223   7.721   8.900   3.788 -0.0039 -0.2431 -0.0741
16562SOL    HW152224   7.696   8.967   3.725 -1.6426  0.0789  0.9000
16562SOL    HW252225   7.782   8.944   3.847  0.3084 -0.1226 -0.4792
16563SOL     OW52226   2.553   8.176   1.721  0.1751 -0.4480 -0.2810
16563SOL    HW152227   2.571   8.190   1.628  0.5169 -1.8781 -0.4341
16563SOL    HW252228   2.516   8.088   1.725 -0.8944  0.0466  0.8024
16564SOL     OW52229  10.082   2.646   1.843  0.0146  0.1228 -0.1713
16564SOL    HW152230  10.112   2.695   1.767  0.5667 -0.7465 -0.5262
16564SOL    HW252231  10.000   2.688   1.868 -0.1468  0.4442 -1.2125
16565SOL     OW52232   8.613   6.081   4.542  0.0752  0.0879  0.2130
16565SOL    HW152233   8.652   6.168   4.552  1.0990 -0.2998 -0.3254
16565SOL    HW252234   8.534   6.096   4.490  0.3674  0.6629 -0.0625
16566SOL     OW52235   6.757   5.359   7.496  0.5353 -0.1475 -0.2915
16566SOL    HW152236   6.767   5.388   7.406 -2.0899  0.0576 -0.5516
16566SOL    HW252237   6.672   5.316   7.498  1.0257 -1.0928  1.8554
16567SOL     OW52238   2.875   9.103   2.687 -0.6404  0.1824  0.0153
16567SOL    HW152239   2.884   9.009   2.696 -0.8351  0.1622 -0.0031
16567SOL    HW252240   2.925   9.125   2.608  2.0890  0.5239  1.7550
16568SOL     OW52241   3.181   7.941   1.968  0.6661  0.3572 -0.2950
16568SOL    HW152242   3.256   7.962   2.023 -0.8184 -0.2054  1.9983
16568SOL    HW252243   3.139   8.025   1.950 -1.0064  0.2152  2.6612
16569SOL     OW52244   6.830  10.024   4.720  0.0141  0.6893  1.0634
16569SOL    HW152245   6.773  10.027   4.643  0.0087  0.0977  1.0438
16569SOL    HW252246   6.786  10.080   4.784 -0.3853  0.5633  0.9029
16570SOL     OW52247   2.244   0.507   1.871  0.4631  0.2477 -0.0599
16570SOL    HW152248   2.321   0.479   1.821  0.9550  1.2892  0.0925
16570SOL    HW252249   2.264   0.482   1.961 -0.6503 -2.1059 -0.4176
16571SOL     OW52250   2.921   3.770   2.984 -0.5584  0.2468  0.8666
16571SOL    HW152251   2.946   3.856   2.952  0.6104  0.1397  1.4647
16571SOL    HW252252   2.940   3.710   2.911 -0.3328  0.3508  0.8403
16572SOL     OW52253   2.094   1.853   0.792  0.1328  0.0379  0.0712
16572SOL    HW152254   2.111   1.845   0.885  0.1705 -0.8371 -0.0124
16572SOL    HW252255   2.135   1.776   0.752  0.2054  0.4529 -0.6766
16573SOL     OW52256   4.452   3.002   7.085 -0.5008 -0.5307 -0.1113
16573SOL    HW152257   4.496   2.923   7.117 -2.6466 -1.9493 -0.5250
16573SOL    HW252258   4.470   3.069   7.151 -0.3655 -1.9354  1.3009
16574SOL     OW52259   8.660   9.697   5.855  0.0355  0.4152  0.4744
16574SOL    HW152260   8.689   9.710   5.945  1.6573  1.3670 -0.1832
16574SOL    HW252261   8.685   9.777   5.809 -0.1847 -0.3333 -0.9752
16575SOL     OW52262   9.944   7.351   4.087  0.5250  0.5512  0.3627
16575SOL    HW152263  10.033   7.386   4.083  0.0022  1.8122 -0.6238
16575SOL    HW252264   9.905   7.375   4.003 -0.6836 -0.1622  0.7130
16576SOL     OW52265   9.401   1.211   9.556  0.2704  0.6090 -0.4497
16576SOL    HW152266   9.325   1.184   9.608 -0.1826  1.2609 -0.7710
16576SOL    HW252267   9.473   1.215   9.619  0.5266 -2.0843 -0.5290
16577SOL     OW52268   5.953   3.356   6.409  0.0657  0.1285 -0.1116
16577SOL    HW152269   6.011   3.330   6.481  0.1490  1.3253  0.2790
16577SOL    HW252270   5.922   3.274   6.372  1.8160 -0.5339 -0.1669
16578SOL     OW52271   4.061   4.777   7.666 -0.0517 -0.0716 -0.0572
16578SOL    HW152272   4.098   4.711   7.726  0.8480 -0.1975 -0.7382
16578SOL    HW252273   4.131   4.793   7.603 -1.2414 -0.4395 -1.4790
16579SOL     OW52274   7.850   0.787   5.491  0.1254 -0.4443  0.0693
16579SOL    HW152275   7.819   0.837   5.416  1.7796  1.0726  0.3715
16579SOL    HW252276   7.770   0.760   5.536 -0.8498 -0.4547 -1.6332
16580SOL     OW52277   6.624   2.598   9.662  0.1750 -0.1940 -0.1580
16580SOL    HW152278   6.552   2.547   9.699  0.3421  1.1000  2.0455
16580SOL    HW252279   6.588   2.686   9.651  1.3388  0.4045  0.7350
16581SOL     OW52280   9.046   7.701   6.949 -0.1924  0.4337  0.0089
16581SOL    HW152281   8.955   7.712   6.920 -0.0186 -0.1610 -0.7786
16581SOL    HW252282   9.039   7.679   7.042 -0.8319  0.9393  0.0808
16582SOL     OW52283   5.243   6.011   3.428 -0.0810  0.0304 -0.1383
16582SOL    HW152284   5.287   5.963   3.357 -0.1618 -1.0124  0.5086
16582SOL    HW252285   5.230   5.945   3.497  1.8734  1.4995  1.6948
16583SOL     OW52286   3.657   6.392   5.986 -0.3099 -0.5892  0.9677
16583SOL    HW152287   3.745   6.389   5.946 -0.4245 -0.2872  0.6833
16583SOL    HW252288   3.614   6.313   5.955 -0.5205 -0.1799  0.1871
16584SOL     OW52289   8.353   4.847   3.867 -0.0411  0.8955  0.0001
16584SOL    HW152290   8.413   4.805   3.806 -1.4086 -0.1715 -0.6522
16584SOL    HW252291   8.338   4.782   3.935 -2.3076  0.1932 -1.1072
16585SOL     OW52292   0.113   3.039   7.622 -0.1435  0.2016 -0.1485
16585SOL    HW152293   0.129   2.990   7.541 -1.1125  2.0235 -1.4813
16585SOL    HW252294   0.198   3.044   7.664  0.5037 -0.2350 -1.3789
16586SOL     OW52295   2.376   6.444   2.825  0.6848 -0.2036 -0.1184
16586SOL    HW152296   2.425   6.508   2.772  1.8711 -1.7332 -0.9420
16586SOL    HW252297   2.431   6.365   2.823 -0.9398 -1.3785  0.5219
16587SOL     OW52298   4.890   2.661   9.357  0.0024 -0.7199 -0.7786
16587SOL    HW152299   4.911   2.583   9.408  0.1108 -1.2420 -1.6021
16587SOL    HW252300   4.812   2.697   9.399  1.2748  0.0108  0.9907
16588SOL     OW52301   5.312   8.033   1.103 -0.4164 -0.0897  0.3236
16588SOL    HW152302   5.224   8.060   1.076 -0.1510 -1.7445 -2.4180
16588SOL    HW252303   5.320   7.942   1.072  2.0004 -0.2066  1.1675
16589SOL     OW52304   1.893   4.461   5.751  0.8270 -0.4371 -0.3234
16589SOL    HW152305   1.826   4.470   5.683 -0.2559 -2.3270  0.4542
16589SOL    HW252306   1.953   4.394   5.717  1.9460  0.7318 -0.6975
16590SOL     OW52307   5.992  10.015   5.968 -0.2547 -0.2054  0.0599
16590SOL    HW152308   5.988  10.071   6.045  0.8426 -2.3421  1.7225
16590SOL    HW252309   5.908   9.969   5.966  0.4358 -1.5501  1.1050
16591SOL     OW52310   7.404   5.316   9.957 -0.0125 -0.1425 -0.0275
16591SOL    HW152311   7.480   5.345   9.905 -0.3800  3.0786  1.1114
16591SOL    HW252312   7.348   5.272   9.893  1.4037  0.1281 -1.5224
16592SOL     OW52313   4.127   7.172   3.242 -0.0852 -0.0722 -0.9646
16592SOL    HW152314   4.141   7.080   3.219 -0.2048  0.1989 -2.1535
16592SOL    HW252315   4.180   7.221   3.180  0.5254  0.6475  0.1170
16593SOL     OW52316   5.789   6.720   9.824 -0.4385  0.2135  0.9507
16593SOL    HW152317   5.821   6.808   9.803 -1.7402  0.4142 -0.2078
16593SOL    HW252318   5.781   6.677   9.739 -1.9317 -0.2926  1.3479
16594SOL     OW52319   8.168   5.315   8.945  0.1192 -0.2007  0.2260
16594SOL    HW152320   8.204   5.403   8.960 -1.0401  0.3485 -0.1855
16594SOL    HW252321   8.098   5.307   9.010 -0.2992 -0.5121 -0.2649
16595SOL     OW52322   4.346   1.502   5.046  0.2060  0.0766  0.2756
16595SOL    HW152323   4.423   1.464   5.089 -0.1048 -0.1281  0.6514
16595SOL    HW252324   4.367   1.500   4.953  1.7441  2.3539  0.5071
16596SOL     OW52325   6.112   6.825   3.907 -0.4126 -0.0904  0.2037
16596SOL    HW152326   6.108   6.832   3.812 -1.6097 -0.9489  0.1751
16596SOL    HW252327   6.121   6.915   3.937 -0.1638  0.2002 -0.7172
16597SOL     OW52328   3.118   1.481   0.196  0.2714  0.5981 -0.1844
16597SOL    HW152329   3.090   1.407   0.144  0.8658 -0.1382  0.5277
16597SOL    HW252330   3.183   1.526   0.142  1.2594 -0.4502  0.1052
16598SOL     OW52331   2.544   2.765  10.160 -0.5223 -0.3277  0.5046
16598SOL    HW152332   2.491   2.696  10.120 -0.2520 -0.8398  1.0276
16598SOL    HW252333   2.480   2.831  10.188 -0.5809  0.8854 -2.3793
16599SOL     OW52334   4.767   6.940   6.480  0.1946 -0.2529  0.5354
16599SOL    HW152335   4.740   6.857   6.519  0.0986 -0.8500 -0.7950
16599SOL    HW252336   4.726   7.006   6.536 -1.5768 -1.1118  0.2933
16600SOL     OW52337   4.871   0.978   3.444  0.0027  0.6678  0.7286
16600SOL    HW152338   4.855   1.020   3.360  0.3805 -0.6788 -0.0297
16600SOL    HW252339   4.816   0.900   3.443  0.2856  0.4500  1.5844
16601SOL     OW52340   4.732   0.825   9.945 -0.3674  0.0104 -0.0116
16601SOL    HW152341   4.721   0.815  10.040 -1.0709 -0.0483 -0.0972
16601SOL    HW252342   4.795   0.757   9.921  1.8755  1.7332  0.8121
16602SOL     OW52343   6.288   5.635   1.414 -0.1847 -0.0045 -0.2788
16602SOL    HW152344   6.306   5.708   1.473  2.5171 -1.5975  0.9706
16602SOL    HW252345   6.269   5.561   1.472 -1.1857 -0.7057 -1.4870
16603SOL     OW52346   2.653   2.693   5.083 -0.5246  0.4632 -0.3022
16603SOL    HW152347   2.696   2.662   5.163 -0.2481  3.7577  0.8704
16603SOL    HW252348   2.569   2.648   5.083 -0.5511  0.4294  1.8840
16604SOL     OW52349   0.256   2.064   8.705  0.3790  0.5060 -0.3119
16604SOL    HW152350   0.320   2.116   8.753 -1.1764  0.1393  2.2422
16604SOL    HW252351   0.189   2.126   8.678 -0.7806  0.0703  1.5302
16605SOL     OW52352   8.136   5.589   5.176 -0.0047 -0.0711 -0.3451
16605SOL    HW152353   8.114   5.513   5.231 -0.8341  0.7943  0.5449
16605SOL    HW252354   8.096   5.570   5.091  0.4320 -0.9635 -0.3551
16606SOL     OW52355   4.405  10.165   4.840 -0.3001  0.0873  0.1921
16606SOL    HW152356   4.387  10.248   4.885 -0.4327  0.6612 -0.9090
16606SOL    HW252357   4.326  10.147   4.789 -0.1161 -0.5081  0.1137
16607SOL     OW52358   9.615   1.948   4.941  0.3861 -0.3385 -0.2874
16607SOL    HW152359   9.592   2.014   5.006  0.0812 -0.8642  0.1422
16607SOL    HW252360   9.535   1.897   4.929  0.9531 -1.3607  0.2497
16608SOL     OW52361   5.692   0.300   8.372  0.3639  0.1957  0.5599
16608SOL    HW152362   5.755   0.232   8.349 -0.8725 -0.0480 -2.3697
16608SOL    HW252363   5.725   0.379   8.330 -0.1285  0.5695  0.8652
16609SOL     OW52364   5.379   6.206   8.542  0.0936 -0.2363 -0.5375
16609SOL    HW152365   5.468   6.204   8.577 -0.3196 -0.5196  0.5130
16609SOL    HW252366   5.386   6.258   8.462  1.5939 -2.0463 -1.6022
16610SOL     OW52367   1.445   2.285   2.873  0.5387  0.5223  0.1696
16610SOL    HW152368   1.452   2.190   2.875  1.2653  0.5588 -0.3502
16610SOL    HW252369   1.357   2.303   2.841  1.6898  0.0353 -3.4278
16611SOL     OW52370   5.697   9.162   1.947  0.0250  0.1005  0.4473
16611SOL    HW152371   5.755   9.160   1.870  2.1076 -1.4930  1.9870
16611SOL    HW252372   5.667   9.072   1.956 -0.9070  0.4674  0.9964
16612SOL     OW52373   1.715   2.744   3.712  0.1778  0.5062  0.1867
16612SOL    HW152374   1.682   2.764   3.800  0.7219  0.9464  0.2897
16612SOL    HW252375   1.695   2.822   3.660 -2.5164 -0.7523 -0.7552
16613SOL     OW52376   7.728   3.332   0.388  0.4038 -0.3374  0.4569
16613SOL    HW152377   7.666   3.271   0.350  0.8287 -0.4556 -0.0511
16613SOL    HW252378   7.777   3.281   0.452  1.8041 -0.9290 -1.0538
16614SOL     OW52379   6.839   2.863   2.682 -0.5950  0.2877 -0.5314
16614SOL    HW152380   6.824   2.953   2.711 -1.4392 -0.3360  1.0313
16614SOL    HW252381   6.752   2.822   2.686 -0.5433 -0.1338 -2.9251
16615SOL     OW52382   2.576   0.097   3.834  0.2220 -0.2490 -0.1114
16615SOL    HW152383   2.526   0.056   3.904  0.3695 -1.0282 -0.4629
16615SOL    HW252384   2.576   0.190   3.856 -0.1791 -0.4266  0.6399
16616SOL     OW52385   8.971   6.351   3.799 -0.0970  0.4501 -0.4550
16616SOL    HW152386   8.975   6.377   3.707  0.4273 -0.7026 -0.7588
16616SOL    HW252387   8.884   6.313   3.809  0.8038 -1.8413 -1.1298
16617SOL     OW52388   9.781   1.667   0.623  0.1814  0.7827 -0.1367
16617SOL    HW152389   9.793   1.705   0.710  0.6447 -2.1614  1.1303
16617SOL    HW252390   9.829   1.584   0.626 -0.5578  0.2110 -2.9053
16618SOL     OW52391   2.850   5.704   9.982  0.0603 -0.2808 -0.6325
16618SOL    HW152392   2.814   5.616   9.978  0.6143 -0.5825  0.6365
16618SOL    HW252393   2.781   5.758  10.020  0.6642 -0.7171  1.1289
16619SOL     OW52394   3.169   2.714   4.232  0.1435 -0.1338 -0.1004
16619SOL    HW152395   3.156   2.620   4.227  0.8096 -0.1964 -0.8521
16619SOL    HW252396   3.163   2.744   4.141 -2.2848  0.8721  0.3525
16620SOL     OW52397   1.891   5.200   8.928 -0.3276 -0.5837  0.0486
16620SOL    HW152398   1.850   5.171   9.009 -0.5454  0.5582  0.3588
16620SOL    HW252399   1.820   5.199   8.864 -0.3794 -0.5510  0.1051
16621SOL     OW52400   2.029   2.891   0.207 -0.1271 -0.1931 -0.1116
16621SOL    HW152401   2.119   2.904   0.236 -0.2158  1.3174 -0.4735
16621SOL    HW252402   2.036   2.832   0.131  0.7508  1.4885 -1.3686
16622SOL     OW52403   5.780   5.690   5.993  0.0878  0.3371  0.1285
16622SOL    HW152404   5.733   5.772   5.982  1.7244  1.4554  1.3196
16622SOL    HW252405   5.819   5.672   5.907 -0.6763  0.5439 -0.2598
16623SOL     OW52406   1.225   1.714   4.672  0.1508 -0.1474  0.1866
16623SOL    HW152407   1.231   1.697   4.578 -1.5636 -1.3522  0.2746
16623SOL    HW252408   1.200   1.630   4.710 -0.4137  0.6356  1.5763
16624SOL     OW52409   3.945   3.908   6.249 -0.2653 -0.6863  0.1762
16624SOL    HW152410   3.936   3.820   6.285  0.3858 -0.6585  0.4213
16624SOL    HW252411   3.878   3.913   6.181 -0.2590 -1.3946  0.1106
16625SOL     OW52412   8.632   5.133   6.937 -0.7467 -0.0774 -0.5539
16625SOL    HW152413   8.555   5.189   6.931 -0.5910  0.2794  0.7709
16625SOL    HW252414   8.615   5.075   7.011  0.6992  0.6951  0.4112
16626SOL     OW52415   3.449   7.972   8.599  0.3696  0.3877 -0.2467
16626SOL    HW152416   3.380   7.980   8.533  1.5218  2.7166 -1.2123
16626SOL    HW252417   3.498   7.894   8.572 -0.7177 -0.1872 -0.6279
16627SOL     OW52418   9.579   2.321   7.537  0.2751  0.0921 -0.3639
16627SOL    HW152419   9.548   2.397   7.585  0.6553  0.3424 -0.5049
16627SOL    HW252420   9.500   2.280   7.502  0.1362  0.9171 -1.0226
16628SOL     OW52421   3.839   7.341   9.999 -0.0720 -0.3747 -0.2641
16628SOL    HW152422   3.935   7.334  10.006 -0.1207 -1.4278 -0.5689
16628SOL    HW252423   3.807   7.305  10.081 -0.1833  0.8438  0.2321
16629SOL     OW52424   5.167   8.577  10.202 -0.5151  0.0736 -0.1708
16629SOL    HW152425   5.076   8.549  10.212 -0.9597  1.5813  0.1139
16629SOL    HW252426   5.163   8.649  10.139  0.3316  0.9576  0.7726
16630SOL     OW52427   9.870   6.089   2.897 -0.0621 -0.4864 -0.3194
16630SOL    HW152428   9.802   6.149   2.867  0.7930  0.6372 -0.0281
16630SOL    HW252429   9.848   6.005   2.856 -1.0301  0.1255 -1.0560
16631SOL     OW52430   4.653   9.462   5.739 -0.6340  0.8183  0.1848
16631SOL    HW152431   4.594   9.387   5.748 -2.0307  1.9835  1.0648
16631SOL    HW252432   4.648   9.485   5.646  1.3795 -1.3895 -0.5211
16632SOL     OW52433   9.472   0.438   0.314  0.0558 -0.0693 -0.1717
16632SOL    HW152434   9.408   0.432   0.385  0.6854 -0.3893  0.3703
16632SOL    HW252435   9.530   0.509   0.340 -0.0023  0.1412 -0.6087
16633SOL     OW52436   4.594   9.176   3.420 -0.0694 -0.5772 -0.3231
16633SOL    HW152437   4.654   9.118   3.466 -0.6079 -0.4535  0.5540
16633SOL    HW252438   4.554   9.120   3.352 -1.1998 -1.4808  1.0432
16634SOL     OW52439   3.355   7.243   9.973  0.3015  0.0297 -0.2320
16634SOL    HW152440   3.276   7.290   9.943  0.5047  0.3629 -0.2463
16634SOL    HW252441   3.326   7.194  10.049 -0.3791 -1.3193 -1.3437
16635SOL     OW52442   1.832   2.346   8.675  0.1228  0.2516  0.3246
16635SOL    HW152443   1.895   2.287   8.634  0.3517  1.3230 -0.8906
16635SOL    HW252444   1.796   2.397   8.603 -1.8072 -0.0058  1.0601
16636SOL     OW52445   0.366   1.575   7.782  0.4618 -0.1560 -0.1542
16636SOL    HW152446   0.414   1.495   7.804 -1.2767 -1.5458 -1.2404
16636SOL    HW252447   0.334   1.560   7.693 -2.9880  0.1522  0.9360
16637SOL     OW52448   0.592   2.109   6.708 -0.6044 -0.1236 -0.3595
16637SOL    HW152449   0.658   2.053   6.749 -0.6018 -0.0581 -0.2728
16637SOL    HW252450   0.553   2.054   6.640  0.6233  0.3594 -1.4616
16638SOL     OW52451   4.096   5.969   2.706 -0.1737 -0.4081  0.6624
16638SOL    HW152452   4.040   5.921   2.643 -2.3643  1.4758  1.1145
16638SOL    HW252453   4.101   6.057   2.671  2.0382 -0.3822  0.9997
16639SOL     OW52454   4.166   9.083   9.167 -0.3404  0.1594 -0.7142
16639SOL    HW152455   4.225   9.010   9.186  2.9416  2.5170 -1.4343
16639SOL    HW252456   4.156   9.129   9.250  0.9880  1.2093 -1.1007
16640SOL     OW52457   0.122   8.190   1.569 -0.3160  0.0213  0.4270
16640SOL    HW152458   0.213   8.180   1.542 -0.2664  0.7557  0.3028
16640SOL    HW252459   0.123   8.176   1.664 -0.4026 -2.0187  0.1468
16641SOL     OW52460   7.922   0.574   1.430 -0.1652 -0.4509  1.0151
16641SOL    HW152461   7.878   0.498   1.466 -2.0097  0.4760  0.7560
16641SOL    HW252462   7.861   0.646   1.442  0.8264  0.6540 -0.3309
16642SOL     OW52463   2.831   3.979   3.216 -0.4442 -0.1040 -1.0525
16642SOL    HW152464   2.807   3.997   3.307 -3.0013 -0.6817 -1.5771
16642SOL    HW252465   2.898   3.911   3.222  0.4723  0.9164  0.4518
16643SOL     OW52466   2.250   7.604   8.647  0.1402  0.1154  0.3814
16643SOL    HW152467   2.248   7.666   8.575  3.3036 -1.7971 -1.4742
16643SOL    HW252468   2.277   7.656   8.723 -0.5201  1.6156 -0.3891
16644SOL     OW52469   3.579   0.289   0.409  0.3103  0.1775 -0.0800
16644SOL    HW152470   3.546   0.314   0.322  0.4078  0.2664 -0.0918
16644SOL    HW252471   3.528   0.211   0.432 -1.0787  1.2711  0.6152
16645SOL     OW52472   7.535   1.885   1.366  0.2367  0.2995  0.2358
16645SOL    HW152473   7.541   1.846   1.453 -1.6593  0.4593  0.4468
16645SOL    HW252474   7.490   1.968   1.380  1.0713  0.9402 -0.7315
16646SOL     OW52475   9.072   6.832   6.451 -0.2609  0.4950  0.2240
16646SOL    HW152476   9.082   6.910   6.396 -0.8487  1.5466  1.5852
16646SOL    HW252477   9.162   6.808   6.475 -0.0721  0.6850 -0.2765
16647SOL     OW52478   5.652   0.273   2.298 -0.0624 -0.0590  0.0442
16647SOL    HW152479   5.714   0.321   2.243 -1.8067  2.6676  0.3817
16647SOL    HW252480   5.644   0.327   2.377 -1.7401 -1.1289  0.6249
16648SOL     OW52481   2.545   2.246   4.515 -0.6815 -0.0562  0.0346
16648SOL    HW152482   2.593   2.323   4.548 -0.0807 -0.5934  0.4366
16648SOL    HW252483   2.488   2.221   4.587 -0.4350 -0.3486  0.1299
16649SOL     OW52484   9.187   8.084   6.453  0.2781  0.2308 -0.0787
16649SOL    HW152485   9.138   8.114   6.530  0.5196  0.7587 -0.1298
16649SOL    HW252486   9.130   8.018   6.413  1.1989 -1.8807  1.9416
16650SOL     OW52487   7.747   1.705   7.829 -0.2526  0.9238 -0.2962
16650SOL    HW152488   7.738   1.793   7.791  0.7995  1.3413  0.3976
16650SOL    HW252489   7.737   1.719   7.923  1.5507  0.5488 -0.0397
16651SOL     OW52490   5.909   1.055   9.191 -0.1377  0.2610  0.1229
16651SOL    HW152491   5.899   1.031   9.099 -1.0698 -0.7135  0.4666
16651SOL    HW252492   5.986   1.007   9.221 -0.2583  0.0157  0.0394
16652SOL     OW52493   3.549   0.081   4.722 -0.5788 -0.5981  0.1880
16652SOL    HW152494   3.472   0.058   4.774  0.0419 -0.0920  1.3521
16652SOL    HW252495   3.526   0.165   4.681  0.1010  0.5654  2.1403
16653SOL     OW52496   8.402   6.414   8.006 -0.4992 -0.4538 -0.4324
16653SOL    HW152497   8.401   6.321   8.030  1.1484  0.1246  2.0876
16653SOL    HW252498   8.331   6.452   8.058 -1.2171 -0.2929 -1.5184
16654SOL     OW52499   2.019   5.823   9.700 -0.3602 -0.1407  0.2703
16654SOL    HW152500   1.959   5.761   9.741 -1.4824 -0.0216 -1.1523
16654SOL    HW252501   1.996   5.821   9.607  1.9184 -0.1652 -0.3284
16655SOL     OW52502   7.935   0.460   1.994 -0.4074  0.3335 -0.6864
16655SOL    HW152503   8.019   0.507   1.994  0.3095 -0.8621 -2.7963
16655SOL    HW252504   7.884   0.502   2.063  1.9652  1.0197  0.7215
16656SOL     OW52505   1.556   2.972   6.911 -0.4779 -0.1382  0.0387
16656SOL    HW152506   1.523   3.031   6.979  0.6154  0.6649 -0.1155
16656SOL    HW252507   1.547   2.884   6.948 -1.1665  0.2000  0.6748
16657SOL     OW52508   4.030   1.502   4.637 -0.3193  0.0454  0.3513
16657SOL    HW152509   4.120   1.529   4.620  0.1824 -0.3391  2.3501
16657SOL    HW252510   4.038   1.426   4.694 -1.9431  0.7058  1.4827
16658SOL     OW52511   2.577   5.221   4.106  0.2678 -0.3803 -0.0978
16658SOL    HW152512   2.554   5.210   4.199 -1.1082  0.0057 -0.3883
16658SOL    HW252513   2.502   5.265   4.068  0.2224 -1.8208 -1.7143
16659SOL     OW52514   6.135   0.938   2.095 -0.2499  0.0539 -0.1594
16659SOL    HW152515   6.117   1.028   2.069 -1.0155  0.1940  0.7912
16659SOL    HW252516   6.222   0.919   2.062 -0.2230  1.0404 -0.6446
16660SOL     OW52517   6.269   1.965   0.337  0.5571 -0.9714  0.2482
16660SOL    HW152518   6.334   2.035   0.324 -0.0223 -0.4086  0.3349
16660SOL    HW252519   6.243   1.939   0.249 -1.3971  0.9828  0.2058
16661SOL     OW52520   3.345   0.276   4.644 -0.4934 -0.5606 -0.1821
16661SOL    HW152521   3.331   0.292   4.737 -0.7371 -0.4599 -0.2342
16661SOL    HW252522   3.335   0.361   4.603 -0.8076 -0.6758 -0.3480
16662SOL     OW52523   6.107   5.080   5.258  0.2108  0.4148  0.0139
16662SOL    HW152524   6.023   5.046   5.288  0.7535 -0.7213  0.3013
16662SOL    HW252525   6.111   5.056   5.165  0.1484  0.6093 -0.0387
16663SOL     OW52526   2.591   2.482   1.389  0.2121 -0.0451  0.1685
16663SOL    HW152527   2.587   2.533   1.469 -0.4848 -1.3408  0.9815
16663SOL    HW252528   2.540   2.403   1.408  0.3207 -0.5254 -1.4291
16664SOL     OW52529  10.116   5.261   8.337 -0.1098  0.3314 -0.2180
16664SOL    HW152530  10.038   5.222   8.376  1.1757 -0.6289  1.4056
16664SOL    HW252531  10.081   5.319   8.269 -2.3128  0.9645  1.3896
16665SOL     OW52532   2.469   0.820   3.167  0.0703  0.2320 -0.2266
16665SOL    HW152533   2.469   0.824   3.263  0.6906  2.2434 -0.2752
16665SOL    HW252534   2.392   0.767   3.145 -2.3042  2.8846  1.3212
16666SOL     OW52535   1.177   1.204   1.013 -0.3144  0.2274 -0.3099
16666SOL    HW152536   1.089   1.186   0.979 -1.1597  0.6125  1.6134
16666SOL    HW252537   1.163   1.233   1.103  1.7615  0.7480 -0.1234
16667SOL     OW52538   8.955   2.323   8.868  0.2929 -1.1666 -0.5582
16667SOL    HW152539   8.938   2.382   8.942  2.7883 -0.8878 -0.1696
16667SOL    HW252540   9.037   2.280   8.890  0.6168 -1.7319 -2.7787
16668SOL     OW52541   9.522   5.071   1.210  0.4439  0.1258  0.0365
16668SOL    HW152542   9.470   5.142   1.248 -0.0106 -0.1651 -0.0364
16668SOL    HW252543   9.487   5.060   1.122  1.5629  0.8696 -0.5134
16669SOL     OW52544   0.996   2.644   9.772  0.4813 -0.3089  0.5514
16669SOL    HW152545   1.065   2.707   9.792 -0.0513  0.1123  1.0830
16669SOL    HW252546   0.989   2.590   9.850  0.1080 -0.2599  0.5520
16670SOL     OW52547   3.771   0.428   0.522  0.7164  0.4512  0.1054
16670SOL    HW152548   3.708   0.384   0.464  0.4834 -0.8951  1.3455
16670SOL    HW252549   3.855   0.419   0.477  0.4533 -0.1031 -0.2905
16671SOL     OW52550   9.568   0.198   2.395 -0.3124  0.4536  0.0925
16671SOL    HW152551   9.553   0.156   2.310  0.2721 -0.9836  0.6817
16671SOL    HW252552   9.609   0.282   2.373 -1.0185  0.5157 -1.0805
16672SOL     OW52553   6.627   0.202   4.801  0.2150 -0.0625 -0.4243
16672SOL    HW152554   6.626   0.177   4.894  0.2877  0.3433 -0.3146
16672SOL    HW252555   6.676   0.284   4.799 -1.5192  0.9914 -0.5572
16673SOL     OW52556   7.432  10.075   3.276  0.2298 -0.0793 -0.4139
16673SOL    HW152557   7.395  10.087   3.363 -0.7473 -0.5888 -0.7599
16673SOL    HW252558   7.505  10.138   3.272  0.3040 -0.0813  0.7757
16674SOL     OW52559  10.102   6.944   4.400  0.2615 -0.0152 -0.2910
16674SOL    HW152560  10.021   6.981   4.365  0.1715 -2.1661 -2.4922
16674SOL    HW252561  10.082   6.851   4.415  1.1810  0.2375  2.8469
16675SOL     OW52562   6.181   5.573   9.517 -0.0147  0.8330  0.1707
16675SOL    HW152563   6.201   5.592   9.609 -0.0645 -0.5914  0.4879
16675SOL    HW252564   6.094   5.533   9.520  0.4786 -0.2995 -0.3647
16676SOL     OW52565   7.868   9.390   9.757 -0.6759  0.0212 -0.2148
16676SOL    HW152566   7.938   9.430   9.809 -1.1374 -0.2337  0.6183
16676SOL    HW252567   7.836   9.461   9.702  0.7920 -0.0633 -1.2142
16677SOL     OW52568   1.591   3.510   6.613  0.3282 -0.2297  0.5208
16677SOL    HW152569   1.512   3.547   6.652  0.8242  0.4883  0.8453
16677SOL    HW252570   1.647   3.585   6.596  1.0962 -0.7746  0.6388
16678SOL     OW52571   4.684   6.313   7.925 -0.0722 -0.3224  0.6472
16678SOL    HW152572   4.647   6.238   7.971  0.6727 -0.9518  0.2288
16678SOL    HW252573   4.769   6.328   7.967  0.3550 -0.5347 -0.1253
16679SOL     OW52574   7.798   2.363   7.629  0.2341  0.2207  0.7432
16679SOL    HW152575   7.780   2.299   7.560 -0.4946 -1.8135  2.7599
16679SOL    HW252576   7.871   2.414   7.596 -1.1098  0.3455 -2.2092
16680SOL     OW52577   2.331   3.601   6.637  0.7535  0.4959 -0.0791
16680SOL    HW152578   2.284   3.679   6.667 -0.0356  0.2261 -0.5797
16680SOL    HW252579   2.334   3.611   6.542  1.2630  0.2533 -0.0876
16681SOL     OW52580   0.313   6.465   7.856 -0.2718 -0.2128 -0.2633
16681SOL    HW152581   0.299   6.484   7.949  2.5330  0.0349  0.1506
16681SOL    HW252582   0.356   6.380   7.856  0.8195  0.3338 -1.2685
16682SOL     OW52583   7.366   8.173   4.834 -0.0840 -0.5573  0.4592
16682SOL    HW152584   7.417   8.151   4.911 -0.6639 -2.2009  0.3801
16682SOL    HW252585   7.408   8.125   4.763  0.1043  0.5019 -0.1633
16683SOL     OW52586   7.173   5.008   6.283  0.2147  0.1635  0.3781
16683SOL    HW152587   7.124   5.090   6.273  0.0223  0.0107  0.0671
16683SOL    HW252588   7.248   5.017   6.224  0.8261  0.5954  1.2083
16684SOL     OW52589   4.051   4.324   3.388  0.0373 -0.5425  0.3072
16684SOL    HW152590   4.124   4.303   3.446 -0.9929 -2.4745  0.9632
16684SOL    HW252591   3.990   4.373   3.442  0.0079 -0.5501  0.2807
16685SOL     OW52592   7.123   3.189   1.667  0.0350  0.4248  0.1918
16685SOL    HW152593   7.199   3.247   1.673 -1.0514  2.1061 -1.3755
16685SOL    HW252594   7.137   3.140   1.586  0.6554 -1.0930  1.2071
16686SOL     OW52595   8.697   8.264   3.981  0.8246 -0.2556  0.1903
16686SOL    HW152596   8.621   8.260   3.923 -0.2901 -0.2726  1.6210
16686SOL    HW252597   8.740   8.346   3.960  0.5141 -0.3267 -0.7480
16687SOL     OW52598   0.248   7.450   5.085  0.1712 -0.3158  0.2119
16687SOL    HW152599   0.319   7.514   5.092  0.7319 -0.6056 -2.3288
16687SOL    HW252600   0.292   7.365   5.094 -0.0575 -0.4471  0.1074
16688SOL     OW52601   0.611   6.012   1.158  0.1062  0.2160  0.0334
16688SOL    HW152602   0.687   5.960   1.185  0.3171  0.5992  0.1760
16688SOL    HW252603   0.637   6.102   1.175 -0.2373  0.3714 -0.2811
16689SOL     OW52604   2.109   2.821   9.637  0.2016 -0.0901 -0.2414
16689SOL    HW152605   2.093   2.883   9.708  2.6916 -0.5984  0.8069
16689SOL    HW252606   2.111   2.875   9.558  2.9750  1.3360  0.7234
16690SOL     OW52607   9.602   8.251   7.401 -0.1107  0.2093  0.6220
16690SOL    HW152608   9.692   8.269   7.428 -0.0934  1.7352 -0.3968
16690SOL    HW252609   9.603   8.266   7.306 -1.6583  1.1811  0.7537
16691SOL     OW52610   5.742   1.706   7.882 -0.2851  0.2543  0.2663
16691SOL    HW152611   5.753   1.772   7.813 -0.5691 -0.1908 -0.2046
16691SOL    HW252612   5.827   1.705   7.927  0.2334 -0.1361 -0.6902
16692SOL     OW52613   1.221   5.460   5.929 -0.0218 -0.6675 -0.1516
16692SOL    HW152614   1.302   5.488   5.886  0.5908  0.6170  1.7268
16692SOL    HW252615   1.165   5.537   5.927 -0.8249 -1.2633 -0.5867
16693SOL     OW52616   5.899   0.688   8.789 -0.1463  0.0771 -0.0974
16693SOL    HW152617   5.901   0.716   8.881  1.6069  1.9703 -0.6767
16693SOL    HW252618   5.816   0.641   8.780 -0.3952 -0.0347  2.4206
16694SOL     OW52619   9.388   8.606   7.027  0.1438  0.0745 -0.6372
16694SOL    HW152620   9.341   8.530   7.061 -0.4486  0.8275  0.2577
16694SOL    HW252621   9.344   8.626   6.944 -2.0745  1.5963  0.8368
16695SOL     OW52622  10.182   1.648   0.682 -0.2485  0.5388  0.3461
16695SOL    HW152623  10.105   1.592   0.695  0.1006 -0.3907 -1.4551
16695SOL    HW252624  10.151   1.718   0.625 -0.0837  0.8613  0.6544
16696SOL     OW52625   3.002   3.008   3.066 -0.1258  0.3235  0.1074
16696SOL    HW152626   3.063   2.971   3.130  1.4626 -1.0366 -2.1071
16696SOL    HW252627   3.032   3.098   3.054 -2.1925  1.5369  3.3145
16697SOL     OW52628   5.185   1.654  10.121 -0.2927  0.0759  0.1495
16697SOL    HW152629   5.205   1.563  10.100 -1.0053 -0.4495  1.6818
16697SOL    HW252630   5.178   1.697  10.036 -2.3320 -1.8067 -0.6896
16698SOL     OW52631   5.289   4.838   3.339 -0.1793  0.7401 -0.0645
16698SOL    HW152632   5.235   4.760   3.331  1.4538 -0.5181  0.8364
16698SOL    HW252633   5.379   4.806   3.334  0.5100  2.6228 -0.2247
16699SOL     OW52634   2.588   8.779   8.176  0.7712  0.0163 -0.0363
16699SOL    HW152635   2.538   8.829   8.240  0.5720  0.2072 -0.3368
16699SOL    HW252636   2.658   8.738   8.226 -1.9444 -3.4522  1.1103
16700SOL     OW52637   7.076   5.107   9.670  0.0053  0.3045  0.1109
16700SOL    HW152638   7.016   5.179   9.688  1.4202  1.4527  0.2958
16700SOL    HW252639   7.044   5.035   9.725 -1.1367  0.9285  0.2704
16701SOL     OW52640   9.211   8.466   3.981 -0.7224 -0.3545  0.3866
16701SOL    HW152641   9.294   8.473   3.934 -0.6781 -0.5285  0.4386
16701SOL    HW252642   9.213   8.537   4.045 -1.4543  0.8559 -0.9052
16702SOL     OW52643  10.037   3.823   3.137 -0.1812 -0.1306  0.0634
16702SOL    HW152644  10.021   3.906   3.182 -1.0476  0.5379 -1.4330
16702SOL    HW252645  10.110   3.784   3.185 -1.1583  0.4859  2.1140
16703SOL     OW52646   2.289   4.769   5.998  0.2639 -0.3564  0.0964
16703SOL    HW152647   2.249   4.852   5.973  1.3803 -0.2095 -1.2602
16703SOL    HW252648   2.259   4.707   5.931 -1.9097 -1.4414  2.0361
16704SOL     OW52649   0.757   9.665   6.085 -0.1144  1.1432  0.2722
16704SOL    HW152650   0.721   9.623   6.163  1.3840 -2.0593 -0.6884
16704SOL    HW252651   0.700   9.636   6.014  1.6284 -0.3131 -0.5782
16705SOL     OW52652   8.731   8.445   6.792 -0.0203  0.2346 -0.2168
16705SOL    HW152653   8.789   8.495   6.850  0.7432 -1.3131  0.3858
16705SOL    HW252654   8.653   8.430   6.845  0.0864  0.0880 -0.0973
16706SOL     OW52655   7.730   7.556   2.829 -0.4882 -0.1244 -0.2586
16706SOL    HW152656   7.750   7.643   2.794 -0.3372 -0.3602 -0.7671
16706SOL    HW252657   7.634   7.550   2.826 -0.5381  0.2514  0.3443
16707SOL     OW52658   1.131   4.374   2.482  0.0484  0.4744 -0.3628
16707SOL    HW152659   1.087   4.377   2.397 -1.4087 -0.0037  0.3635
16707SOL    HW252660   1.151   4.466   2.501 -1.2263  0.7659 -0.3976
16708SOL     OW52661   8.115   1.834   2.367  0.3670 -0.1232 -0.2135
16708SOL    HW152662   8.180   1.789   2.313  0.4321 -1.3349  0.8399
16708SOL    HW252663   8.107   1.921   2.328  1.6735 -0.3985 -1.1293
16709SOL     OW52664   7.322   2.486   0.493 -0.0133  0.2477 -0.1111
16709SOL    HW152665   7.269   2.561   0.522 -1.7990 -1.3459  0.8302
16709SOL    HW252666   7.346   2.441   0.574  1.1116 -0.1683 -0.6732
16710SOL     OW52667   0.076   2.407   5.896  0.3705  0.4682 -0.2657
16710SOL    HW152668   0.117   2.492   5.879  0.6614 -0.0757 -2.4321
16710SOL    HW252669   0.030   2.385   5.815  0.3307 -1.4711  0.2452
16711SOL     OW52670   9.431   6.293   8.974 -0.2289 -0.3522  0.6487
16711SOL    HW152671   9.363   6.228   8.960  0.9763 -1.4666 -0.1047
16711SOL    HW252672   9.404   6.367   8.920 -0.6357 -0.9351  0.0482
16712SOL     OW52673   0.191   5.609   4.027  0.1072 -0.2146  0.1494
16712SOL    HW152674   0.116   5.665   4.045 -1.8472 -3.3720  2.3809
16712SOL    HW252675   0.160   5.546   3.962  1.0128 -1.0943  0.5416
16713SOL     OW52676   9.680   6.669   6.481 -0.1702  0.4535 -0.1474
16713SOL    HW152677   9.605   6.624   6.519 -0.2322 -0.9298 -1.8277
16713SOL    HW252678   9.690   6.748   6.533 -1.5854 -0.3133  1.3222
16714SOL     OW52679   2.582   3.893   9.566  0.4133 -0.2476  0.4404
16714SOL    HW152680   2.499   3.880   9.613 -0.7576 -0.5986 -1.6207
16714SOL    HW252681   2.589   3.988   9.556 -0.2816 -0.2643 -0.2749
16715SOL     OW52682   1.580   3.853   0.925  0.0526  0.4595  0.6213
16715SOL    HW152683   1.568   3.889   1.013 -0.5945 -0.7803  1.0510
16715SOL    HW252684   1.644   3.782   0.936  1.9572  1.9616 -0.3588
16716SOL     OW52685   1.063   2.284   5.677  0.2707 -0.2351  0.4439
16716SOL    HW152686   0.969   2.301   5.677  0.4950  1.0854  1.3384
16716SOL    HW252687   1.102   2.367   5.649  1.0979 -1.2870 -1.6428
16717SOL     OW52688   0.638   9.583   8.865 -0.3431  0.4845  0.0015
16717SOL    HW152689   0.672   9.672   8.857  0.0567  0.4518  1.2335
16717SOL    HW252690   0.548   9.595   8.897  0.2515  0.4066  1.7562
16718SOL     OW52691   8.012   8.241   4.883 -0.3251  0.1522  0.4649
16718SOL    HW152692   8.033   8.148   4.888 -0.8495  0.0272  0.3336
16718SOL    HW252693   7.988   8.256   4.791 -0.6234  0.3368  0.5729
16719SOL     OW52694   8.795   0.766   2.564  0.6538  0.6864 -0.3592
16719SOL    HW152695   8.800   0.788   2.471 -1.2412  0.6386 -0.4940
16719SOL    HW252696   8.774   0.673   2.565  1.3562  0.5335  0.1296
16720SOL     OW52697   2.484   9.043   6.152  0.1350  0.7091  0.0968
16720SOL    HW152698   2.460   9.029   6.243 -0.9403 -0.3578 -0.3492
16720SOL    HW252699   2.561   9.101   6.157  1.2003 -0.7997  1.7409
16721SOL     OW52700   6.996   0.629   2.216 -0.5512 -0.1629  0.5848
16721SOL    HW152701   7.047   0.695   2.263 -1.2678  0.4207  0.5657
16721SOL    HW252702   6.977   0.562   2.282 -0.9302  0.2974  0.9593
16722SOL     OW52703   7.240   6.769   6.955 -0.0718  0.0390 -0.7243
16722SOL    HW152704   7.290   6.765   6.874 -0.7789 -1.1901 -1.1108
16722SOL    HW252705   7.154   6.732   6.933 -0.2625 -0.3587  0.5915
16723SOL     OW52706   5.234   7.933   4.332 -0.2682  0.5920  0.6986
16723SOL    HW152707   5.273   8.004   4.383  2.4603 -0.2346 -0.1123
16723SOL    HW252708   5.283   7.855   4.359  1.0567  0.0895 -2.9039
16724SOL     OW52709   5.094   8.488   2.356  0.0247 -0.1637 -0.7580
16724SOL    HW152710   5.094   8.392   2.360 -0.4819 -0.2238 -2.0099
16724SOL    HW252711   5.023   8.509   2.295 -0.5062  1.0408  0.2598
16725SOL     OW52712   3.908   3.845   1.381  0.3756 -0.3613 -0.4378
16725SOL    HW152713   3.868   3.930   1.394  1.5492  0.3494 -1.3663
16725SOL    HW252714   3.836   3.787   1.356 -0.7064 -0.0572  1.8897
16726SOL     OW52715   8.612   6.735   3.469 -0.5101  0.1571  0.2250
16726SOL    HW152716   8.627   6.824   3.435  1.8734 -0.7414 -1.2453
16726SOL    HW252717   8.526   6.711   3.437  0.0694  0.8408 -1.9398
16727SOL     OW52718   1.949   1.512   8.631 -0.2046 -0.4609  0.2669
16727SOL    HW152719   2.029   1.564   8.637 -1.2215  1.1359  0.2142
16727SOL    HW252720   1.953   1.452   8.705  0.7539  0.0232  0.6056
16728SOL     OW52721   6.694   4.924   7.518 -0.4459 -0.1819  0.0303
16728SOL    HW152722   6.767   4.964   7.470  0.0523 -0.3973  0.5937
16728SOL    HW252723   6.698   4.831   7.494 -0.7522 -0.1327 -0.2111
16729SOL     OW52724   7.393   2.205   1.036 -0.2417  0.1405 -0.2365
16729SOL    HW152725   7.406   2.122   0.990  2.9667 -0.5526  1.7549
16729SOL    HW252726   7.478   2.249   1.030 -1.5739  2.7915 -0.2889
16730SOL     OW52727   0.022   7.964   1.489  0.1839 -0.3234 -0.5271
16730SOL    HW152728   0.068   8.043   1.518 -2.1859  0.6118  0.8730
16730SOL    HW252729   0.043   7.957   1.396  1.2452  1.3814 -0.4445
16731SOL     OW52730   3.344   0.738   0.953 -0.7990 -0.2288  0.1892
16731SOL    HW152731   3.377   0.828   0.955 -0.5649 -0.3434  2.6244
16731SOL    HW252732   3.417   0.684   0.982 -0.8862 -1.2387 -1.4102
16732SOL     OW52733   9.580   4.940   1.730 -0.1986 -0.0753  0.2553
16732SOL    HW152734   9.646   4.873   1.714 -0.3388 -0.8543  2.7733
16732SOL    HW252735   9.582   4.995   1.651  1.7689 -1.4728 -0.7061
16733SOL     OW52736   9.131   5.968   8.755  0.2258 -0.4002  0.4187
16733SOL    HW152737   9.048   6.017   8.751  0.7353  0.5809  1.6620
16733SOL    HW252738   9.105   5.877   8.742 -0.8553  0.0672 -0.9266
16734SOL     OW52739   1.675   7.673  10.100 -0.4295 -0.1095  0.7326
16734SOL    HW152740   1.594   7.674  10.151  0.6890  0.9976  2.5910
16734SOL    HW252741   1.673   7.754  10.050 -1.1527 -0.8013 -0.3617
16735SOL     OW52742   7.016   3.480   9.027  0.0033  0.2829  0.5308
16735SOL    HW152743   7.084   3.414   9.038 -0.7957 -0.3648  1.8141
16735SOL    HW252744   6.991   3.503   9.117 -2.3832 -0.4853  0.1087
16736SOL     OW52745   2.697   2.725   9.856 -0.3993  0.4828  0.4173
16736SOL    HW152746   2.613   2.729   9.811 -0.4174 -2.0593  0.1976
16736SOL    HW252747   2.692   2.647   9.911  0.9291  1.6223  2.2544
16737SOL     OW52748   9.298   2.221  10.148 -0.2619 -0.0266 -0.2419
16737SOL    HW152749   9.301   2.311  10.115 -1.6109  0.1947  0.2465
16737SOL    HW252750   9.207   2.195  10.139  0.4058 -1.9239 -1.8848
16738SOL     OW52751   1.414   1.784   8.529  0.0063 -0.1152  0.0090
16738SOL    HW152752   1.481   1.770   8.597  0.3001  0.7444 -0.0907
16738SOL    HW252753   1.355   1.709   8.537 -0.2929  0.2738  1.6091
16739SOL     OW52754   2.088   6.046   5.951  0.0141  0.5833  0.1918
16739SOL    HW152755   2.104   6.126   6.003 -1.6941  1.6281 -0.8330
16739SOL    HW252756   2.143   5.980   5.992  0.0666  1.8346  2.2442
16740SOL     OW52757   0.253   1.762   8.133  0.7244  0.3837 -0.5547
16740SOL    HW152758   0.211   1.681   8.105  1.4404 -0.5027  0.8330
16740SOL    HW252759   0.345   1.752   8.105  1.7135 -1.0012  2.8875
16741SOL     OW52760   0.439   0.786   3.795 -0.3447 -0.0907  0.1436
16741SOL    HW152761   0.445   0.763   3.702 -2.4359  1.6284 -0.4528
16741SOL    HW252762   0.504   0.854   3.807 -1.2484  0.9008 -0.4840
16742SOL     OW52763   5.167   0.021   7.703 -0.0606  0.2075  0.1951
16742SOL    HW152764   5.216   0.080   7.760 -1.6750  1.7291  0.0691
16742SOL    HW252765   5.077   0.056   7.705 -0.3251 -0.2027 -2.5885
16743SOL     OW52766   2.299   6.682   0.750 -0.2483 -0.2767 -0.1228
16743SOL    HW152767   2.242   6.684   0.673 -1.4918 -0.2972  0.7719
16743SOL    HW252768   2.248   6.725   0.818  0.4609 -1.0977  0.9423
16744SOL     OW52769   7.549   4.701   0.971 -0.1894  0.1363  0.3771
16744SOL    HW152770   7.581   4.625   1.019  0.7727  0.5336  0.3761
16744SOL    HW252771   7.598   4.700   0.888 -0.6899  0.3476  0.0749
16745SOL     OW52772   8.519   6.829   1.634 -0.0491  0.1669  0.1989
16745SOL    HW152773   8.478   6.786   1.710 -0.3080 -0.2077 -0.1540
16745SOL    HW252774   8.471   6.911   1.625  2.7368  2.2390  3.0676
16746SOL     OW52775   2.417   5.069   9.791 -0.0838  0.4692 -0.6452
16746SOL    HW152776   2.450   5.040   9.706  1.6065 -1.4032  0.6063
16746SOL    HW252777   2.451   5.005   9.853  0.5106  3.0083  1.7332
16747SOL     OW52778   3.546   4.541   0.226 -0.8239  0.3604 -0.2433
16747SOL    HW152779   3.618   4.603   0.230  0.1778 -0.7665 -0.3500
16747SOL    HW252780   3.523   4.525   0.318 -0.0667 -0.2515 -0.1514
16748SOL     OW52781   4.843   8.469   4.815  0.0665  0.0993 -0.8575
16748SOL    HW152782   4.833   8.470   4.910 -0.4916 -1.1907 -0.8814
16748SOL    HW252783   4.856   8.560   4.790  0.5028  0.4080  0.4843
16749SOL     OW52784   5.139   4.328   5.487  0.1349 -0.7885 -0.0278
16749SOL    HW152785   5.088   4.391   5.436  0.8726  0.2076  0.4495
16749SOL    HW252786   5.150   4.370   5.573 -0.1667 -1.9724  0.6033
16750SOL     OW52787   1.252   2.819   7.866  0.5231  0.8196  0.6082
16750SOL    HW152788   1.164   2.787   7.849  1.1946 -0.3437 -0.7585
16750SOL    HW252789   1.261   2.816   7.962 -0.7220  0.4541  0.7145
16751SOL     OW52790   9.251   0.517   5.425  0.0675  0.4123  0.5125
16751SOL    HW152791   9.304   0.590   5.458 -0.1197  1.0680 -0.6157
16751SOL    HW252792   9.162   0.536   5.456 -0.0113  0.7580  0.0866
16752SOL     OW52793   7.525   0.626   6.256 -0.0771 -0.0308 -0.0749
16752SOL    HW152794   7.432   0.604   6.266  0.0250 -0.8563 -0.7672
16752SOL    HW252795   7.571   0.543   6.273  0.3716 -0.2299 -2.0446
16753SOL     OW52796   7.839   3.092   5.628 -0.2116 -0.5810  0.4054
16753SOL    HW152797   7.819   3.065   5.718  0.1536  0.5786  0.8418
16753SOL    HW252798   7.802   3.180   5.621  0.5377 -0.3259 -0.2966
16754SOL     OW52799   9.317   5.839   4.614  0.3297 -0.1159  0.1335
16754SOL    HW152800   9.371   5.801   4.545 -1.4635 -2.0797 -0.2418
16754SOL    HW252801   9.298   5.767   4.673  1.0490  1.3547  2.1942
16755SOL     OW52802   2.661   9.110   8.154  0.6041  0.4382  0.2588
16755SOL    HW152803   2.671   9.071   8.241 -0.4322  0.1961  0.2669
16755SOL    HW252804   2.660   9.204   8.170 -1.2433  0.3657  0.6924
16756SOL     OW52805   1.552   3.207   7.903 -0.4577 -0.2818 -0.3758
16756SOL    HW152806   1.607   3.141   7.944 -0.9704  0.4502  1.5309
16756SOL    HW252807   1.580   3.290   7.941 -1.1337  0.3853 -1.2939
16757SOL     OW52808   1.651   7.253   3.774 -0.0339 -0.2655  0.0293
16757SOL    HW152809   1.594   7.232   3.848 -0.1716 -0.5308 -0.1509
16757SOL    HW252810   1.657   7.171   3.724  0.3203 -0.1761 -0.0766
16758SOL     OW52811   2.173   1.738   3.035  0.0749  0.1208 -0.0032
16758SOL    HW152812   2.219   1.691   2.966  2.1928  2.0337  0.0447
16758SOL    HW252813   2.146   1.669   3.097  0.3744 -1.3274 -1.4558
16759SOL     OW52814   3.076   8.495   0.851 -0.2886  0.4132  0.5598
16759SOL    HW152815   3.115   8.497   0.764 -0.4011 -0.1783  0.4989
16759SOL    HW252816   3.121   8.565   0.899 -1.8408  2.2944 -0.6707
16760SOL     OW52817   9.009   9.930   7.100  0.6166 -0.1539 -0.3313
16760SOL    HW152818   8.913   9.930   7.108  0.5357  0.3352 -1.2471
16760SOL    HW252819   9.030   9.846   7.059  0.5053  0.0907 -0.8988
16761SOL     OW52820   4.813   9.553   2.182  0.2585  0.0433 -0.1494
16761SOL    HW152821   4.788   9.569   2.273 -0.2698 -0.0603 -0.2706
16761SOL    HW252822   4.729   9.554   2.135  0.3705 -1.5320 -0.3854
16762SOL     OW52823   1.066   7.192   8.135 -0.1018  0.1781  0.3534
16762SOL    HW152824   0.992   7.144   8.171 -0.5712  0.7366  0.1319
16762SOL    HW252825   1.037   7.221   8.049  0.7986 -0.6229 -0.2394
16763SOL     OW52826   9.571   5.585   8.596  0.0697 -0.5149  0.1197
16763SOL    HW152827   9.515   5.655   8.562 -0.5517 -0.7144  0.7106
16763SOL    HW252828   9.624   5.558   8.522 -1.2053 -0.8876 -0.6765
16764SOL     OW52829   8.615   9.424   5.389  0.8193  0.2073  0.0255
16764SOL    HW152830   8.658   9.357   5.441 -1.4921  0.2952  2.1334
16764SOL    HW252831   8.637   9.506   5.433  2.3123  0.7229 -1.6164
16765SOL     OW52832   0.331   0.353   9.049 -0.0867  0.2231 -0.1796
16765SOL    HW152833   0.375   0.274   9.018  1.2097  1.2916 -1.1212
16765SOL    HW252834   0.381   0.381   9.125 -1.3025 -0.5565  0.9181
16766SOL     OW52835   4.725   4.435   1.515 -0.4213  0.5394  0.2194
16766SOL    HW152836   4.732   4.448   1.610  0.9886  0.3926  0.1475
16766SOL    HW252837   4.796   4.373   1.494  0.6824  2.2581 -1.2558
16767SOL     OW52838   1.444   9.952   7.148  0.0891 -0.0342  0.0997
16767SOL    HW152839   1.372  10.000   7.108  0.1594 -0.0733 -0.0726
16767SOL    HW252840   1.472   9.889   7.081 -0.9464 -1.3065  0.8425
16768SOL     OW52841   7.706   4.283   5.523  0.4087  0.2738 -0.5234
16768SOL    HW152842   7.796   4.285   5.557  0.9367 -1.4610 -1.7461
16768SOL    HW252843   7.704   4.208   5.463 -1.6429  0.7621 -1.1292
16769SOL     OW52844   4.106   6.798   1.559 -0.2913  0.2610 -0.4821
16769SOL    HW152845   4.073   6.721   1.607  1.0659 -0.2744 -0.3760
16769SOL    HW252846   4.190   6.769   1.524 -0.2171  1.4092 -1.2483
16770SOL     OW52847   1.600   9.697   6.428  0.1104 -0.5953  0.0172
16770SOL    HW152848   1.532   9.686   6.361  1.3592 -0.3286 -1.3118
16770SOL    HW252849   1.560   9.756   6.492 -0.5276  0.4924 -1.3359
16771SOL     OW52850   9.563   9.459   6.417  0.2130  0.3291 -0.4078
16771SOL    HW152851   9.637   9.418   6.373 -0.2170 -0.8414 -0.0384
16771SOL    HW252852   9.584   9.453   6.510  0.2664  1.1866 -0.3552
16772SOL     OW52853   3.603   2.754   3.852 -0.4124 -0.1508 -0.3868
16772SOL    HW152854   3.645   2.669   3.859  1.1304  0.6639  0.5647
16772SOL    HW252855   3.519   2.742   3.897 -0.2939 -1.2204 -0.4306
16773SOL     OW52856   5.135   7.038   4.718 -0.2493 -0.4906  0.0459
16773SOL    HW152857   5.100   7.089   4.645  0.1435 -0.7676 -0.3400
16773SOL    HW252858   5.083   7.065   4.794 -1.1051 -0.7055 -0.4644
16774SOL     OW52859   4.763   3.134   4.988 -0.1741 -0.1152  0.0501
16774SOL    HW152860   4.854   3.111   4.966  0.2167  0.9208  0.5846
16774SOL    HW252861   4.734   3.190   4.916 -0.3600 -0.3647 -0.0709
16775SOL     OW52862   7.366   0.447   5.592  0.1780 -0.3210 -0.0938
16775SOL    HW152863   7.336   0.455   5.501 -0.7268 -0.5278  0.1813
16775SOL    HW252864   7.369   0.537   5.624  0.2683 -0.2668 -0.2525
16776SOL     OW52865   5.859   4.882   8.322 -0.4224 -0.1397 -0.1628
16776SOL    HW152866   5.936   4.851   8.368 -0.8638 -0.7209  0.1938
16776SOL    HW252867   5.892   4.917   8.240  0.2013 -0.5537 -0.0884
16777SOL     OW52868   0.984   5.931   3.927  0.0115 -0.3970 -0.2764
16777SOL    HW152869   1.022   5.914   3.841  2.6951 -0.5918  0.9162
16777SOL    HW252870   0.954   6.022   3.923  1.5765  0.0937 -0.8803
16778SOL     OW52871   2.243   6.501   2.275  0.1565  0.2475 -0.4798
16778SOL    HW152872   2.269   6.418   2.314 -0.5437  0.5565  0.6681
16778SOL    HW252873   2.166   6.481   2.222 -0.1499  0.2120 -0.0179
16779SOL     OW52874   6.399   0.182   3.922 -0.7388 -0.9313 -0.0490
16779SOL    HW152875   6.425   0.212   3.835 -0.8257 -1.6935 -0.3349
16779SOL    HW252876   6.307   0.207   3.929 -0.8801 -1.3697 -0.3862
16780SOL     OW52877   5.110   3.708   4.385 -0.0301 -0.2705 -0.8447
16780SOL    HW152878   5.167   3.643   4.425 -2.1942 -2.3900 -1.0798
16780SOL    HW252879   5.027   3.699   4.432 -1.2451  0.2916 -2.8346
16781SOL     OW52880   3.914   7.095   9.865  0.0534 -0.3550 -0.6035
16781SOL    HW152881   3.997   7.110   9.819  0.9598 -0.0243  1.0869
16781SOL    HW252882   3.889   7.181   9.898  0.0210 -0.7747  0.4889
16782SOL     OW52883   4.854  10.149   1.029  0.4656  0.3860 -0.2351
16782SOL    HW152884   4.842  10.244   1.029  1.6394  0.5502  0.2423
16782SOL    HW252885   4.806  10.118   0.952 -1.7813  1.1115  0.8466
16783SOL     OW52886   7.767   7.826   4.544 -0.3677 -0.6459 -0.1411
16783SOL    HW152887   7.803   7.911   4.569 -1.2411  0.1086 -1.4132
16783SOL    HW252888   7.785   7.819   4.451 -1.7233 -1.1587 -0.3660
16784SOL     OW52889   0.879   9.672   9.301  0.1483 -0.1970 -0.3966
16784SOL    HW152890   0.967   9.709   9.296 -0.4352  1.2502 -0.2549
16784SOL    HW252891   0.848   9.696   9.389  0.2008 -2.0930  0.1768
16785SOL     OW52892   4.291   2.490  10.024  0.4403  0.3598  0.1976
16785SOL    HW152893   4.371   2.445   9.997 -1.0424 -2.8756  1.0093
16785SOL    HW252894   4.249   2.515   9.941  0.7345 -0.7536 -0.2991
16786SOL     OW52895   4.068   2.910   7.040  0.0330 -0.1838  0.0738
16786SOL    HW152896   4.114   2.841   7.088  0.4664 -0.2358 -0.4169
16786SOL    HW252897   4.066   2.984   7.101 -0.6679 -0.7058  0.7043
16787SOL     OW52898   3.040   7.747   1.864 -0.3297  0.2282  0.4025
16787SOL    HW152899   3.115   7.688   1.867 -0.3058  0.3240  1.7356
16787SOL    HW252900   3.076   7.833   1.887 -0.7858  0.3349  0.7270
16788SOL     OW52901   0.906   3.882   4.511  0.0047 -0.0323  0.3462
16788SOL    HW152902   0.971   3.876   4.441 -2.2199 -0.1001 -1.8064
16788SOL    HW252903   0.885   3.975   4.516 -0.0692 -0.0687  0.7243
16789SOL     OW52904   7.431   1.680   3.968 -0.3615 -0.1962 -0.1317
16789SOL    HW152905   7.507   1.729   3.934 -0.7301 -0.1416 -0.8820
16789SOL    HW252906   7.464   1.638   4.047  0.0406  1.0686  0.3928
16790SOL     OW52907   8.873  10.046   3.443  0.1684  0.6287 -0.1829
16790SOL    HW152908   8.868  10.021   3.535  1.1543  0.1496 -0.2566
16790SOL    HW252909   8.913  10.133   3.443 -0.8538  1.1042 -0.0929
16791SOL     OW52910   4.291   6.701   2.181  0.4807 -0.0046 -0.2089
16791SOL    HW152911   4.340   6.668   2.106  0.3561 -0.4655 -0.0881
16791SOL    HW252912   4.318   6.645   2.254  2.3176  1.8472  0.6063
16792SOL     OW52913   6.968   5.171   7.110  0.3896 -0.8039  0.0728
16792SOL    HW152914   7.028   5.169   7.036 -1.6279 -0.6038 -1.5947
16792SOL    HW252915   7.023   5.198   7.184  1.8494  1.9656 -1.9112
16793SOL     OW52916   2.496   1.110   7.821  0.2504  0.3147  0.0684
16793SOL    HW152917   2.442   1.171   7.872 -0.6156 -1.1605  0.9469
16793SOL    HW252918   2.507   1.153   7.736 -1.9672  0.8586  0.0119
16794SOL     OW52919   2.486   2.976   1.721 -0.3739  0.2266  0.4044
16794SOL    HW152920   2.576   2.971   1.751 -1.3783  1.3263  3.8293
16794SOL    HW252921   2.471   3.070   1.707 -0.6820 -0.0491 -1.2555
16795SOL     OW52922   1.475   9.871   9.196  0.3856  0.2288 -0.4693
16795SOL    HW152923   1.462   9.963   9.221  0.8449  0.7088 -1.9407
16795SOL    HW252924   1.394   9.847   9.151  0.3747 -0.0186 -0.3211
16796SOL     OW52925   4.940   0.644   3.244  0.1026  0.4556  0.4920
16796SOL    HW152926   4.976   0.571   3.193 -0.1333  1.2288 -0.8153
16796SOL    HW252927   4.963   0.721   3.193  0.4406  1.3062  1.9268
16797SOL     OW52928   3.515   7.031   7.535  0.5971 -0.1786 -0.0941
16797SOL    HW152929   3.492   7.123   7.521  0.3533 -0.2060  0.1067
16797SOL    HW252930   3.603   7.034   7.572  0.9662 -0.0758 -0.9685
16798SOL     OW52931   3.582   5.008   2.557  0.5110 -0.1362 -0.3139
16798SOL    HW152932   3.535   4.994   2.640  0.3300  0.1161 -0.3721
16798SOL    HW252933   3.672   4.982   2.576  0.7633  1.1396  0.3364
16799SOL     OW52934   8.417   6.856   4.312  0.9395 -0.4164  0.0081
16799SOL    HW152935   8.418   6.946   4.343  2.7078 -1.0806  2.0330
16799SOL    HW252936   8.325   6.828   4.320  0.3109  1.3010 -1.0493
16800SOL     OW52937   8.154   9.241   9.052  0.7251  0.2646  0.1818
16800SOL    HW152938   8.164   9.328   9.013  0.6630 -1.0865 -3.0320
16800SOL    HW252939   8.243   9.218   9.081  1.2726  0.3767 -1.3340
16801SOL     OW52940   9.120   1.161   8.586  0.5346 -0.5819  0.1918
16801SOL    HW152941   9.095   1.069   8.599  1.5427 -0.8681  0.1712
16801SOL    HW252942   9.216   1.159   8.583  0.5161  0.2616 -1.4327
16802SOL     OW52943   8.812   2.648   2.598  0.2961 -0.0926 -0.3782
16802SOL    HW152944   8.759   2.683   2.670  1.4038  0.4351  0.1980
16802SOL    HW252945   8.757   2.658   2.521 -0.3661  0.6579  0.1794
16803SOL     OW52946   8.576   2.089   4.927 -0.5167 -0.1911  0.3760
16803SOL    HW152947   8.625   2.163   4.892 -0.0825 -0.1606  1.0315
16803SOL    HW252948   8.553   2.036   4.850 -2.9189  1.8570 -0.3625
16804SOL     OW52949   7.124   5.853   6.519  0.6730  0.1777 -0.0257
16804SOL    HW152950   7.190   5.787   6.541  0.2248 -0.2312  0.1013
16804SOL    HW252951   7.133   5.920   6.587  0.6389 -0.1096  0.2624
16805SOL     OW52952   3.694   3.712   2.615  0.3449 -0.1080 -0.4295
16805SOL    HW152953   3.776   3.668   2.591 -0.3717 -0.5213 -2.1977
16805SOL    HW252954   3.672   3.766   2.538 -0.8889  0.2270  0.1420
16806SOL     OW52955   5.171   9.049   1.402 -0.0731  0.1660 -0.1926
16806SOL    HW152956   5.179   9.137   1.367  1.0186  0.4677  0.7994
16806SOL    HW252957   5.257   9.009   1.389  0.1675  0.0819  1.5685
16807SOL     OW52958   7.291   1.924   9.384 -0.1069  0.2690 -0.1089
16807SOL    HW152959   7.229   1.895   9.317 -0.1465 -2.1819  0.9697
16807SOL    HW252960   7.375   1.889   9.357 -0.1695 -0.9797  1.2421
16808SOL     OW52961   6.949   1.110   5.149 -0.5441 -0.1170  0.4518
16808SOL    HW152962   6.892   1.088   5.223 -2.6731  1.4296 -0.7129
16808SOL    HW252963   6.910   1.188   5.110  0.9689 -0.4812 -1.8790
16809SOL     OW52964   9.875   0.120   1.929  0.2041  0.3612  0.1092
16809SOL    HW152965   9.804   0.061   1.905  1.1098 -0.0513 -1.6600
16809SOL    HW252966   9.879   0.116   2.025 -2.0687  0.3183  0.2179
16810SOL     OW52967   2.195   0.991   0.717  0.5521 -0.3875  0.0526
16810SOL    HW152968   2.273   0.947   0.749  0.6453 -0.2112  0.0689
16810SOL    HW252969   2.207   0.997   0.622 -0.9226 -3.2767 -0.3580
16811SOL     OW52970   0.406   2.106   1.386 -0.0952 -0.4371 -0.3600
16811SOL    HW152971   0.443   2.161   1.317  0.9361 -1.1851 -0.4156
16811SOL    HW252972   0.469   2.035   1.396 -0.0884 -0.1742  1.5803
16812SOL     OW52973   2.563   2.376   7.207 -0.3794 -0.5951  0.2758
16812SOL    HW152974   2.577   2.465   7.240  1.8395 -0.7956 -0.0859
16812SOL    HW252975   2.580   2.383   7.113 -1.6426 -1.1256 -0.0091
16813SOL     OW52976   6.981   0.941   2.413  0.0438 -0.1947 -0.8719
16813SOL    HW152977   6.926   0.974   2.342  0.5591 -2.7628 -2.5679
16813SOL    HW252978   7.071   0.953   2.381  0.6081  4.2094  1.9746
16814SOL     OW52979  10.198   6.217   0.459 -0.2995 -0.4752  0.2635
16814SOL    HW152980  10.188   6.278   0.386 -1.3488  0.3098  1.0586
16814SOL    HW252981  10.292   6.214   0.475 -0.2775  1.3926  0.5912
16815SOL     OW52982   7.498   8.799   1.680  0.4028 -0.3134  0.6265
16815SOL    HW152983   7.500   8.892   1.657 -0.9569 -0.4442 -0.0090
16815SOL    HW252984   7.578   8.763   1.642  0.4645  0.4026  0.0760
16816SOL     OW52985   9.359   9.451   0.262 -0.1369  0.1665  0.3186
16816SOL    HW152986   9.304   9.375   0.279  1.0540 -1.0214 -1.0682
16816SOL    HW252987   9.349   9.469   0.169 -0.7840  2.0320  0.7135
16817SOL     OW52988   7.017   3.213   0.094  0.2401  0.3883  0.1756
16817SOL    HW152989   7.087   3.148   0.084 -1.4070 -1.1553 -1.6435
16817SOL    HW252990   7.060   3.287   0.138  2.8653 -0.7407 -0.3676
16818SOL     OW52991   3.230   1.130   3.933 -0.5071 -0.2163 -0.1430
16818SOL    HW152992   3.269   1.147   3.848 -1.0514 -2.1260 -0.8124
16818SOL    HW252993   3.168   1.202   3.946 -1.1859 -0.4649 -1.8545
16819SOL     OW52994   6.870   9.208   3.877 -0.1079 -0.2887 -0.1691
16819SOL    HW152995   6.896   9.136   3.819  0.0394 -0.4307  0.0691
16819SOL    HW252996   6.775   9.208   3.874 -0.1303 -1.0174  0.4604
16820SOL     OW52997   7.275   6.922   1.285  0.5575  0.0830  0.0741
16820SOL    HW152998   7.276   6.849   1.346 -0.5930  0.0184  0.0148
16820SOL    HW252999   7.197   6.973   1.308 -0.0070 -0.0490 -1.4551
16821SOL     OW53000   3.669   8.990   5.351  0.2299 -0.1759  0.1981
16821SOL    HW153001   3.667   8.917   5.289  2.5962  0.5036 -0.7055
16821SOL    HW253002   3.739   8.969   5.412  0.1931  0.8212  0.5994
16822SOL     OW53003   8.076   2.534   4.127  0.3808 -0.6317  0.0515
16822SOL    HW153004   8.034   2.471   4.069 -0.5504 -0.7020  0.8021
16822SOL    HW253005   8.055   2.505   4.215  0.2657  0.5060  0.4123
16823SOL     OW53006   9.797   5.391   0.153 -0.3751 -0.2241 -0.5834
16823SOL    HW153007   9.870   5.418   0.097  0.0187  0.1406  0.0962
16823SOL    HW253008   9.835   5.325   0.211 -0.6307 -0.1710 -0.3552
16824SOL     OW53009   5.698   2.523   5.070 -0.1623  0.3943  0.1202
16824SOL    HW153010   5.778   2.538   5.120  0.8026  0.8674 -1.5363
16824SOL    HW253011   5.690   2.600   5.013 -1.4731  0.0680 -0.1568
16825SOL     OW53012   5.457   8.711   1.457  0.8688 -0.3135 -0.1047
16825SOL    HW153013   5.405   8.755   1.389  0.7050  0.7022  0.6602
16825SOL    HW253014   5.502   8.640   1.411  1.3726  0.8387 -1.4369
16826SOL     OW53015   1.642   5.132   5.122  0.3069  0.2182 -0.6557
16826SOL    HW153016   1.577   5.183   5.171  0.2360  0.0799 -0.6065
16826SOL    HW253017   1.593   5.097   5.048  0.7573  1.6890 -1.6826
16827SOL     OW53018  10.060   6.099   9.248 -0.5923  0.2519 -0.0472
16827SOL    HW153019  10.068   6.006   9.265 -0.9261  0.8297  3.6524
16827SOL    HW253020  10.149   6.133   9.257 -0.8154  0.6047  0.9363
16828SOL     OW53021   3.214   0.885   7.601 -0.8680  0.7042 -0.4508
16828SOL    HW153022   3.286   0.932   7.559 -0.5378 -1.0397 -1.8793
16828SOL    HW253023   3.184   0.823   7.535 -3.0575  0.7349  0.4681
16829SOL     OW53024   2.880   4.980   7.332  0.7294  0.1106  0.5990
16829SOL    HW153025   2.839   5.028   7.260  0.9756 -1.2132 -0.4458
16829SOL    HW253026   2.961   5.028   7.350 -0.5981  1.9904  1.8105
16830SOL     OW53027   3.888   2.519   5.245 -0.2332  0.4409 -0.0131
16830SOL    HW153028   3.840   2.532   5.163  1.9019  0.8975 -1.2425
16830SOL    HW253029   3.957   2.585   5.243  1.7195 -1.5135  0.7025
16831SOL     OW53030   8.821   8.424   6.518 -0.0866 -0.1719  0.3125
16831SOL    HW153031   8.871   8.485   6.572  0.7535 -0.3934 -0.2147
16831SOL    HW253032   8.748   8.397   6.574  0.8716 -0.5333  1.4063
16832SOL     OW53033   8.960   9.624   7.388 -0.5697 -0.3938  0.8425
16832SOL    HW153034   8.962   9.562   7.461  0.2390 -1.3871  0.0064
16832SOL    HW253035   8.895   9.587   7.328 -0.2490 -0.3137  0.4445
16833SOL     OW53036   1.344   5.238   7.408  0.5854 -0.0390 -0.4919
16833SOL    HW153037   1.414   5.187   7.367  0.3761 -2.1598  1.7006
16833SOL    HW253038   1.268   5.224   7.350  1.2795  0.1795 -1.4760
16834SOL     OW53039   1.645   8.300   4.656 -0.7726  0.1454 -0.5622
16834SOL    HW153040   1.571   8.342   4.611  1.2926  3.3359 -1.2150
16834SOL    HW253041   1.688   8.372   4.702  1.6273 -1.7282  0.2154
16835SOL     OW53042   1.848   6.859   8.443  0.1696 -0.0500  0.5268
16835SOL    HW153043   1.858   6.764   8.449  1.2209 -0.0426 -0.6208
16835SOL    HW253044   1.926   6.894   8.487 -0.1076  0.2660  0.7630
16836SOL     OW53045   1.046   6.837   5.944  0.1742 -0.1975 -0.3906
16836SOL    HW153046   1.084   6.870   5.862  0.9988  1.5166  0.6507
16836SOL    HW253047   0.957   6.870   5.943  0.3362  0.2479 -0.3694
16837SOL     OW53048   6.240   7.164   2.204  0.3274 -0.1341 -0.3482
16837SOL    HW153049   6.317   7.201   2.247 -1.2753 -0.0970  2.6393
16837SOL    HW253050   6.217   7.088   2.259 -2.1516  0.2760 -0.7789
16838SOL     OW53051   3.515   4.863   5.908  0.2141 -0.1311 -0.0649
16838SOL    HW153052   3.583   4.804   5.873  0.9344  0.0206  1.0609
16838SOL    HW253053   3.564   4.931   5.953 -0.6231  1.3479 -1.3698
16839SOL     OW53054   7.478   0.207   2.075  0.2018  0.3496  0.0206
16839SOL    HW153055   7.471   0.212   2.170 -1.5495 -0.0960 -0.0773
16839SOL    HW253056   7.557   0.155   2.059 -0.7486 -1.4838  1.2350
16840SOL     OW53057   1.064   3.603   1.710 -0.4434  0.0681  0.7788
16840SOL    HW153058   0.975   3.628   1.685 -0.0232  1.6211  0.8077
16840SOL    HW253059   1.091   3.540   1.642 -0.7233  1.3307 -0.5257
16841SOL     OW53060   0.216   2.857   2.922 -0.3364 -0.1274  0.2126
16841SOL    HW153061   0.192   2.943   2.955  0.9108  0.3529 -0.0990
16841SOL    HW253062   0.311   2.861   2.911 -0.4148 -1.1242 -0.9920
16842SOL     OW53063   3.075   5.297   8.096 -0.3891 -0.1693 -0.0874
16842SOL    HW153064   3.109   5.221   8.050 -1.4618  0.5888 -2.1714
16842SOL    HW253065   3.139   5.366   8.078 -0.7488  0.0978 -0.3278
16843SOL     OW53066   9.230   4.062   2.787  0.1379 -0.1392  0.4443
16843SOL    HW153067   9.223   4.149   2.827  2.9207  0.6883 -0.7080
16843SOL    HW253068   9.258   4.080   2.697 -0.0015 -2.2222 -0.0367
16844SOL     OW53069   2.179   6.712   7.680 -0.6827 -0.1963  0.2918
16844SOL    HW153070   2.173   6.624   7.642 -0.5465  0.0089 -0.2135
16844SOL    HW253071   2.138   6.769   7.614 -2.9767 -0.1711  1.6713
16845SOL     OW53072   7.011   6.992   1.342 -0.1627  0.3342 -0.0043
16845SOL    HW153073   6.950   7.061   1.314 -0.9381  0.9742  2.9959
16845SOL    HW253074   6.955   6.927   1.384  0.9220 -0.3845  0.3449
16846SOL     OW53075   1.972   8.539   0.388 -0.2379  0.2508 -0.6296
16846SOL    HW153076   1.965   8.589   0.469  1.7657  0.3411 -0.4830
16846SOL    HW253077   1.990   8.449   0.417 -0.1474  0.1610 -0.9657
16847SOL     OW53078   1.255   2.794   6.422 -0.1961 -1.0850  0.1820
16847SOL    HW153079   1.302   2.714   6.445 -0.5543 -1.5774 -0.7743
16847SOL    HW253080   1.193   2.807   6.493  0.0509 -1.5076  0.4761
16848SOL     OW53081   8.887   8.985   7.641  0.5474  0.6947  0.4093
16848SOL    HW153082   8.916   8.898   7.668 -0.3854  0.6177  1.1613
16848SOL    HW253083   8.880   9.035   7.722 -0.2874  1.0578  0.1250
16849SOL     OW53084   1.186   0.349   0.985  0.3709  0.4632 -0.7416
16849SOL    HW153085   1.126   0.300   1.041  2.1977 -1.3359 -0.3131
16849SOL    HW253086   1.148   0.342   0.897 -0.6356  0.3278 -0.3023
16850SOL     OW53087   1.682   3.743   8.093  0.2370 -0.6978  0.4539
16850SOL    HW153088   1.589   3.719   8.085 -0.5088  2.0131  0.6246
16850SOL    HW253089   1.714   3.744   8.003  0.0073 -1.2698  0.3630
16851SOL     OW53090   7.988   8.527   1.690  0.0864  0.1156  0.1086
16851SOL    HW153091   7.951   8.612   1.716  1.1714  0.8207 -0.6134
16851SOL    HW253092   7.914   8.466   1.696 -0.7451  1.1455  0.4824
16852SOL     OW53093   4.553   7.285   6.198  0.1973  0.2852  0.5948
16852SOL    HW153094   4.520   7.374   6.186  2.9271  1.0525 -1.5804
16852SOL    HW253095   4.578   7.282   6.290  0.4163  1.8913  0.6085
16853SOL     OW53096   7.572   7.453   5.336 -0.0597  0.3464 -0.4336
16853SOL    HW153097   7.497   7.419   5.287  1.0418  0.3237 -2.1314
16853SOL    HW253098   7.639   7.469   5.270  0.9479  1.7302  0.8877
16854SOL     OW53099   6.314   0.691   8.201 -0.2068  0.2831  0.0383
16854SOL    HW153100   6.326   0.665   8.292  1.7637  0.7227 -0.0592
16854SOL    HW253101   6.387   0.649   8.155 -2.9776 -2.6283 -1.9147
16855SOL     OW53102   8.314   9.310   0.747  0.3043 -0.1803  0.1407
16855SOL    HW153103   8.334   9.241   0.683 -0.4952  0.2239 -0.5457
16855SOL    HW253104   8.360   9.283   0.826  0.9549 -0.9056 -0.4795
16856SOL     OW53105   7.350   2.283   8.201 -0.3733 -0.6569 -0.8560
16856SOL    HW153106   7.255   2.297   8.194 -0.5360 -0.9198  0.7881
16856SOL    HW253107   7.360   2.187   8.202 -0.0622 -0.6319 -1.2072
16857SOL     OW53108   1.316   6.462   2.416  0.2348 -0.2488  0.1878
16857SOL    HW153109   1.329   6.452   2.511  0.1163  0.7651  0.3103
16857SOL    HW253110   1.277   6.378   2.389  3.7586 -2.0332  0.3752
16858SOL     OW53111   0.902   1.332   9.983 -0.0449 -0.2773 -0.0954
16858SOL    HW153112   0.842   1.407   9.980 -1.8000 -1.7042 -3.4922
16858SOL    HW253113   0.846   1.258  10.006  1.2836 -0.9175  1.1406
16859SOL     OW53114   6.080   6.068   3.463 -0.1337  0.2024 -0.1165
16859SOL    HW153115   6.112   6.143   3.513  0.4932  0.2913 -0.6506
16859SOL    HW253116   5.987   6.061   3.487 -0.6810  2.3206 -1.4906
16860SOL     OW53117   6.878   6.135   0.790 -0.1245  0.1775 -0.4055
16860SOL    HW153118   6.895   6.137   0.696  0.2213 -0.9379 -0.3742
16860SOL    HW253119   6.784   6.149   0.798 -0.2347 -0.2267 -0.9548
16861SOL     OW53120   3.827   3.417   3.684 -0.0527  0.0803 -0.4000
16861SOL    HW153121   3.891   3.384   3.622  1.4574 -0.0886  1.2092
16861SOL    HW253122   3.867   3.403   3.770 -1.0739  2.4792  0.5120
16862SOL     OW53123   9.369   5.126   9.689 -0.1439 -0.3215 -0.2985
16862SOL    HW153124   9.296   5.188   9.685 -1.3161 -1.4486  2.3317
16862SOL    HW253125   9.338   5.049   9.642 -0.0493 -0.2078 -0.5454
16863SOL     OW53126   4.168   1.938   5.462  0.2359 -0.0630  0.4194
16863SOL    HW153127   4.126   1.996   5.398  0.5576 -0.1585  0.1232
16863SOL    HW253128   4.185   1.994   5.537 -0.3091  0.0081  0.4926
16864SOL     OW53129   6.907   5.309   3.179  0.2693  0.2403  0.2523
16864SOL    HW153130   6.922   5.297   3.085 -0.5069 -2.1755  0.4079
16864SOL    HW253131   6.917   5.404   3.193  2.6711  0.3409 -1.8426
16865SOL     OW53132   7.091   4.437   0.497  0.2251 -0.1631 -0.4022
16865SOL    HW153133   6.999   4.431   0.524 -0.3081  0.4309 -2.0128
16865SOL    HW253134   7.105   4.357   0.445  1.5060 -1.7757  2.3294
16866SOL     OW53135   6.331   8.827   7.341 -0.4178  0.3910 -0.2888
16866SOL    HW153136   6.269   8.898   7.354  0.0278  1.0795 -1.7963
16866SOL    HW253137   6.404   8.867   7.294 -0.1753 -1.0765 -1.1896
16867SOL     OW53138   9.757   5.975   2.579 -0.5829  0.7807  0.2151
16867SOL    HW153139   9.833   5.921   2.599 -2.3739 -2.1220 -0.5299
16867SOL    HW253140   9.687   5.938   2.633 -2.4064  0.8362 -2.0345
16868SOL     OW53141   1.844   6.768   6.599 -0.0330  0.4118 -0.2783
16868SOL    HW153142   1.813   6.697   6.541  0.8393 -1.0530  1.0239
16868SOL    HW253143   1.777   6.836   6.590 -0.1150  0.0675 -2.7213
16869SOL     OW53144   5.503   4.110   6.931  0.1864 -0.5959  0.5535
16869SOL    HW153145   5.571   4.158   6.885 -0.4712 -1.5854 -1.5166
16869SOL    HW253146   5.507   4.022   6.895 -2.9708 -0.3690 -0.5214
16870SOL     OW53147   5.987   9.122   6.968 -0.4931  0.0724 -0.3827
16870SOL    HW153148   6.016   9.189   7.029 -2.7283  0.4073  0.3842
16870SOL    HW253149   5.897   9.102   6.996 -1.4580 -0.0163 -3.3375
16871SOL     OW53150   1.277   3.340   5.819  0.3031 -0.1823 -0.0936
16871SOL    HW153151   1.307   3.263   5.867 -0.0491  0.1739  0.7115
16871SOL    HW253152   1.309   3.414   5.871 -4.3498  0.2500  2.4107
16872SOL     OW53153   9.650   2.576   7.743 -0.0291  0.3839 -0.2238
16872SOL    HW153154   9.743   2.573   7.767  0.1600 -0.1458 -1.0110
16872SOL    HW253155   9.649   2.612   7.655 -0.4723 -0.7813 -0.7022
16873SOL     OW53156   7.328   0.449   2.062  0.5233  0.2220  0.1302
16873SOL    HW153157   7.385   0.372   2.064  0.6621  0.3354  2.5566
16873SOL    HW253158   7.255   0.425   2.119 -0.4288  1.1344 -0.7104
16874SOL     OW53159   6.380  10.016   1.622  0.5982  0.0099 -0.2632
16874SOL    HW153160   6.340  10.080   1.563  1.3026 -0.3107 -1.1066
16874SOL    HW253161   6.445  10.066   1.672 -0.8807  0.5455  1.1588
16875SOL     OW53162   9.405   3.697   4.421  0.0867 -0.7480  0.2582
16875SOL    HW153163   9.332   3.635   4.418 -0.7789  0.2583  0.3958
16875SOL    HW253164   9.477   3.651   4.377 -0.8232 -1.4888 -0.4833
16876SOL     OW53165   0.380   0.162   4.180  0.1369 -0.2123 -0.1475
16876SOL    HW153166   0.343   0.208   4.256 -0.4017  1.5903 -1.4748
16876SOL    HW253167   0.350   0.071   4.190 -1.0302  0.2916  1.0867
16877SOL     OW53168   8.304   7.332   1.595 -0.6433  0.0194 -0.2950
16877SOL    HW153169   8.357   7.347   1.517 -0.0199 -0.9460 -0.0523
16877SOL    HW253170   8.327   7.405   1.653 -0.2249  0.0747 -0.5270
16878SOL     OW53171   7.336   4.619   0.647 -0.3970 -0.1617 -0.5513
16878SOL    HW153172   7.299   4.659   0.726  0.5258 -0.0429 -0.1737
16878SOL    HW253173   7.397   4.553   0.680  2.1167  1.7882 -1.1126
16879SOL     OW53174   6.010   0.830   0.295 -0.2627 -0.1754 -0.1777
16879SOL    HW153175   6.001   0.853   0.203 -0.1541  1.0856  0.1180
16879SOL    HW253176   6.023   0.913   0.340 -3.7612 -0.3948  1.4220
16880SOL     OW53177   5.852   0.439   3.386 -0.0613  0.0417  0.3299
16880SOL    HW153178   5.819   0.362   3.340 -0.6726  0.0722  0.7107
16880SOL    HW253179   5.820   0.429   3.476  1.1366 -0.0306  0.7611
16881SOL     OW53180   6.635   6.787   6.260  0.8478  0.1158 -0.2991
16881SOL    HW153181   6.657   6.819   6.172 -1.5191 -0.4725 -1.1224
16881SOL    HW253182   6.638   6.866   6.315  0.2369  0.8455 -1.3028
16882SOL     OW53183   7.138   2.771   4.717  0.3665  0.2319 -1.5309
16882SOL    HW153184   7.202   2.823   4.766 -1.3912  0.7928  0.2802
16882SOL    HW253185   7.163   2.681   4.733 -0.1235  0.4127  0.4128
16883SOL     OW53186   2.192   1.517   9.030 -0.5931  0.4502 -0.0982
16883SOL    HW153187   2.122   1.476   8.979 -0.3275 -1.4708  1.0453
16883SOL    HW253188   2.258   1.540   8.965 -1.5003  0.6436 -0.9718
16884SOL     OW53189   4.484   9.511   6.104 -0.2225  0.0147 -0.3272
16884SOL    HW153190   4.525   9.484   6.186 -0.5463  1.0122  0.1587
16884SOL    HW253191   4.420   9.442   6.085  1.6792 -1.6033 -1.1212
16885SOL     OW53192   7.529   9.564   2.501  0.7304 -0.0417 -0.0356
16885SOL    HW153193   7.505   9.472   2.515 -1.9762  1.0085  2.7132
16885SOL    HW253194   7.568   9.591   2.584  2.0758  1.1566 -1.0401
16886SOL     OW53195   9.528   3.159  10.012  0.4926 -0.0509  0.2718
16886SOL    HW153196   9.524   3.149  10.107 -1.6007  0.1315  0.2245
16886SOL    HW253197   9.546   3.252   9.998 -0.8939  0.2639  0.4898
16887SOL     OW53198   6.658   2.858   6.329  0.3108  0.3152  0.0092
16887SOL    HW153199   6.652   2.773   6.286  1.8404 -1.3688  2.9672
16887SOL    HW253200   6.571   2.897   6.316 -0.6219 -1.9622 -0.9027
16888SOL     OW53201   5.672   0.766   8.021  0.2048  0.2884  0.1908
16888SOL    HW153202   5.766   0.748   8.016 -0.0531 -0.9495 -0.3340
16888SOL    HW253203   5.634   0.723   7.944 -1.0409 -0.9484  1.4472
16889SOL     OW53204   1.377   1.676   6.534 -0.3429 -0.0210  0.0066
16889SOL    HW153205   1.430   1.599   6.512 -0.2395 -0.0222  0.2526
16889SOL    HW253206   1.441   1.741   6.564 -0.5623 -0.3630  1.2603
16890SOL     OW53207   3.619   0.902  10.058 -0.1315  0.7191 -0.0190
16890SOL    HW153208   3.575   0.860  10.132  0.2134 -0.4337 -0.4567
16890SOL    HW253209   3.548   0.941  10.007 -0.3054  2.4308  1.4422
16891SOL     OW53210   4.285   0.481   7.066 -0.4480  0.0387  0.1406
16891SOL    HW153211   4.236   0.450   7.142  0.1312  1.1043  0.9616
16891SOL    HW253212   4.347   0.545   7.101  0.6012 -0.2754 -1.0727
16892SOL     OW53213   7.706   3.332   5.609  0.1584  0.1509  0.0481
16892SOL    HW153214   7.758   3.401   5.649  1.2478 -0.4674 -0.2769
16892SOL    HW253215   7.615   3.359   5.622  0.5687  1.4030  0.3281
16893SOL     OW53216   2.615   3.533   1.269 -0.3946  0.2308 -0.0497
16893SOL    HW153217   2.672   3.458   1.287 -0.1712  0.3803 -0.1488
16893SOL    HW253218   2.606   3.534   1.174  1.5684  1.8156 -0.2226
16894SOL     OW53219   0.285   3.245   4.157  0.0602  0.5145 -0.2229
16894SOL    HW153220   0.249   3.315   4.102  0.7420  0.0532 -1.2672
16894SOL    HW253221   0.360   3.212   4.108 -0.5764 -1.3141  0.0261
16895SOL     OW53222   2.432   8.207   0.343 -0.1755  0.0476 -0.5214
16895SOL    HW153223   2.402   8.119   0.363  0.8700 -0.1942  0.0366
16895SOL    HW253224   2.397   8.226   0.256 -2.0413 -0.1520  0.1738
16896SOL     OW53225   7.705   1.657   8.586  0.3002  0.4180  0.4569
16896SOL    HW153226   7.787   1.611   8.604  0.5362  0.0008 -1.4893
16896SOL    HW253227   7.647   1.630   8.656  1.6208  0.1688  1.4840
16897SOL     OW53228   1.828   5.996   8.662  0.3989 -0.8198 -0.2205
16897SOL    HW153229   1.817   5.960   8.750 -1.6696 -1.6890 -0.7994
16897SOL    HW253230   1.743   6.035   8.642  1.8583  2.2499 -0.5775
16898SOL     OW53231   1.391   8.708   1.865  0.1903  0.6686  0.2201
16898SOL    HW153232   1.392   8.729   1.958 -1.6348  1.2358  0.1285
16898SOL    HW253233   1.432   8.622   1.859  1.2889  1.0902  1.4189
16899SOL     OW53234   8.963   9.529   2.854 -0.4463 -0.0872 -0.1643
16899SOL    HW153235   8.959   9.588   2.929  0.4820  1.7036 -1.4776
16899SOL    HW253236   9.049   9.486   2.861 -0.6841 -0.5019  0.2152
16900SOL     OW53237   5.922   2.555   0.677 -0.6305  0.0663  0.1243
16900SOL    HW153238   5.929   2.647   0.651  0.5150 -0.0634 -0.0536
16900SOL    HW253239   5.936   2.556   0.772  1.6095 -0.1679 -0.1995
16901SOL     OW53240   3.265   6.423   2.703 -0.2015  0.2404  0.1031
16901SOL    HW153241   3.306   6.377   2.776  0.5707  0.9437  0.1207
16901SOL    HW253242   3.269   6.360   2.630  0.2581  0.0376  0.3021
16902SOL     OW53243   9.786   6.316   7.370  0.4818  0.0463  0.1072
16902SOL    HW153244   9.824   6.328   7.283 -1.3601  0.3965 -0.6757
16902SOL    HW253245   9.730   6.239   7.361 -0.9575  1.0174  0.5443
16903SOL     OW53246  10.119   6.622   9.001  0.1649  0.1219  1.0688
16903SOL    HW153247  10.142   6.535   8.967 -1.4655  0.0812 -0.0012
16903SOL    HW253248  10.103   6.609   9.094  0.7590 -0.5646  1.0716
16904SOL     OW53249   6.880   1.654   8.266  0.1506 -0.2540  0.9414
16904SOL    HW153250   6.805   1.617   8.219 -0.2557  0.9601  0.6118
16904SOL    HW253251   6.946   1.585   8.264  0.1839 -0.1973 -1.5408
16905SOL     OW53252   0.326   9.649   2.935 -0.0203  0.6155  0.7921
16905SOL    HW153253   0.360   9.729   2.974 -0.7562  1.3785 -0.1006
16905SOL    HW253254   0.395   9.619   2.876  0.7664 -0.1066  2.0519
16906SOL     OW53255   5.160   1.006   3.544 -0.1500 -0.3229  0.0472
16906SOL    HW153256   5.176   0.952   3.622  0.2209 -1.0232 -0.5121
16906SOL    HW253257   5.065   1.010   3.538 -0.2120  1.3040  1.6177
16907SOL     OW53258   7.465   3.406   6.492  0.1148  0.4444  0.2984
16907SOL    HW153259   7.436   3.436   6.579  1.3672 -0.2268  0.9581
16907SOL    HW253260   7.407   3.333   6.471  0.2324  0.1818  0.8718
16908SOL     OW53261   9.691   0.621   3.730 -0.0909 -0.7192 -0.1280
16908SOL    HW153262   9.615   0.565   3.743  0.5675 -1.7757 -0.7291
16908SOL    HW253263   9.757   0.563   3.691  0.2783  0.6970 -1.6662
16909SOL     OW53264   5.467   8.559  10.161 -0.0238  0.7846  0.0271
16909SOL    HW153265   5.373   8.556  10.144 -0.0523  0.7173  0.1982
16909SOL    HW253266   5.507   8.561  10.074 -0.1288 -0.9762 -0.0840
16910SOL     OW53267   6.364   1.702   3.206  0.2125 -0.7154  0.2943
16910SOL    HW153268   6.336   1.677   3.118 -3.1383 -0.0045  1.0769
16910SOL    HW253269   6.396   1.791   3.197  1.4360 -1.2225 -0.4772
16911SOL     OW53270   9.361   3.908   8.938  0.0469  0.4244 -0.6510
16911SOL    HW153271   9.337   3.849   8.866 -1.2377 -0.6607  0.6270
16911SOL    HW253272   9.290   3.972   8.941 -1.7761 -1.5967  1.8394
16912SOL     OW53273   4.837   6.679   0.415  0.1728  0.5119 -1.0291
16912SOL    HW153274   4.838   6.652   0.323 -0.8640 -0.9022 -0.6475
16912SOL    HW253275   4.820   6.773   0.412  1.3744  0.7061 -2.3150
16913SOL     OW53276   9.128   4.156   0.895 -0.2366 -0.2497 -0.0423
16913SOL    HW153277   9.223   4.145   0.905 -0.2548 -0.3574  0.0018
16913SOL    HW253278   9.099   4.189   0.980 -0.0657  0.9119 -0.4163
16914SOL     OW53279   0.491   8.313   9.911  0.1438 -0.0591  0.1925
16914SOL    HW153280   0.443   8.232   9.896  2.0420 -0.9524 -1.3353
16914SOL    HW253281   0.490   8.324  10.006  0.8743 -2.5278  0.5216
16915SOL     OW53282   0.383   4.851  10.123  0.3532  0.1475  0.1783
16915SOL    HW153283   0.292   4.841  10.096  0.9108  0.2876 -1.8938
16915SOL    HW253284   0.414   4.928  10.074  1.2151  0.8971  1.8576
16916SOL     OW53285   6.045   9.855   0.465  0.2136  0.3539 -0.1404
16916SOL    HW153286   6.060   9.928   0.525 -0.6185  0.5155 -0.1215
16916SOL    HW253287   6.112   9.791   0.488  0.6533  0.9123  0.1614
16917SOL     OW53288   0.013   9.805   3.978 -0.3307  0.4340  0.0656
16917SOL    HW153289  -0.031   9.858   3.911  0.0349  0.0266 -0.4950
16917SOL    HW253290  -0.057   9.783   4.040 -1.0836 -0.7894 -1.1808
16918SOL     OW53291   4.908   0.645   9.798  0.8685 -0.1750  0.4281
16918SOL    HW153292   4.891   0.672   9.707  1.6737 -1.9676 -0.2737
16918SOL    HW253293   4.845   0.574   9.813 -0.4929  1.2994  1.8960
16919SOL     OW53294   1.422   8.206   6.283 -0.2922 -0.2546 -0.2579
16919SOL    HW153295   1.426   8.213   6.188 -1.8703  0.8560 -0.2579
16919SOL    HW253296   1.331   8.185   6.303 -0.8769  3.1569  1.1618
16920SOL     OW53297   3.698   6.662   7.641 -0.2677 -0.1611  0.0169
16920SOL    HW153298   3.701   6.567   7.633 -0.9638 -0.2154  0.3746
16920SOL    HW253299   3.760   6.694   7.575 -0.8453 -0.8250 -0.8549
16921SOL     OW53300   7.220   6.486   7.456  0.0292  0.8574 -0.5225
16921SOL    HW153301   7.224   6.550   7.384 -2.4767  0.5476 -0.9849
16921SOL    HW253302   7.133   6.498   7.494  0.7257 -0.0998  1.4516
16922SOL     OW53303   6.958   2.250   1.959 -0.4676  0.2220 -0.0247
16922SOL    HW153304   6.939   2.339   1.987 -2.6025 -0.1904 -0.0900
16922SOL    HW253305   7.043   2.230   1.999  0.2152  2.3911 -0.3175
16923SOL     OW53306   1.672   9.732   3.550  0.5686 -0.4788 -0.3582
16923SOL    HW153307   1.652   9.647   3.590  1.8516  0.1689  1.7516
16923SOL    HW253308   1.762   9.723   3.520  1.1356  0.5177  0.9995
16924SOL     OW53309   2.305   8.257   1.520 -0.4604  0.4538 -0.1543
16924SOL    HW153310   2.279   8.338   1.564 -1.7492  0.7758 -1.4833
16924SOL    HW253311   2.271   8.188   1.576  2.9214  0.7191  2.4023
16925SOL     OW53312   6.925   7.818   4.017 -0.2818  0.4723 -0.3053
16925SOL    HW153313   6.835   7.844   3.994 -0.5825  0.2634  0.5827
16925SOL    HW253314   6.914   7.736   4.065  0.6432 -1.2138 -2.8960
16926SOL     OW53315   5.958   9.389   7.211  0.0375 -0.2469 -0.0079
16926SOL    HW153316   6.041   9.354   7.180 -0.1849  0.2580 -1.2052
16926SOL    HW253317   5.982   9.455   7.276  0.4901 -1.7417  1.3758
16927SOL     OW53318   5.950   5.854   1.444  0.8727 -0.6274 -0.8034
16927SOL    HW153319   5.972   5.808   1.525 -0.4111 -1.6129 -1.0037
16927SOL    HW253320   5.984   5.797   1.375 -3.1637 -2.7823 -1.1794
16928SOL     OW53321   8.013  10.103   5.752 -0.0199 -0.1755 -0.1319
16928SOL    HW153322   7.964  10.056   5.685 -0.1839  1.3611 -1.1360
16928SOL    HW253323   8.102  10.070   5.745 -0.0691 -0.1244 -1.0347
16929SOL     OW53324   9.966   5.754   0.043 -0.0448 -0.2324 -0.2093
16929SOL    HW153325  10.038   5.749  -0.020 -0.1707  0.1464 -0.3814
16929SOL    HW253326   9.896   5.702   0.003  0.4370 -1.3485  0.3686
16930SOL     OW53327   5.531   9.119   4.207 -0.6606 -0.0565  0.2714
16930SOL    HW153328   5.468   9.127   4.135 -1.9220  0.3798  1.3960
16930SOL    HW253329   5.557   9.027   4.205 -2.3697 -0.5743  0.6249
16931SOL     OW53330   0.006   5.525   0.824  0.0236 -0.2039 -0.1366
16931SOL    HW153331   0.054   5.606   0.807  0.2304 -0.4627 -0.7964
16931SOL    HW253332  -0.073   5.532   0.770 -0.2567 -0.1690  0.2742
16932SOL     OW53333   9.715   5.171   6.137  0.2954  0.4283  0.1256
16932SOL    HW153334   9.641   5.196   6.193  0.8419  1.1102  0.5489
16932SOL    HW253335   9.762   5.104   6.186 -0.9154 -1.1627 -0.8179
16933SOL     OW53336   9.257   1.165   0.307 -0.3088 -0.3078 -0.2870
16933SOL    HW153337   9.188   1.157   0.241 -0.6542 -0.6384  0.1082
16933SOL    HW253338   9.296   1.078   0.311  1.4599  0.3814 -1.9348
16934SOL     OW53339   1.741   7.967   5.120  0.1833  0.9962 -0.1100
16934SOL    HW153340   1.722   8.061   5.123 -0.9631  0.7540  0.7388
16934SOL    HW253341   1.714   7.934   5.206 -2.0942 -0.5839 -1.3815
16935SOL     OW53342   7.728   2.516   8.939  0.6888  0.1937  0.5814
16935SOL    HW153343   7.658   2.544   8.998  1.3955  0.9082  1.0926
16935SOL    HW253344   7.699   2.544   8.852  0.5054  0.8118  0.8389
16936SOL     OW53345   7.039   3.582   4.607 -0.6736 -0.2446 -0.0435
16936SOL    HW153346   7.134   3.568   4.609 -0.4708  1.1053  0.2105
16936SOL    HW253347   7.003   3.497   4.579  0.5936 -0.7971 -0.0436
16937SOL     OW53348   7.389   3.771   2.864  0.3327 -0.4013  0.1231
16937SOL    HW153349   7.389   3.853   2.814 -1.0347  0.0009  0.7581
16937SOL    HW253350   7.370   3.703   2.799  2.6554 -0.3869 -0.6293
16938SOL     OW53351   3.001   9.409   0.788  0.1050  0.0113  0.0417
16938SOL    HW153352   2.972   9.489   0.831 -0.2345  0.0867 -0.3308
16938SOL    HW253353   3.069   9.436   0.728  0.4084 -0.0623  0.3518
16939SOL     OW53354   1.472   6.931   8.972 -0.2546 -0.3218 -0.2091
16939SOL    HW153355   1.413   6.860   8.945  0.3902 -1.8061  2.1659
16939SOL    HW253356   1.457   7.000   8.908 -0.2254 -2.9515 -3.2009
16940SOL     OW53357   2.819   6.246   4.866  0.4786 -0.0638  0.1075
16940SOL    HW153358   2.900   6.290   4.840 -0.1321  0.0307 -1.6961
16940SOL    HW253359   2.849   6.166   4.910  1.5540 -0.1331 -0.7328
16941SOL     OW53360   8.758   1.438   7.355 -0.4764 -0.0093  0.1058
16941SOL    HW153361   8.720   1.470   7.273  0.0404 -0.3114 -0.2521
16941SOL    HW253362   8.721   1.496   7.422 -0.4388  0.6170 -0.4080
16942SOL     OW53363   6.404   4.681   1.676 -0.1662  0.4241 -0.0522
16942SOL    HW153364   6.409   4.725   1.591  0.0412  1.9910  0.7503
16942SOL    HW253365   6.366   4.596   1.657 -0.1154  0.7660 -1.7204
16943SOL     OW53366   2.460   2.401   8.338 -0.0312  0.2317 -0.0846
16943SOL    HW153367   2.504   2.471   8.386  2.0185 -2.9248  2.9092
16943SOL    HW253368   2.371   2.402   8.372  0.6871 -0.2348  1.9290
16944SOL     OW53369   7.787   9.858   8.520  0.3386 -0.2018  0.2535
16944SOL    HW153370   7.830   9.944   8.518 -1.0030  0.4604 -1.0725
16944SOL    HW253371   7.703   9.872   8.477  0.7063 -2.5270 -1.3031
16945SOL     OW53372   0.415   5.440   3.271 -0.0167 -0.2634 -0.5224
16945SOL    HW153373   0.489   5.390   3.303 -1.8342 -2.2445  0.7135
16945SOL    HW253374   0.375   5.478   3.350 -0.4024  0.6913 -1.1594
16946SOL     OW53375   5.158   8.023   2.604  0.1733  1.4986 -0.2724
16946SOL    HW153376   5.236   7.974   2.577 -0.7356  1.1004 -2.1980
16946SOL    HW253377   5.109   7.962   2.659 -0.0419  0.8991 -1.1414
16947SOL     OW53378   2.031   5.246   4.738  0.2430  0.4063  0.1057
16947SOL    HW153379   2.102   5.232   4.801  0.4281 -2.2978 -0.6243
16947SOL    HW253380   2.066   5.215   4.655 -1.1875  0.7009 -0.6163
16948SOL     OW53381   1.880   6.882   3.299 -0.1002 -0.1587  0.1936
16948SOL    HW153382   1.957   6.898   3.243  0.8559 -0.6854  1.3417
16948SOL    HW253383   1.812   6.854   3.238  0.7373 -0.0659 -0.8001
16949SOL     OW53384   9.687   7.244   9.097 -0.4139  0.1695  0.1181
16949SOL    HW153385   9.739   7.183   9.149  0.4243 -0.4196 -1.3970
16949SOL    HW253386   9.742   7.265   9.022 -2.2875 -0.3366 -1.4344
16950SOL     OW53387   1.793   0.153   7.406 -0.1595 -0.0459  0.2980
16950SOL    HW153388   1.795   0.236   7.453 -0.0681 -0.2358  0.6317
16950SOL    HW253389   1.858   0.163   7.336 -2.1332  1.1737 -1.3892
16951SOL     OW53390   3.716   4.736   8.596  0.0415 -0.3695  0.2969
16951SOL    HW153391   3.707   4.788   8.676  0.2626  0.8870 -0.4882
16951SOL    HW253392   3.809   4.719   8.588  0.2839  1.4600 -0.9146
16952SOL     OW53393   3.581   0.159   1.624  0.4677  0.8321 -1.3264
16952SOL    HW153394   3.531   0.158   1.542  0.3539  2.4830 -1.2938
16952SOL    HW253395   3.625   0.245   1.625  1.1099  0.5077 -0.0457
16953SOL     OW53396   2.466   3.762   4.311  0.1623 -0.0352 -0.0743
16953SOL    HW153397   2.547   3.808   4.334  0.7885  0.0345 -2.3569
16953SOL    HW253398   2.400   3.832   4.308  0.8077  0.5405 -1.9903
16954SOL     OW53399   4.134   1.715   5.110  0.2040 -0.2585 -0.1484
16954SOL    HW153400   4.212   1.685   5.064  1.0387 -0.5058  1.3818
16954SOL    HW253401   4.168   1.771   5.180 -1.0200  0.0170  0.2354
16955SOL     OW53402   5.804   6.445   7.150  0.1592 -0.0247 -0.6394
16955SOL    HW153403   5.876   6.501   7.179 -0.1223  0.8041 -1.5310
16955SOL    HW253404   5.772   6.403   7.230  1.2984 -0.0094 -0.1679
16956SOL     OW53405   0.073   4.975   2.465 -0.2730  0.3037 -0.0462
16956SOL    HW153406   0.136   5.010   2.527 -1.0959 -0.0206  0.9996
16956SOL    HW253407   0.076   4.880   2.478 -0.7747  0.2668 -0.1663
16957SOL     OW53408   8.254   7.536   9.247  0.0869 -0.5541  0.5632
16957SOL    HW153409   8.175   7.522   9.300 -0.6980 -1.9933 -0.9449
16957SOL    HW253410   8.222   7.554   9.159  1.4040  1.1611  0.4083
16958SOL     OW53411   3.002   5.091   4.849 -0.1303  0.1934  0.1826
16958SOL    HW153412   3.007   5.163   4.911 -1.6650 -0.9618  1.7017
16958SOL    HW253413   3.093   5.064   4.836  0.1302 -0.5493  3.1884
16959SOL     OW53414   0.724   3.829   9.435  0.4459  0.0134  0.2840
16959SOL    HW153415   0.749   3.750   9.387 -0.2821  0.6339 -1.1706
16959SOL    HW253416   0.645   3.805   9.483 -0.5024  0.2010 -1.1591
16960SOL     OW53417   5.069   3.630   0.089  0.2355 -0.2899  0.0195
16960SOL    HW153418   5.125   3.553   0.102  0.8345  0.3051  1.1031
16960SOL    HW253419   5.053   3.663   0.178 -1.5090 -0.2047 -0.3150
16961SOL     OW53420   1.950   5.076   1.110  0.0355 -0.3811  0.3953
16961SOL    HW153421   1.964   5.159   1.155 -3.4419 -0.8098  2.4373
16961SOL    HW253422   2.016   5.016   1.147  3.2333  1.5885 -1.8129
16962SOL     OW53423   9.807   7.256   8.858  0.0055  0.3172 -0.8012
16962SOL    HW153424   9.825   7.221   8.771 -0.3493 -0.9479 -0.3842
16962SOL    HW253425   9.888   7.241   8.907  0.1514  0.8913 -0.8643
16963SOL     OW53426   0.384   0.463   1.840 -0.2288 -0.3525  0.2427
16963SOL    HW153427   0.458   0.467   1.900 -0.1867 -1.5095  0.2907
16963SOL    HW253428   0.310   0.438   1.896 -0.8650  1.7387  0.3682
16964SOL     OW53429   1.452   9.409   5.529  0.1788 -0.1768  0.8778
16964SOL    HW153430   1.442   9.450   5.444  0.4901 -1.2173  0.3290
16964SOL    HW253431   1.363   9.383   5.554 -0.0777  1.2073  1.4268
16965SOL     OW53432   3.970   1.446   2.493  0.4193  0.2474 -0.0539
16965SOL    HW153433   3.990   1.515   2.430  1.6865 -0.8722 -0.9009
16965SOL    HW253434   4.056   1.417   2.524 -0.1099 -0.8151  0.4304
16966SOL     OW53435   1.738   6.747   7.469 -0.2926 -0.1488  0.3721
16966SOL    HW153436   1.708   6.661   7.498 -0.3921  0.1276  1.1106
16966SOL    HW253437   1.802   6.729   7.401 -0.6156 -0.8006  0.2393
16967SOL     OW53438   0.138   1.673   9.169 -0.5587 -0.5470  0.0351
16967SOL    HW153439   0.180   1.672   9.083 -0.3720  1.4391  0.0820
16967SOL    HW253440   0.191   1.734   9.221 -1.7243 -0.3317  1.0056
16968SOL     OW53441   9.119   0.393   6.623  0.2880 -0.0580 -0.0530
16968SOL    HW153442   9.174   0.436   6.557  1.0835  0.3578  0.8560
16968SOL    HW253443   9.051   0.349   6.573 -1.2202  3.1689 -0.9834
16969SOL     OW53444   9.475   0.234   2.636 -0.2553 -0.1717 -0.0196
16969SOL    HW153445   9.494   0.213   2.545  0.1259  0.0821  0.0000
16969SOL    HW253446   9.541   0.300   2.660 -0.2764 -0.3232  0.4706
16970SOL     OW53447   2.620   4.745   8.873 -0.1373 -0.1747 -0.2761
16970SOL    HW153448   2.653   4.658   8.897  0.6015  0.5442  1.3462
16970SOL    HW253449   2.540   4.755   8.925 -0.6441 -0.1850 -1.0403
16971SOL     OW53450   7.196   5.990   7.885  0.4918  0.2829  0.7780
16971SOL    HW153451   7.283   5.960   7.862 -0.6723 -2.8440  0.2438
16971SOL    HW253452   7.137   5.928   7.842 -2.0282  2.8471  0.4007
16972SOL     OW53453   3.046   6.521   3.539  0.1889 -0.5035  0.0513
16972SOL    HW153454   3.053   6.437   3.494  0.2462 -1.2998  1.5266
16972SOL    HW253455   2.952   6.530   3.558  0.4650 -1.3930  2.0125
16973SOL     OW53456   3.768   0.373   8.441  0.0468  0.1444 -0.0497
16973SOL    HW153457   3.727   0.451   8.405 -0.2313  0.7444  1.5499
16973SOL    HW253458   3.699   0.332   8.493  0.7348 -0.1895  0.6001
16974SOL     OW53459   7.503   0.140   7.226 -0.3279 -0.3122 -0.6136
16974SOL    HW153460   7.564   0.186   7.284 -0.5994 -0.1689 -0.4439
16974SOL    HW253461   7.543   0.053   7.214 -1.1186 -0.9349  1.1486
16975SOL     OW53462   7.955   1.053   9.930 -0.3891  0.2447 -0.3000
16975SOL    HW153463   7.886   1.095   9.982  1.6545 -2.0672  4.6498
16975SOL    HW253464   7.917   0.969   9.903 -0.2697 -0.0662  0.4940
16976SOL     OW53465   6.357   9.671   4.781 -0.3841  0.7324  0.4976
16976SOL    HW153466   6.311   9.670   4.865 -0.0175 -1.2910  0.6990
16976SOL    HW253467   6.363   9.579   4.756 -0.2918  1.2962 -1.6498
16977SOL     OW53468   9.310   2.785   3.959 -0.3803 -0.4012  0.5019
16977SOL    HW153469   9.246   2.777   3.888 -0.0240 -0.7343  0.2169
16977SOL    HW253470   9.257   2.792   4.038 -0.7471 -2.3459  0.4374
16978SOL     OW53471   4.257   4.731   4.474  0.0721  0.9643 -0.5975
16978SOL    HW153472   4.321   4.743   4.404  0.5639  1.5256 -0.0556
16978SOL    HW253473   4.291   4.783   4.547 -0.6438  0.7077 -0.0756
16979SOL     OW53474   6.298   8.916   5.565  0.7318 -0.2450  0.4469
16979SOL    HW153475   6.304   8.825   5.594  0.6218 -0.2981  0.3075
16979SOL    HW253476   6.348   8.965   5.630 -0.4336 -0.2294  1.3578
16980SOL     OW53477   7.946   4.502   8.632  0.4232  0.1677 -0.2761
16980SOL    HW153478   8.018   4.510   8.569  0.0063  1.6589 -0.5904
16980SOL    HW253479   7.984   4.455   8.706  2.1059  2.0415  0.0952
16981SOL     OW53480   0.074   9.494   7.570  0.3401 -0.4551  0.1911
16981SOL    HW153481   0.080   9.590   7.571  2.0991 -0.5416 -1.4369
16981SOL    HW253482   0.015   9.474   7.643 -2.3350  2.0084 -1.1658
16982SOL     OW53483   0.377   1.832   3.048 -0.3587 -0.1878  0.4187
16982SOL    HW153484   0.310   1.869   3.105 -1.6435 -1.6488 -0.1045
16982SOL    HW253485   0.411   1.907   2.999 -0.8949  0.7164  1.4100
16983SOL     OW53486   9.776   1.844   9.126  0.2075  0.1623  0.1240
16983SOL    HW153487   9.688   1.818   9.154 -1.2271  0.9422 -3.3872
16983SOL    HW253488   9.824   1.859   9.207 -2.4074 -1.8693  2.1333
16984SOL     OW53489   5.126   2.254   5.236  0.3559 -0.3525  0.0922
16984SOL    HW153490   5.144   2.325   5.173  0.6583  0.1491  0.7403
16984SOL    HW253491   5.194   2.264   5.303 -0.5496 -0.2956  1.0063
16985SOL     OW53492   1.090   5.537   7.365 -0.2753 -1.0580 -0.7205
16985SOL    HW153493   1.106   5.498   7.451 -0.7486 -0.0721 -0.1744
16985SOL    HW253494   0.994   5.544   7.360 -0.1177  3.5812  0.8458
16986SOL     OW53495   3.167   9.372   5.763  0.1269 -0.6842  0.2650
16986SOL    HW153496   3.211   9.292   5.790 -0.9989 -0.2908  3.4543
16986SOL    HW253497   3.188   9.436   5.831  1.0160  1.7872 -2.2292
16987SOL     OW53498   0.439   0.840   1.473 -0.0747 -0.2273 -0.3560
16987SOL    HW153499   0.354   0.879   1.490  0.6823  2.0859 -1.7010
16987SOL    HW253500   0.451   0.776   1.543 -3.2342 -1.1451 -0.5918
16988SOL     OW53501   5.126   7.905   6.427  0.1727 -0.2118  0.5155
16988SOL    HW153502   5.113   7.929   6.335  0.3136  0.3441  0.6435
16988SOL    HW253503   5.182   7.828   6.424 -0.4132 -0.6275  0.0998
16989SOL     OW53504   7.418   6.074   4.799  0.1319 -0.6103 -0.2784
16989SOL    HW153505   7.488   6.064   4.734  0.1120 -1.2566 -0.2044
16989SOL    HW253506   7.377   5.988   4.804  1.4884 -1.1674  2.1066
16990SOL     OW53507   6.950   7.311   7.110 -0.2428  0.0549 -0.5123
16990SOL    HW153508   7.025   7.367   7.090 -0.8663  0.4576 -1.7550
16990SOL    HW253509   6.912   7.349   7.189  0.1221  0.5942 -0.5969
16991SOL     OW53510   9.623   2.596  10.047 -0.3709 -0.2602  0.2907
16991SOL    HW153511   9.642   2.620  10.138  0.6885  0.0248 -0.0054
16991SOL    HW253512   9.650   2.671   9.995 -0.9039 -0.4492 -0.2800
16992SOL     OW53513   4.023   8.472   3.788 -0.2587 -0.2982 -0.0494
16992SOL    HW153514   4.105   8.460   3.835 -1.3764 -0.7789  1.8453
16992SOL    HW253515   4.045   8.531   3.716  1.8070 -0.6942  0.2216
16993SOL     OW53516   6.784   0.208   5.309  0.1751  0.4385  0.0372
16993SOL    HW153517   6.835   0.286   5.326  0.5209  0.3680 -0.6487
16993SOL    HW253518   6.702   0.240   5.272  0.0203  0.5136  0.4449
16994SOL     OW53519   4.210   8.204   0.031 -0.2535  0.2162  0.5910
16994SOL    HW153520   4.246   8.161  -0.047 -0.3564 -4.0775  2.7318
16994SOL    HW253521   4.285   8.210   0.091 -0.0830  3.8341  0.1161
16995SOL     OW53522   5.518   0.943   1.621 -0.2818  0.4282  0.0158
16995SOL    HW153523   5.447   0.952   1.557  0.8232 -0.9122 -1.4153
16995SOL    HW253524   5.527   1.031   1.659 -1.7143  0.9627 -0.8187
16996SOL     OW53525   7.436   9.817   0.852 -0.4255  0.5955 -0.1752
16996SOL    HW153526   7.451   9.724   0.870 -0.0903  0.6177 -0.3297
16996SOL    HW253527   7.343   9.830   0.867 -0.0884  0.7124  2.0205
16997SOL     OW53528   1.955   3.855   0.977 -0.0479 -0.3222  0.0610
16997SOL    HW153529   1.966   3.922   1.045  1.4283  0.0857 -0.5787
16997SOL    HW253530   1.893   3.792   1.016 -0.4187  0.7059  1.1787
16998SOL     OW53531   4.629   7.302   2.956  0.2282  0.2239 -0.3538
16998SOL    HW153532   4.595   7.336   3.039 -0.8192  0.7531 -0.9967
16998SOL    HW253533   4.584   7.352   2.889  1.4606  0.1633 -1.2480
16999SOL     OW53534   0.647   0.939   0.854  0.6666 -0.3877  0.1870
16999SOL    HW153535   0.645   0.968   0.945  0.0503  1.8242 -0.4922
16999SOL    HW253536   0.567   0.975   0.816  1.9750  0.5704 -1.7447
17000SOL     OW53537   8.238   9.667   5.613 -0.1733  0.1847 -0.5788
17000SOL    HW153538   8.271   9.712   5.690  1.6560  1.2646 -1.9306
17000SOL    HW253539   8.165   9.614   5.644  1.2468 -0.2637  2.0714
17001SOL     OW53540   3.934   9.897   5.666  0.2736 -0.3245 -0.1700
17001SOL    HW153541   3.993   9.831   5.703  0.9034 -0.4483 -1.3539
17001SOL    HW253542   3.983   9.979   5.674  0.3892 -0.3429 -0.6537
17002SOL     OW53543   3.233   6.831   0.746 -0.2792 -0.4677 -0.4125
17002SOL    HW153544   3.224   6.920   0.780  2.9314  0.0999 -0.9573
17002SOL    HW253545   3.262   6.779   0.822 -1.6362 -0.9754 -0.2234
17003SOL     OW53546   8.322   8.543   5.108  0.7665 -0.4304  0.6230
17003SOL    HW153547   8.331   8.508   5.019  0.4021 -2.0245  1.1946
17003SOL    HW253548   8.362   8.630   5.104  1.6812 -0.9049 -0.8342
17004SOL     OW53549   2.354   4.275   2.018 -0.2198 -0.2612 -0.3127
17004SOL    HW153550   2.335   4.342   1.952  1.4534 -0.2366 -0.7981
17004SOL    HW253551   2.268   4.245   2.047 -0.9876  1.1542 -1.0463
17005SOL     OW53552   5.541   5.285   7.042 -0.1101  0.0773  1.0214
17005SOL    HW153553   5.537   5.375   7.075  0.7846  0.3760  0.3158
17005SOL    HW253554   5.526   5.293   6.948  0.2407 -0.4869  0.9188
17006SOL     OW53555   3.061   0.462   6.302 -0.3060  0.4240  0.5319
17006SOL    HW153556   3.068   0.556   6.292 -1.8168  0.4758 -0.0881
17006SOL    HW253557   2.975   0.448   6.342 -1.0444 -0.8244 -1.4349
17007SOL     OW53558   1.444   1.274   7.663  0.0054 -0.4042  0.3914
17007SOL    HW153559   1.409   1.341   7.722 -0.5409 -0.9651  0.7216
17007SOL    HW253560   1.506   1.321   7.607 -1.8104  0.7751 -0.6849
17008SOL     OW53561   4.328   1.062   6.774  0.6301 -0.2284 -0.7051
17008SOL    HW153562   4.420   1.052   6.748  0.1478 -1.7933 -1.8576
17008SOL    HW253563   4.284   1.091   6.694  0.2123  1.0544 -0.0108
17009SOL     OW53564   0.940   2.491   9.508  0.1044 -0.2434 -0.1130
17009SOL    HW153565   0.969   2.552   9.576 -0.2581  1.1936 -1.2164
17009SOL    HW253566   0.847   2.512   9.496  0.1292 -0.6043 -0.9238
17010SOL     OW53567   6.298   6.112   0.425  0.3399 -0.1253  0.1021
17010SOL    HW153568   6.243   6.176   0.380  0.8730  1.0938  1.1440
17010SOL    HW253569   6.335   6.160   0.499  0.6754 -1.6692  0.9677
17011SOL     OW53570   8.968   6.167   7.724  1.0998  0.6521 -0.3879
17011SOL    HW153571   8.993   6.214   7.803 -0.4383  0.1551  0.4116
17011SOL    HW253572   8.883   6.205   7.699  0.3807 -0.9080 -0.3624
17012SOL     OW53573   0.760   9.985   8.359  0.3597 -0.1265  0.0018
17012SOL    HW153574   0.827   9.966   8.294 -0.4512  1.1796 -1.2434
17012SOL    HW253575   0.748   9.903   8.407  2.1007 -0.6389 -0.4408
17013SOL     OW53576   1.380   2.100   3.328 -0.0901 -0.4484 -0.1146
17013SOL    HW153577   1.340   2.110   3.242 -0.6185 -1.0240  0.0638
17013SOL    HW253578   1.389   2.005   3.340  3.0008 -0.3119 -0.9386
17014SOL     OW53579  10.034   4.598   3.799  0.0433 -0.2766 -0.4748
17014SOL    HW153580   9.981   4.622   3.723  0.6922 -0.6190 -1.0418
17014SOL    HW253581  10.095   4.671   3.810  2.0171 -1.5922 -2.1993
17015SOL     OW53582   4.008   2.412   6.290 -0.4267  0.1676 -0.3802
17015SOL    HW153583   3.967   2.326   6.287  0.7686 -0.4484  0.6186
17015SOL    HW253584   4.101   2.394   6.299  0.0612  1.5521 -2.3451
17016SOL     OW53585   7.889   8.816   9.280 -0.3783  0.1144 -0.4199
17016SOL    HW153586   7.962   8.859   9.235  0.4045  0.7511  1.3808
17016SOL    HW253587   7.889   8.727   9.246  2.3259 -0.3965  0.7061
17017SOL     OW53588   0.297   4.426   6.326  0.4154 -0.1347 -0.7702
17017SOL    HW153589   0.334   4.443   6.239 -1.7399 -3.2549 -2.3501
17017SOL    HW253590   0.368   4.383   6.373  1.4603  1.2019 -1.0792
17018SOL     OW53591   1.128   3.098   7.691  0.5049  0.7316  0.7477
17018SOL    HW153592   1.213   3.054   7.692 -0.1906 -0.6342  0.9262
17018SOL    HW253593   1.147   3.188   7.662  1.7694 -0.0854 -1.0201
17019SOL     OW53594   4.108   6.689  10.132  0.5747  0.2372 -0.3064
17019SOL    HW153595   4.060   6.606  10.131 -0.1213  0.5205  3.4208
17019SOL    HW253596   4.069   6.740  10.062 -0.1572 -1.9354 -1.5485
17020SOL     OW53597   0.576   6.579   0.520  0.2528 -0.7481  0.2653
17020SOL    HW153598   0.672   6.581   0.510  0.2686 -3.2417 -0.4441
17020SOL    HW253599   0.562   6.548   0.610  0.1245 -1.0545  0.1410
17021SOL     OW53600   9.530   8.058   3.129  0.1489  0.1440 -0.4839
17021SOL    HW153601   9.570   7.981   3.090  0.7445  0.6197 -0.8292
17021SOL    HW253602   9.596   8.127   3.120 -0.6843  0.9070 -0.9266
17022SOL     OW53603   3.336   9.761   4.258  0.5803  0.5476  0.3376
17022SOL    HW153604   3.400   9.768   4.329  1.5078  0.0008 -0.4280
17022SOL    HW253605   3.266   9.821   4.283  2.2404  2.5456  0.3195
17023SOL     OW53606   7.445   2.766   4.555 -0.6984 -0.2482  0.7750
17023SOL    HW153607   7.384   2.787   4.484 -0.2765 -0.1145  0.4475
17023SOL    HW253608   7.420   2.678   4.583  0.0985 -0.9140 -0.5602
17024SOL     OW53609   6.259   9.075   0.455 -0.5447 -0.7209 -0.1575
17024SOL    HW153610   6.165   9.086   0.469 -0.5537 -2.2652  1.0708
17024SOL    HW253611   6.294   9.164   0.461 -2.0471 -0.0096 -1.6795
17025SOL     OW53612  10.070   2.445   4.678  0.5648 -0.3267 -0.0682
17025SOL    HW153613  10.021   2.491   4.610  2.2692 -3.0004 -3.2149
17025SOL    HW253614  10.152   2.494   4.687  0.5736 -0.2960 -0.3295
17026SOL     OW53615   4.038   4.474   4.703  0.5267  0.3446 -0.2821
17026SOL    HW153616   4.124   4.444   4.733  0.0725 -0.5166  0.1998
17026SOL    HW253617   3.997   4.512   4.781  0.8552  1.6885 -0.7470
17027SOL     OW53618   0.741   9.324   7.967 -0.3851 -0.1993 -0.1833
17027SOL    HW153619   0.827   9.291   7.992 -1.4750 -1.7858  1.5922
17027SOL    HW253620   0.705   9.363   8.047 -1.8293 -0.7187 -0.5602
17028SOL     OW53621   0.644   9.737   2.025 -0.0866 -0.0682  0.1415
17028SOL    HW153622   0.572   9.675   2.024 -1.0149  0.9924  0.4989
17028SOL    HW253623   0.713   9.695   1.973 -1.0208 -0.9883 -0.3632
17029SOL     OW53624   1.418   4.608   2.342  0.3265 -0.3236  0.5710
17029SOL    HW153625   1.467   4.663   2.281  1.4275 -0.0107  1.6898
17029SOL    HW253626   1.420   4.521   2.304  1.7906 -0.3140  0.5843
17030SOL     OW53627   6.614   3.296   9.009 -0.3276  0.2899  0.2975
17030SOL    HW153628   6.643   3.351   9.082  0.0524 -0.3761  0.6579
17030SOL    HW253629   6.685   3.301   8.945 -0.3185  0.2692  0.3052
17031SOL     OW53630   5.680   1.763   2.403 -0.2939  0.2837 -0.1437
17031SOL    HW153631   5.691   1.755   2.308  1.2640  2.0666 -0.1429
17031SOL    HW253632   5.665   1.857   2.417 -1.5684 -0.1198  1.2837
17032SOL     OW53633   5.868   8.083   8.051  0.1501 -0.0323 -0.3700
17032SOL    HW153634   5.828   8.116   7.970  0.1328 -2.1010 -1.2351
17032SOL    HW253635   5.798   8.085   8.116 -0.4195 -0.3901 -0.9712
17033SOL     OW53636   6.444   7.870   2.362 -0.0840 -0.4273  0.6133
17033SOL    HW153637   6.357   7.892   2.327  0.2960  0.3408  0.1368
17033SOL    HW253638   6.437   7.778   2.386 -0.9281 -0.4687  0.2543
17034SOL     OW53639   8.720   1.305   4.885  0.5332  0.2507 -0.1864
17034SOL    HW153640   8.687   1.354   4.810 -0.4876 -0.8819 -0.4910
17034SOL    HW253641   8.733   1.216   4.851 -0.1459 -0.3160  1.0397
17035SOL     OW53642   5.749   2.081   4.820 -0.2059 -0.4670 -0.1665
17035SOL    HW153643   5.733   2.128   4.902  0.1177 -0.7406  0.0542
17035SOL    HW253644   5.842   2.056   4.825  0.1791  0.7052 -1.2231
17036SOL     OW53645   6.044   0.146   2.571 -0.7642  0.2272 -0.2730
17036SOL    HW153646   6.073   0.145   2.662  0.6753  2.5225 -0.6617
17036SOL    HW253647   6.061   0.235   2.542  0.0004 -0.8101 -3.1723
17037SOL     OW53648   1.574   4.360   0.922 -0.0158 -0.4363 -0.0618
17037SOL    HW153649   1.530   4.293   0.870  2.8128 -0.8876 -1.9711
17037SOL    HW253650   1.551   4.443   0.878  2.2317 -0.8015 -1.9909
17038SOL     OW53651   7.408   1.182   5.362 -1.3712  0.2794  0.6801
17038SOL    HW153652   7.403   1.188   5.458 -0.0439 -2.0696  0.9485
17038SOL    HW253653   7.389   1.090   5.344  3.3178 -0.4949 -0.8836
17039SOL     OW53654   4.296   8.757   6.325 -0.6955 -0.1257  0.9492
17039SOL    HW153655   4.369   8.786   6.272 -0.4559  0.5443  1.6417
17039SOL    HW253656   4.223   8.747   6.263 -0.3097  0.2383  0.4357
17040SOL     OW53657   6.665   2.903   4.058 -0.0659  0.7420  0.2571
17040SOL    HW153658   6.593   2.849   4.090  0.0028  0.0998 -0.6526
17040SOL    HW253659   6.638   2.930   3.970  2.1077 -2.1222 -1.4006
17041SOL     OW53660   7.599   2.324   8.369  0.1417  0.3832  0.1102
17041SOL    HW153661   7.608   2.393   8.303  1.0852  0.3857  0.2305
17041SOL    HW253662   7.510   2.292   8.359  0.4136  0.0753 -1.4828
17042SOL     OW53663   0.214   3.763   4.471 -0.3731  0.3275 -0.4298
17042SOL    HW153664   0.292   3.809   4.500 -0.9187  0.7560  0.3905
17042SOL    HW253665   0.207   3.688   4.529 -0.7412  0.4635 -0.2953
17043SOL     OW53666   9.288   8.255   8.376 -0.3279  0.1660 -0.2091
17043SOL    HW153667   9.331   8.336   8.350  1.9445 -1.4182 -1.5260
17043SOL    HW253668   9.248   8.222   8.296  1.2610 -1.4979 -0.3301
17044SOL     OW53669   3.679   5.678   6.444 -0.1665  0.7501 -0.5021
17044SOL    HW153670   3.694   5.607   6.505 -0.5063 -0.1946 -1.5018
17044SOL    HW253671   3.740   5.747   6.472 -1.2598  0.8692  1.6915
17045SOL     OW53672   7.537   4.337   5.890  0.4748 -0.1523 -0.0690
17045SOL    HW153673   7.514   4.397   5.960  0.6568 -2.2039  1.8243
17045SOL    HW253674   7.483   4.363   5.815 -0.5675  1.3469  1.2005
17046SOL     OW53675   7.003   0.764   8.334  0.2277 -0.0265  0.0426
17046SOL    HW153676   6.957   0.846   8.349  1.2999  0.6908 -0.4830
17046SOL    HW253677   6.962   0.702   8.393  0.4088  1.2687  1.5708
17047SOL     OW53678   5.950   3.821   7.006  0.3027 -0.0710  0.0765
17047SOL    HW153679   5.977   3.730   7.021 -0.2477 -0.0604  1.2262
17047SOL    HW253680   6.016   3.873   7.052  1.1918  0.1702 -1.4289
17048SOL     OW53681   8.446   0.994   1.482  1.1312 -0.5877  0.3277
17048SOL    HW153682   8.504   1.068   1.496 -0.7103  0.7141  1.2985
17048SOL    HW253683   8.482   0.924   1.537 -0.8479  1.6774  4.7940
17049SOL     OW53684   7.073   4.003   9.843 -0.8161 -0.3456  0.2971
17049SOL    HW153685   7.027   3.971   9.766  2.2781  0.9556 -2.2162
17049SOL    HW253686   7.041   4.092   9.855  0.0781  0.1222 -0.6956
17050SOL     OW53687   3.713   8.588   5.575 -0.0960  0.3597  0.0542
17050SOL    HW153688   3.625   8.599   5.540  0.1332 -1.8584 -1.3047
17050SOL    HW253689   3.770   8.625   5.507  0.2525 -2.4019 -1.2073
17051SOL     OW53690   2.500   4.796   0.674 -0.4383  0.5237  0.1834
17051SOL    HW153691   2.489   4.816   0.582 -1.3715  2.6025  0.7160
17051SOL    HW253692   2.572   4.852   0.703  1.1159 -1.4658  0.3291
17052SOL     OW53693   6.885   4.269   5.291  0.8016  0.1638  0.3148
17052SOL    HW153694   6.845   4.342   5.340 -0.9791  0.6844 -1.7872
17052SOL    HW253695   6.817   4.201   5.291  1.4236 -0.4567 -0.0223
17053SOL     OW53696   8.980   5.126   0.816  0.0846 -0.5623  0.0140
17053SOL    HW153697   8.908   5.157   0.760  0.6311  0.1414 -0.3048
17053SOL    HW253698   8.936   5.079   0.887 -0.6020 -2.1727 -1.4259
17054SOL     OW53699   5.737   2.434   4.759 -0.6632  0.5142 -0.3830
17054SOL    HW153700   5.763   2.471   4.675 -0.2923 -0.2528 -0.6121
17054SOL    HW253701   5.758   2.501   4.824 -1.2139  1.2219 -0.9344
17055SOL     OW53702   6.615   5.298   6.216 -0.6580 -0.4066  0.7686
17055SOL    HW153703   6.535   5.245   6.217 -0.3428 -0.9325 -0.9570
17055SOL    HW253704   6.584   5.389   6.216 -1.2312 -0.6010  1.0362
17056SOL     OW53705   2.972   0.675   5.499 -0.5333 -0.3594  0.4363
17056SOL    HW153706   2.898   0.716   5.453 -1.0987 -3.4431 -1.5564
17056SOL    HW253707   3.026   0.749   5.527 -2.5053  1.8234 -1.2601
17057SOL     OW53708   0.309   7.109   5.583 -0.5361 -0.0470  0.0306
17057SOL    HW153709   0.308   7.127   5.489 -0.5408  0.0752  0.0543
17057SOL    HW253710   0.295   7.194   5.624  2.5677  0.4328  0.2117
17058SOL     OW53711   6.359   1.614   1.577  0.5464 -0.0731 -0.5313
17058SOL    HW153712   6.374   1.691   1.630 -0.5487 -0.3149  0.1443
17058SOL    HW253713   6.431   1.613   1.514 -0.1655  2.2160 -1.3993
17059SOL     OW53714   8.769   2.034   7.133 -0.1005  1.0219 -0.0429
17059SOL    HW153715   8.771   1.939   7.145 -0.5959  0.8974 -0.8979
17059SOL    HW253716   8.835   2.068   7.194  0.7032  0.0557 -0.3742
17060SOL     OW53717   7.780   7.231   8.510 -0.1353  0.4996  0.2171
17060SOL    HW153718   7.732   7.190   8.438 -0.0056 -1.0442  0.9871
17060SOL    HW253719   7.803   7.318   8.477 -2.1760  0.7172 -0.6918
17061SOL     OW53720   6.311   2.749   8.831  0.3115 -0.2092  0.8080
17061SOL    HW153721   6.231   2.735   8.882 -0.1771  0.0132  0.1173
17061SOL    HW253722   6.355   2.822   8.874 -0.1008 -0.0179  0.9068
17062SOL     OW53723   0.085   0.657   2.761 -0.2620  0.1007  0.3351
17062SOL    HW153724   0.091   0.570   2.721  0.5011  0.7083 -0.8856
17062SOL    HW253725   0.142   0.712   2.707  0.1696  1.1047  1.8025
17063SOL     OW53726   1.696   7.250   9.081  0.1624  0.2577 -0.9562
17063SOL    HW153727   1.603   7.270   9.086  0.3183  0.7716  0.1748
17063SOL    HW253728   1.729   7.268   9.169  0.4596 -4.3631  0.0053
17064SOL     OW53729   4.257   6.733   2.540  0.0405 -0.7339  0.0524
17064SOL    HW153730   4.304   6.762   2.618 -1.2346 -0.1123  0.6132
17064SOL    HW253731   4.215   6.813   2.507 -0.0364 -1.1436 -0.8321
17065SOL     OW53732   5.204   8.622   1.215 -0.1308 -0.2453  0.6003
17065SOL    HW153733   5.168   8.626   1.303 -0.3232 -0.5929  0.5372
17065SOL    HW253734   5.270   8.691   1.213 -0.3900  0.0127  0.8975
17066SOL     OW53735   5.383   2.338   1.105  0.3040  0.0581  0.2312
17066SOL    HW153736   5.343   2.257   1.135 -0.6163  0.5766  0.4370
17066SOL    HW253737   5.435   2.313   1.028  0.3577 -0.7851  0.5408
17067SOL     OW53738   4.025   8.047   0.951  0.4094  0.3556 -0.0790
17067SOL    HW153739   4.032   7.978   0.886 -1.7378 -0.3742  0.4135
17067SOL    HW253740   3.933   8.074   0.948  0.5803  1.2569  1.6953
17068SOL     OW53741   3.008   1.558   9.673 -0.5888  1.1128  0.1291
17068SOL    HW153742   3.044   1.485   9.621 -1.5551 -2.0933  3.6825
17068SOL    HW253743   2.915   1.560   9.650 -0.8957  0.0828  1.2122
17069SOL     OW53744   3.647  10.148   3.051 -0.8451  0.2345 -0.1817
17069SOL    HW153745   3.678  10.207   3.119  0.6277 -1.2644  0.5025
17069SOL    HW253746   3.684  10.182   2.970  0.2865  0.0640  0.2561
17070SOL     OW53747   2.234   5.038   4.568 -0.2293  0.0603 -0.6547
17070SOL    HW153748   2.183   5.105   4.522 -1.9946  0.4803  1.7816
17070SOL    HW253749   2.169   4.972   4.593  0.8782 -0.7447  0.1365
17071SOL     OW53750   9.972   4.145   8.542  0.0430 -0.3425 -0.2640
17071SOL    HW153751  10.068   4.148   8.541  0.0288  2.1611  1.0516
17071SOL    HW253752   9.947   4.172   8.453  0.5483 -0.4702 -0.4471
17072SOL     OW53753   7.142   3.969   8.752 -0.4805 -0.2477  0.5266
17072SOL    HW153754   7.189   4.031   8.697  0.6189 -1.2731  0.2996
17072SOL    HW253755   7.049   3.986   8.733 -0.2522  2.1050  1.3462
17073SOL     OW53756   4.844   9.157   9.032  0.1580  0.8028  0.2477
17073SOL    HW153757   4.807   9.075   8.998 -0.2569  0.6352  1.0842
17073SOL    HW253758   4.795   9.226   8.988  0.6788  0.6044 -0.6508
17074SOL     OW53759   5.754   1.117   3.038 -0.2657  0.3201 -0.2315
17074SOL    HW153760   5.771   1.073   3.122 -0.2355  0.4663 -0.1604
17074SOL    HW253761   5.767   1.049   2.972  1.9084  0.7596 -0.2685
17075SOL     OW53762   7.887   7.127   1.211 -0.5273 -0.3015 -0.6342
17075SOL    HW153763   7.925   7.109   1.297 -0.7029 -3.2718 -1.1210
17075SOL    HW253764   7.793   7.133   1.227 -0.4477  0.4764 -0.4328
17076SOL     OW53765   6.627   5.891   8.976 -0.2417 -0.2616  0.1063
17076SOL    HW153766   6.701   5.837   8.949  0.1230  0.6899 -0.8307
17076SOL    HW253767   6.620   5.877   9.071  0.4763 -1.1576  0.0325
17077SOL     OW53768   7.135   0.687   2.956  0.3458  0.2939 -0.0028
17077SOL    HW153769   7.172   0.606   2.989 -0.9410 -0.5183 -0.5005
17077SOL    HW253770   7.207   0.750   2.960  1.1402 -0.6624  1.1182
17078SOL     OW53771   8.702   9.351   7.208  0.2967 -0.2032 -0.2565
17078SOL    HW153772   8.618   9.348   7.162  1.0557  1.4338 -1.8082
17078SOL    HW253773   8.682   9.392   7.293 -1.1575 -3.4823  1.0697
17079SOL     OW53774   7.717   4.001   1.952 -0.5369  0.0565 -0.9528
17079SOL    HW153775   7.658   3.972   1.883  1.2288 -0.7776 -2.1685
17079SOL    HW253776   7.782   4.056   1.907  0.9098 -0.8806 -0.0567
17080SOL     OW53777   9.290   0.073   6.923 -0.3309 -0.5271 -0.0949
17080SOL    HW153778   9.329   0.103   7.005 -0.4784  1.9724 -0.9067
17080SOL    HW253779   9.201   0.047   6.946 -0.5019  0.5435  0.4970
17081SOL     OW53780   7.110   0.243   9.155  0.1607 -0.2383 -0.0437
17081SOL    HW153781   7.162   0.189   9.096 -1.4039 -0.5563 -1.1567
17081SOL    HW253782   7.172   0.272   9.222  2.2388  1.1062 -2.4688
17082SOL     OW53783   5.467   7.660   5.769 -0.4991 -0.3321  0.0219
17082SOL    HW153784   5.517   7.591   5.726 -0.4669 -0.4807  0.2926
17082SOL    HW253785   5.390   7.674   5.713 -0.4961 -0.5749 -0.0408
17083SOL     OW53786   5.891   4.635  10.106 -0.2142  0.1372 -0.3501
17083SOL    HW153787   5.827   4.599  10.168  0.2305 -0.3712 -0.1809
17083SOL    HW253788   5.889   4.575  10.032 -0.9928  0.9316 -0.9876
17084SOL     OW53789   2.877   1.214   7.896 -0.2606  0.2210  0.2690
17084SOL    HW153790   2.897   1.121   7.889 -0.2946  0.1409  1.1508
17084SOL    HW253791   2.821   1.220   7.974 -0.3777  0.9566  0.1309
17085SOL     OW53792   3.381   5.385   3.866 -0.2709  0.1222  0.6521
17085SOL    HW153793   3.457   5.439   3.887  1.1143 -0.0058 -3.5205
17085SOL    HW253794   3.418   5.298   3.851 -1.3284 -0.1351 -0.5596
17086SOL     OW53795   8.083   5.034   7.908 -0.1938  0.2441  0.3811
17086SOL    HW153796   8.011   5.016   7.968 -1.8297  0.4413 -1.4544
17086SOL    HW253797   8.079   4.963   7.844  0.6609  0.7602 -0.2616
17087SOL     OW53798   7.379   4.068   4.475 -0.2407 -0.0938  0.0384
17087SOL    HW153799   7.339   4.133   4.532  0.0800 -1.1939  1.5419
17087SOL    HW253800   7.361   4.100   4.386  1.2845  2.8505  0.7450
17088SOL     OW53801   0.613  10.167   8.848 -0.7968  0.3966 -0.1661
17088SOL    HW153802   0.612  10.135   8.757  0.0902 -0.4019  0.0976
17088SOL    HW253803   0.618  10.087   8.901 -1.1218  0.8702  0.5781
17089SOL     OW53804   9.738   5.259   5.395  0.6869 -0.3352 -0.1852
17089SOL    HW153805   9.821   5.244   5.440  0.8007  0.3132 -0.1839
17089SOL    HW253806   9.674   5.209   5.446  0.9720 -0.3588  0.1525
17090SOL     OW53807   4.666   6.593   3.767  0.1722  0.1014 -0.2061
17090SOL    HW153808   4.752   6.633   3.758  0.6446 -1.0244 -0.8352
17090SOL    HW253809   4.611   6.639   3.702  0.7953 -0.5051 -1.1717
17091SOL     OW53810   7.254   8.460   0.488  0.3205 -0.1697  0.1324
17091SOL    HW153811   7.228   8.541   0.444  0.5318 -0.2212 -0.0943
17091SOL    HW253812   7.178   8.402   0.480  0.2090 -0.0321  0.1979
17092SOL     OW53813   7.792   2.000   2.169  0.1468  0.1485  0.0027
17092SOL    HW153814   7.794   1.926   2.109 -0.2976 -0.0752  0.2544
17092SOL    HW253815   7.756   2.072   2.118  2.0423  0.6290 -0.7015
17093SOL     OW53816   5.864   1.278   3.476  0.0834 -0.1756  0.5193
17093SOL    HW153817   5.839   1.370   3.484  2.0545  0.7158 -2.7918
17093SOL    HW253818   5.934   1.266   3.540  0.7463  0.9812  0.0195
17094SOL     OW53819   0.413   0.267   4.429  0.4004  0.8439 -0.2724
17094SOL    HW153820   0.360   0.196   4.464 -0.5078  0.5839 -2.1302
17094SOL    HW253821   0.503   0.241   4.448  0.1684 -1.5036 -2.1982
17095SOL     OW53822   4.501   0.818   2.418 -0.3697 -0.6372  0.3140
17095SOL    HW153823   4.432   0.802   2.482 -1.3135  0.2621 -0.4630
17095SOL    HW253824   4.512   0.733   2.374 -0.4586 -0.9772  0.9428
17096SOL     OW53825   6.422   1.305   1.038 -0.3853  0.3322 -0.0483
17096SOL    HW153826   6.418   1.275   0.947 -0.4143  2.4487 -0.7816
17096SOL    HW253827   6.345   1.267   1.080  0.5136 -2.0369 -0.4420
17097SOL     OW53828   8.690   3.233   1.542  0.4813 -0.0196 -0.2543
17097SOL    HW153829   8.675   3.321   1.578 -3.1781 -0.4551 -0.5261
17097SOL    HW253830   8.675   3.174   1.615 -0.3967 -0.5659 -0.8665
17098SOL     OW53831   0.428   5.470   4.091  0.4283 -0.2110 -0.4283
17098SOL    HW153832   0.490   5.538   4.066  0.0048  1.0333  1.7230
17098SOL    HW253833   0.342   5.512   4.085  0.1320 -0.6459  0.5421
17099SOL     OW53834   8.205   6.605   2.308 -0.0516 -0.1640  0.8669
17099SOL    HW153835   8.195   6.557   2.390  1.3776 -0.4973  0.8717
17099SOL    HW253836   8.146   6.561   2.247 -0.2851 -0.6270  1.4183
17100SOL     OW53837   2.127   4.043   5.011 -0.4245 -0.0713  0.3188
17100SOL    HW153838   2.205   4.027   5.065  0.6423 -0.8375 -1.3982
17100SOL    HW253839   2.096   3.955   4.987  0.8543  0.2342 -2.7067
17101SOL     OW53840   6.051   6.898   0.687  0.8636 -0.2776  0.1373
17101SOL    HW153841   6.120   6.860   0.743  0.5029 -0.1057  0.7018
17101SOL    HW253842   6.086   6.982   0.659  1.3053 -0.6381 -0.4097
17102SOL     OW53843   1.359   1.720  10.104  0.0039  0.3494  0.5493
17102SOL    HW153844   1.391   1.809  10.090  0.2145  0.0696 -0.7789
17102SOL    HW253845   1.424   1.680  10.162  2.8343 -0.6201 -3.1600
17103SOL     OW53846   0.787   0.580   0.496  0.5059  0.3371  0.3825
17103SOL    HW153847   0.851   0.649   0.477  2.4606 -1.5103  0.1077
17103SOL    HW253848   0.709   0.606   0.447  0.9491  2.7139  0.8429
17104SOL     OW53849   5.264   9.157   3.489 -0.6443 -0.5217 -0.3773
17104SOL    HW153850   5.338   9.157   3.549  0.9186  0.3087 -2.2385
17104SOL    HW253851   5.187   9.166   3.545  0.7545  0.0505  1.4913
17105SOL     OW53852   7.317  10.178   0.412 -0.2927  0.1603 -0.1660
17105SOL    HW153853   7.357  10.126   0.482  0.4195 -0.3097 -0.9107
17105SOL    HW253854   7.384  10.182   0.344 -1.0157  0.5319 -0.8676
17106SOL     OW53855   1.178   0.904   7.849 -0.3820  0.5890  0.7567
17106SOL    HW153856   1.198   0.853   7.928 -0.1445  1.4505  1.2607
17106SOL    HW253857   1.258   0.954   7.832  0.2248 -0.9822 -1.1153
17107SOL     OW53858   6.756  10.035   0.568 -0.4456 -0.4510 -0.5213
17107SOL    HW153859   6.850  10.052   0.580 -0.8544  0.4976  1.5381
17107SOL    HW253860   6.723  10.114   0.526 -0.4122 -0.5927 -0.8159
17108SOL     OW53861   6.846   0.750   6.720  0.0172  0.0196  0.0341
17108SOL    HW153862   6.929   0.703   6.716  0.4655  0.6678  1.3938
17108SOL    HW253863   6.844   0.802   6.639  0.6417 -0.4731 -0.2972
17109SOL     OW53864   9.583   5.630   8.969 -0.3146 -0.1894 -0.3325
17109SOL    HW153865   9.631   5.558   8.927  1.3440  0.5753  0.1815
17109SOL    HW253866   9.649   5.699   8.979 -0.6294 -0.3433  3.4993
17110SOL     OW53867   1.593   4.833   2.637 -0.1484  0.2250  0.7383
17110SOL    HW153868   1.636   4.820   2.722 -0.9061  0.4068  1.1531
17110SOL    HW253869   1.660   4.875   2.583  0.3933 -0.0394  1.1924
17111SOL     OW53870   8.025   6.020   6.617 -0.3777 -1.3848 -0.1516
17111SOL    HW153871   7.966   5.953   6.582 -0.6802 -0.8799 -0.6032
17111SOL    HW253872   8.104   6.013   6.562  0.3290 -2.6314  0.9828
17112SOL     OW53873   2.928   5.566   6.181 -0.1454 -0.1226  0.2955
17112SOL    HW153874   3.016   5.603   6.187  0.3678 -1.5206  1.6314
17112SOL    HW253875   2.872   5.632   6.222  0.3553  0.4865  0.0153
17113SOL     OW53876   8.596   7.589   7.841 -0.2767  0.0001  0.2369
17113SOL    HW153877   8.622   7.640   7.765 -1.0459 -0.1745 -0.1519
17113SOL    HW253878   8.501   7.599   7.845 -0.5140 -1.9101 -0.2180
17114SOL     OW53879   4.835   8.368   5.786 -0.1150  0.2448  0.8195
17114SOL    HW153880   4.920   8.403   5.757 -0.0899 -0.0495  0.5399
17114SOL    HW253881   4.772   8.435   5.760 -0.1569 -0.2536 -0.3926
17115SOL     OW53882   3.450   8.854   9.515 -0.8608 -0.4679 -0.1753
17115SOL    HW153883   3.481   8.803   9.440 -2.7796 -1.2841 -0.4566
17115SOL    HW253884   3.413   8.933   9.476  1.2349  0.7252  0.1901
17116SOL     OW53885   9.833   6.672   3.269  0.4639 -0.0343 -0.3318
17116SOL    HW153886   9.791   6.603   3.217 -0.6822  0.2429  0.1941
17116SOL    HW253887   9.816   6.646   3.360  1.8250 -0.1407 -0.1084
17117SOL     OW53888   4.255  10.054   5.060 -0.5005 -0.2056  0.0913
17117SOL    HW153889   4.278  10.106   5.137 -0.4228 -0.3936  0.1950
17117SOL    HW253890   4.332  10.060   5.004 -1.8211  2.7297 -1.4967
17118SOL     OW53891   5.637   4.823   1.314  0.6467 -0.0198 -0.0939
17118SOL    HW153892   5.611   4.752   1.257  0.3899 -0.2946  0.3637
17118SOL    HW253893   5.709   4.866   1.268  1.0601 -0.8166 -0.1899
17119SOL     OW53894   0.652   6.732   4.057 -0.2723  0.3652  0.3963
17119SOL    HW153895   0.686   6.780   4.133 -0.3501  2.0579 -0.6038
17119SOL    HW253896   0.697   6.648   4.060 -0.4171  0.3455  2.4237
17120SOL     OW53897   2.705   6.423   2.567  0.6389  0.2910 -0.1931
17120SOL    HW153898   2.794   6.387   2.563  0.4636 -0.0205 -1.4227
17120SOL    HW253899   2.664   6.396   2.484 -0.8562 -0.2551  0.6990
17121SOL     OW53900   4.771   4.964   4.900 -0.0185  0.3428 -0.1376
17121SOL    HW153901   4.849   4.924   4.938  0.0362 -0.3121 -0.9412
17121SOL    HW253902   4.737   5.020   4.970 -0.6285 -1.8243  1.3565
17122SOL     OW53903   1.453   8.132   7.629  0.2652 -0.1311  0.7328
17122SOL    HW153904   1.482   8.102   7.715  2.9755  0.8309  0.1813
17122SOL    HW253905   1.371   8.178   7.647 -0.0804 -1.3724  2.5608
17123SOL     OW53906  10.058   3.599   0.847 -0.4182  0.2873 -0.3243
17123SOL    HW153907   9.974   3.608   0.803 -1.9029  1.8126  2.6563
17123SOL    HW253908  10.079   3.687   0.878  0.8117 -0.6092  1.5169
17124SOL     OW53909   1.016   3.906   9.253 -0.1644 -0.6764  0.3610
17124SOL    HW153910   1.067   3.979   9.218 -1.1659  0.1640  0.6156
17124SOL    HW253911   0.989   3.856   9.176  0.0501 -0.4538  0.1433
17125SOL     OW53912   5.780   3.567   0.012 -0.1600 -0.0347  0.4144
17125SOL    HW153913   5.827   3.650   0.009  0.5876 -0.4228  1.0789
17125SOL    HW253914   5.715   3.579   0.081 -1.5486  0.7607 -1.0182
17126SOL     OW53915   9.253   3.577   1.619 -0.2982  0.0432  0.1069
17126SOL    HW153916   9.257   3.654   1.562 -1.8173 -0.9191 -1.3718
17126SOL    HW253917   9.328   3.524   1.593 -0.0715  0.3587  0.1186
17127SOL     OW53918   0.934   4.126   0.055 -0.4515 -0.0404  0.1867
17127SOL    HW153919   0.935   4.072  -0.024  1.6925  0.1531  0.0592
17127SOL    HW253920   0.926   4.063   0.127 -0.8800 -0.3174 -0.1013
17128SOL     OW53921   5.483   7.458   0.523 -0.2659 -0.0803  0.1014
17128SOL    HW153922   5.485   7.540   0.473 -2.2158 -0.2350 -0.2843
17128SOL    HW253923   5.394   7.425   0.511  0.1442 -1.6602  1.2287
17129SOL     OW53924   8.972   1.213   0.961  0.0716 -0.7203  0.3134
17129SOL    HW153925   9.057   1.187   0.995 -0.5809 -1.1858  1.6621
17129SOL    HW253926   8.987   1.233   0.869  2.3253  2.6205  1.3114
17130SOL     OW53927   4.462   8.285   1.360  0.0658 -0.3067  0.0529
17130SOL    HW153928   4.511   8.357   1.399 -0.9117  1.2022 -1.4078
17130SOL    HW253929   4.464   8.216   1.425  1.1623  0.9950  1.4277
17131SOL     OW53930   3.254   5.665   4.893 -0.3710  0.1196 -0.9134
17131SOL    HW153931   3.246   5.573   4.870 -0.7071  0.1260 -0.8252
17131SOL    HW253932   3.326   5.697   4.839  1.3519 -0.7673  0.7989
17132SOL     OW53933   4.153   5.659   5.606 -0.1849 -0.2806  0.4565
17132SOL    HW153934   4.142   5.612   5.524  0.4757 -1.2542  0.9077
17132SOL    HW253935   4.115   5.600   5.672 -1.8655  1.0404  0.7075
17133SOL     OW53936   6.229   4.513   0.947  0.0628  0.2106 -0.4250
17133SOL    HW153937   6.262   4.427   0.922 -0.7085 -0.4410  0.7329
17133SOL    HW253938   6.307   4.567   0.957  0.5661 -0.4136 -0.9450
17134SOL     OW53939   7.913   1.340   2.372 -0.2740  0.5773  0.1700
17134SOL    HW153940   7.821   1.364   2.385 -0.6322 -0.9429  0.4405
17134SOL    HW253941   7.940   1.304   2.456  0.6456  1.2144  0.1579
17135SOL     OW53942   9.750   7.475   4.782 -0.3533  0.5030 -0.2105
17135SOL    HW153943   9.740   7.394   4.732 -2.6063 -0.3870  1.5554
17135SOL    HW253944   9.668   7.523   4.765 -0.9172  0.4289  2.1029
17136SOL     OW53945   5.226   2.903   4.936  0.1242  0.1616  0.0364
17136SOL    HW153946   5.252   2.929   5.024 -0.0451 -1.0649  0.4570
17136SOL    HW253947   5.185   2.818   4.947  0.1721 -0.0404 -1.2462
17137SOL     OW53948   8.312   7.741   8.122 -0.3562 -0.3357  0.1642
17137SOL    HW153949   8.394   7.778   8.090 -0.7901 -0.3233 -0.9457
17137SOL    HW253950   8.279   7.688   8.049 -1.7803  0.3783  0.2674
17138SOL     OW53951   2.912   6.699   6.276  0.5186  0.2831  0.1571
17138SOL    HW153952   2.921   6.773   6.336 -1.2853  1.3784 -0.8398
17138SOL    HW253953   2.835   6.652   6.307  1.0746 -0.6023  0.1980
17139SOL     OW53954   1.585   8.354   2.300  0.7536 -0.1111 -0.0736
17139SOL    HW153955   1.529   8.331   2.226 -0.1468  1.4675  0.0938
17139SOL    HW253956   1.592   8.273   2.352 -0.9932 -0.4359 -0.3336
17140SOL     OW53957   0.626   2.754   3.066  0.1216 -0.0476  0.0988
17140SOL    HW153958   0.694   2.797   3.118 -1.1059  1.2845  0.6423
17140SOL    HW253959   0.663   2.668   3.044  0.9754 -0.3304  2.4924
17141SOL     OW53960   9.615   6.105   9.023 -0.5435 -0.1327 -0.5369
17141SOL    HW153961   9.568   6.188   9.013 -0.8238 -0.2360 -0.0452
17141SOL    HW253962   9.555   6.048   9.070  0.4828  0.0819  1.0678
17142SOL     OW53963   8.132  10.174   2.006  0.5686 -0.0385  0.0783
17142SOL    HW153964   8.089  10.241   2.060  0.5902  0.5448 -0.6266
17142SOL    HW253965   8.214  10.215   1.977  1.5227 -1.0678  1.2443
17143SOL     OW53966   4.128   6.729   2.911  0.4991 -0.2999  0.1212
17143SOL    HW153967   4.095   6.783   2.982 -0.6440 -0.6046 -0.1696
17143SOL    HW253968   4.127   6.787   2.835  4.6823  0.9892  0.9469
17144SOL     OW53969   4.878   5.392   3.176  0.1618  0.1574  0.1824
17144SOL    HW153970   4.946   5.328   3.196  1.4032  1.1196 -0.8247
17144SOL    HW253971   4.798   5.355   3.212  0.7029 -2.3169 -1.0401
17145SOL     OW53972   7.091   9.627   9.653  0.3826  0.0565 -0.4337
17145SOL    HW153973   7.157   9.564   9.623  0.5167 -0.3038  0.5870
17145SOL    HW253974   7.014   9.574   9.672  0.9024 -0.0077  1.6676
17146SOL     OW53975   1.799   4.674   5.006 -0.1285  0.4156  0.2971
17146SOL    HW153976   1.811   4.746   5.068 -0.2100 -0.1577  0.9729
17146SOL    HW253977   1.709   4.644   5.021 -0.4339  0.7977 -0.6588
17147SOL     OW53978   6.304   2.627   9.867  0.2868 -0.1682  0.3168
17147SOL    HW153979   6.307   2.533   9.849  2.1875 -0.1775  0.5260
17147SOL    HW253980   6.301   2.668   9.780 -0.8169 -0.4263  0.2335
17148SOL     OW53981   1.120   2.933   3.521 -0.3364 -0.5575  0.7004
17148SOL    HW153982   1.082   3.018   3.544  0.2474  0.9040 -3.3145
17148SOL    HW253983   1.213   2.942   3.541 -0.2942 -0.3218  0.3873
17149SOL     OW53984   9.341   8.298   1.969 -0.1221  0.5826 -0.0874
17149SOL    HW153985   9.272   8.235   1.947  0.1777  0.8489 -1.9283
17149SOL    HW253986   9.303   8.383   1.950  0.4181  0.7763 -0.3180
17150SOL     OW53987   9.659   4.653   7.794 -0.4161 -0.7340  0.2557
17150SOL    HW153988   9.574   4.690   7.819 -0.7594 -0.0495 -1.8254
17150SOL    HW253989   9.646   4.558   7.796 -0.7500 -0.6690  1.5244
17151SOL     OW53990   0.517   1.816   8.092 -0.3552  0.0631  0.1410
17151SOL    HW153991   0.541   1.863   8.171 -0.7391  0.6893 -0.1122
17151SOL    HW253992   0.584   1.748   8.083 -1.2402 -1.0837  1.9191
17152SOL     OW53993   1.761   1.417   8.448  0.5528  0.1674  0.8937
17152SOL    HW153994   1.804   1.466   8.518  0.8133 -0.4343  1.1641
17152SOL    HW253995   1.802   1.330   8.451 -0.2379 -0.2228  0.7527
17153SOL     OW53996   3.265   9.538   3.864  0.8633 -0.4033 -0.0422
17153SOL    HW153997   3.175   9.516   3.840 -0.0797  2.7150  0.4129
17153SOL    HW253998   3.313   9.540   3.780 -0.3018  1.3044 -0.6956
17154SOL     OW53999   8.317   4.442   2.091 -0.8722  0.2614  0.6498
17154SOL    HW154000   8.299   4.517   2.147 -0.5438  2.1839 -1.7121
17154SOL    HW254001   8.232   4.418   2.054 -0.8768 -0.1201  0.9072
17155SOL     OW54002   1.256   0.409   9.686 -0.3484  0.6137 -0.1416
17155SOL    HW154003   1.162   0.426   9.694 -0.4400  0.0338  0.1021
17155SOL    HW254004   1.297   0.473   9.744 -0.7495 -0.6781  1.6365
17156SOL     OW54005   1.111   8.756   5.405 -0.4958  0.2158 -0.1140
17156SOL    HW154006   1.174   8.793   5.343  1.6049 -2.1014  0.5721
17156SOL    HW254007   1.027   8.792   5.378  1.0267  2.9992 -1.3629
17157SOL     OW54008   2.176   8.259   9.034  0.5325 -0.4234  0.5358
17157SOL    HW154009   2.146   8.309   8.958 -1.1295 -1.3178  0.5827
17157SOL    HW254010   2.270   8.253   9.023  0.6708  2.0190  0.1039
17158SOL     OW54011   3.581   9.430   5.194 -0.1950 -0.3648  0.0260
17158SOL    HW154012   3.631   9.436   5.113  0.1118 -0.6284  0.1961
17158SOL    HW254013   3.616   9.500   5.249 -0.5233 -0.0726 -0.1298
17159SOL     OW54014   0.755   6.979   5.239  0.5195  0.1745  0.0141
17159SOL    HW154015   0.729   7.071   5.244 -0.8887 -0.1717 -0.6382
17159SOL    HW254016   0.844   6.977   5.276  1.0152  1.9719 -0.9990
17160SOL     OW54017   6.430   4.240   1.757 -0.1438 -0.3078  0.1922
17160SOL    HW154018   6.514   4.271   1.723 -0.7712  0.2536 -0.8582
17160SOL    HW254019   6.445   4.230   1.851  0.5310  1.6362  0.3165
17161SOL     OW54020   3.309   0.780   9.950 -0.3558  0.2201 -0.3712
17161SOL    HW154021   3.259   0.758   9.871  0.0798 -1.1226 -0.2890
17161SOL    HW254022   3.336   0.871   9.937 -0.2953  0.0142 -1.7769
17162SOL     OW54023   8.126   3.202   7.253  0.4296 -0.5083  0.1147
17162SOL    HW154024   8.042   3.243   7.275  0.2463 -0.2866 -0.9733
17162SOL    HW254025   8.172   3.196   7.337 -0.5948 -0.4626  0.6910
17163SOL     OW54026   3.875   5.535   2.756  0.0947 -0.1650  1.0364
17163SOL    HW154027   3.785   5.541   2.789  0.5857  0.7089  2.2640
17163SOL    HW254028   3.875   5.457   2.700 -1.7066  0.4342  0.1267
17164SOL     OW54029   9.742   3.912   1.353  0.5212 -0.6704  0.1010
17164SOL    HW154030   9.750   3.822   1.383  0.9856 -1.4608 -2.3594
17164SOL    HW254031   9.831   3.940   1.333  0.1912 -0.2318 -0.7790
17165SOL     OW54032   7.864   0.252   7.887 -0.0159 -0.5758  0.2270
17165SOL    HW154033   7.827   0.339   7.878  0.2431 -0.4361  0.5160
17165SOL    HW254034   7.957   0.263   7.867 -0.1204 -0.9209 -0.4802
17166SOL     OW54035   6.557   3.706   0.722  0.4863  0.1526  0.0918
17166SOL    HW154036   6.479   3.698   0.777  0.7317 -0.5811  0.3413
17166SOL    HW254037   6.626   3.665   0.774  0.9905  0.6106 -0.2201
17167SOL     OW54038   1.853   7.946   6.227  0.5325 -0.5599  0.0259
17167SOL    HW154039   1.862   7.856   6.196 -0.0731 -0.4016 -0.6334
17167SOL    HW254040   1.911   7.997   6.171  1.1166 -0.5888  0.6101
17168SOL     OW54041   2.944   2.166   5.951  0.2973 -0.2121 -0.2726
17168SOL    HW154042   2.958   2.257   5.976  0.9201 -0.3577 -0.0917
17168SOL    HW254043   2.875   2.170   5.885  0.4954  0.4112 -0.4478
17169SOL     OW54044   3.949   1.101   1.429 -0.1409  0.1464  0.2744
17169SOL    HW154045   3.974   1.082   1.339  0.1996  0.5527  0.2819
17169SOL    HW254046   3.881   1.168   1.421  0.2970  0.6016  0.3420
17170SOL     OW54047   9.029   1.261   5.802 -0.3301 -0.3080  0.4590
17170SOL    HW154048   9.021   1.184   5.859 -2.1926 -0.4969 -0.0325
17170SOL    HW254049   9.102   1.239   5.743  0.0281 -1.1163  1.1874
17171SOL     OW54050   7.486   9.330   9.959  0.0900  0.3914  0.1653
17171SOL    HW154051   7.519   9.304   9.873 -1.1334  0.9191 -0.4867
17171SOL    HW254052   7.561   9.371  10.002  0.6384  0.3815 -0.7651
17172SOL     OW54053   7.584   3.169   7.764  0.0647 -0.0188  0.2760
17172SOL    HW154054   7.489   3.179   7.757  0.1264  0.4924  0.1457
17172SOL    HW254055   7.598   3.122   7.846 -0.3465 -0.8490 -0.1181
17173SOL     OW54056   4.596  10.056   6.592 -0.8225 -0.3931 -0.2290
17173SOL    HW154057   4.506  10.047   6.561 -1.1169  1.7865 -0.1266
17173SOL    HW254058   4.588  10.070   6.686 -0.2141 -2.5537  0.1494
17174SOL     OW54059   9.311   0.560   8.211  0.3256  0.9511 -0.3612
17174SOL    HW154060   9.325   0.645   8.253 -1.0156  0.7040  0.5953
17174SOL    HW254061   9.389   0.548   8.157  1.6805  1.6793  1.3752
17175SOL     OW54062   9.016   7.464   9.918 -0.4741  0.0606 -0.3778
17175SOL    HW154063   9.038   7.528   9.986 -0.1979  0.8740 -1.2314
17175SOL    HW254064   8.949   7.409   9.959 -1.3652  1.4387  0.0649
17176SOL     OW54065   0.094   2.701   1.278 -0.0842 -0.0364  0.1002
17176SOL    HW154066   0.103   2.698   1.183  1.6044  0.2033  0.2427
17176SOL    HW254067   0.151   2.632   1.310 -0.5781 -0.0557  0.9608
17177SOL     OW54068   7.039   0.067   8.404  0.2003 -0.2471 -0.1038
17177SOL    HW154069   6.944   0.054   8.401 -0.2650  1.8272  3.2870
17177SOL    HW254070   7.062   0.054   8.496  3.0916  0.0451 -0.7562
17178SOL     OW54071   9.074   0.412   7.628  0.1821 -0.1618 -0.3344
17178SOL    HW154072   9.110   0.492   7.590  0.9258 -0.4974 -0.3489
17178SOL    HW254073   9.017   0.377   7.560  1.9871 -1.0911 -1.4121
17179SOL     OW54074   5.389   0.819   2.903  0.3711 -0.0814 -0.5410
17179SOL    HW154075   5.381   0.895   2.846  1.6759  0.7681  0.3968
17179SOL    HW254076   5.312   0.765   2.882 -0.4046  1.3457 -1.4056
17180SOL     OW54077   6.557   9.379   0.190 -0.3116 -0.5157 -0.3133
17180SOL    HW154078   6.504   9.385   0.110 -0.4802  1.3528 -0.0889
17180SOL    HW254079   6.620   9.451   0.183  0.2679 -0.8925  0.8147
17181SOL     OW54080   8.467   2.423   3.431 -0.1693  0.0185  0.5190
17181SOL    HW154081   8.560   2.430   3.412 -0.1057 -2.1699 -0.1073
17181SOL    HW254082   8.424   2.474   3.362  0.5528  1.0925  0.8558
17182SOL     OW54083   3.135   8.195   5.397  0.1826 -0.0650  0.0613
17182SOL    HW154084   3.082   8.150   5.463 -0.3058 -1.2787 -1.1286
17182SOL    HW254085   3.093   8.280   5.386  0.5677  0.3566  1.6655
17183SOL     OW54086   8.739   9.492   6.541 -0.4989  0.0481  0.2709
17183SOL    HW154087   8.760   9.580   6.510 -0.2804  0.2063  0.8549
17183SOL    HW254088   8.654   9.472   6.503  1.0075 -0.8950 -2.7760
17184SOL     OW54089   5.169   4.554   4.076 -0.0101 -0.4181 -0.0341
17184SOL    HW154090   5.137   4.479   4.127  1.0266  0.3158  1.7358
17184SOL    HW254091   5.263   4.537   4.065  0.2753  0.7252  0.5622
17185SOL     OW54092   2.782   4.223   5.724 -0.1470 -0.3714  0.1952
17185SOL    HW154093   2.764   4.216   5.818  1.8029 -1.3924  0.5275
17185SOL    HW254094   2.859   4.280   5.719  1.1476 -2.1256 -0.5791
17186SOL     OW54095   4.558   1.059   9.705 -0.3911  0.2006 -0.1708
17186SOL    HW154096   4.545   0.970   9.736 -0.2082  0.2394  0.0167
17186SOL    HW254097   4.474   1.084   9.667 -0.9445  0.5373  1.2592
17187SOL     OW54098   1.478   5.884   3.482 -0.3321  0.5575 -0.0842
17187SOL    HW154099   1.564   5.899   3.521 -0.2422 -0.2287  0.0193
17187SOL    HW254100   1.446   5.972   3.461  1.5975  0.7341 -2.5197
17188SOL     OW54101   7.543   8.017   6.617  0.1956 -0.6955 -0.5005
17188SOL    HW154102   7.548   8.046   6.526 -3.1881 -2.0824 -1.1958
17188SOL    HW254103   7.567   7.924   6.614  1.6428 -0.3620  0.2856
17189SOL     OW54104   6.774  10.121   6.862  0.1391  0.0673 -0.1327
17189SOL    HW154105   6.803  10.131   6.952 -0.8544 -0.0013  0.1974
17189SOL    HW254106   6.695  10.068   6.867 -0.7414  1.2771 -0.9099
17190SOL     OW54107   7.584   9.130   3.241 -0.2543 -0.2329 -0.2916
17190SOL    HW154108   7.544   9.143   3.155 -0.5562  0.2824 -0.0773
17190SOL    HW254109   7.568   9.212   3.287  0.3006 -0.3431  0.1007
17191SOL     OW54110   8.547   3.425   2.971 -0.0709  0.0176  0.0999
17191SOL    HW154111   8.542   3.381   2.886  2.3845 -0.3245  0.0881
17191SOL    HW254112   8.611   3.494   2.959 -0.4153  0.5828  1.4220
17192SOL     OW54113   9.765   5.776   3.543  0.6836  0.4060 -0.1322
17192SOL    HW154114   9.748   5.714   3.614 -1.4546  1.6844  0.4980
17192SOL    HW254115   9.700   5.755   3.476  0.7340  1.1714 -0.4307
17193SOL     OW54116   3.218   8.726   0.259 -0.6125  0.1689  0.1840
17193SOL    HW154117   3.237   8.795   0.195 -0.0956 -0.1333  0.0040
17193SOL    HW254118   3.132   8.749   0.294  0.1489  1.6512  1.1206
17194SOL     OW54119   1.366  10.041   2.469 -0.0731  0.5022  0.3472
17194SOL    HW154120   1.420  10.012   2.544 -0.0587 -1.2704 -0.3166
17194SOL    HW254121   1.376   9.971   2.404 -2.4471  0.5811 -0.1543
17195SOL     OW54122   5.233   5.364   8.685 -0.1131  0.4505 -0.0591
17195SOL    HW154123   5.141   5.387   8.672 -0.1099  0.8434  0.5558
17195SOL    HW254124   5.250   5.294   8.622 -1.2436 -0.6538  0.8386
17196SOL     OW54125   0.674   2.140   8.575  0.1878  0.2000  0.4550
17196SOL    HW154126   0.619   2.076   8.620 -0.3198  0.3106 -0.0049
17196SOL    HW254127   0.612   2.207   8.544  0.4783 -0.0909 -0.7718
17197SOL     OW54128   4.586   9.565   6.950 -0.0649  0.1714 -0.7403
17197SOL    HW154129   4.633   9.612   6.882  1.7295  0.7188  0.8379
17197SOL    HW254130   4.634   9.483   6.961 -0.5871 -0.0986 -0.4364
17198SOL     OW54131   7.218   2.430   3.576 -0.2018  0.2979  0.2030
17198SOL    HW154132   7.164   2.502   3.609 -1.5020 -0.6494  0.1880
17198SOL    HW254133   7.184   2.353   3.621  2.4263 -0.0588  1.6354
17199SOL     OW54134   0.990   8.132   4.019  0.3447 -0.1088  0.2357
17199SOL    HW154135   0.970   8.225   4.019 -1.8666 -0.5373  0.6869
17199SOL    HW254136   0.906   8.090   3.999  1.8211 -1.9188 -2.4904
17200SOL     OW54137   3.574   3.159   5.123 -0.0365  0.4911  0.2898
17200SOL    HW154138   3.651   3.197   5.081  0.3371 -0.4646  0.1077
17200SOL    HW254139   3.522   3.125   5.051 -0.0026 -0.0258  0.5110
17201SOL     OW54140   8.303   2.858   2.706  0.1346 -0.2571 -0.1176
17201SOL    HW154141   8.241   2.916   2.661 -0.0639 -1.0378 -0.8676
17201SOL    HW254142   8.292   2.773   2.663 -1.7672 -1.6639  2.9173
17202SOL     OW54143   2.507   2.032   3.297  0.3017 -0.0748  0.3122
17202SOL    HW154144   2.478   2.043   3.388  1.6932 -1.7796  0.9887
17202SOL    HW254145   2.444   1.972   3.259  0.9136 -1.0149  0.7691
17203SOL     OW54146   7.607   5.960   5.168 -0.2050 -0.1254  0.4480
17203SOL    HW154147   7.646   5.876   5.194 -0.9253 -0.6867 -0.2552
17203SOL    HW254148   7.568   5.943   5.082  0.7036  1.2746 -0.2548
17204SOL     OW54149   2.619   3.607   5.631  0.0534  0.3669 -0.1508
17204SOL    HW154150   2.667   3.574   5.707  0.5919  0.9861 -0.2151
17204SOL    HW254151   2.647   3.551   5.559  1.6016  1.4721 -0.4272
17205SOL     OW54152   2.814   2.132   4.743  0.3295 -0.2530 -0.6136
17205SOL    HW154153   2.801   2.062   4.678  1.5696  0.7498 -1.9946
17205SOL    HW254154   2.876   2.192   4.701 -1.3146  2.1073  0.1990
17206SOL     OW54155   4.251   3.098   2.426  0.7304 -0.2073  0.0649
17206SOL    HW154156   4.191   3.140   2.364  1.3659  0.7477  0.0765
17206SOL    HW254157   4.276   3.016   2.383 -0.2584 -0.4103 -0.1232
17207SOL     OW54158   0.658   8.134   4.898 -0.1077 -0.6248  0.2006
17207SOL    HW154159   0.712   8.095   4.967 -1.5791 -1.8433  0.6782
17207SOL    HW254160   0.710   8.125   4.819 -0.8078 -4.5518  0.0909
17208SOL     OW54161   0.942   7.441   4.251  0.2342 -0.1461  0.4855
17208SOL    HW154162   0.895   7.521   4.228  0.7914  0.1320  0.3102
17208SOL    HW254163   0.933   7.434   4.346 -1.2117 -0.7555  0.3172
17209SOL     OW54164   9.065   9.064  10.139  0.3791  0.0734  0.2140
17209SOL    HW154165   9.118   9.144  10.140  0.9583 -0.3085  0.3368
17209SOL    HW254166   9.072   9.031  10.049  0.6811 -0.1942  0.3338
17210SOL     OW54167   5.930   9.918   8.939 -0.3613  0.5672  0.5441
17210SOL    HW154168   5.991   9.914   9.013 -1.9372 -2.0290  1.8101
17210SOL    HW254169   5.847   9.887   8.976 -1.7891  1.5454 -1.7633
17211SOL     OW54170   3.758   7.820   6.917  0.0189  0.1336 -0.8049
17211SOL    HW154171   3.663   7.820   6.930  0.0618 -0.0929 -0.4995
17211SOL    HW254172   3.772   7.766   6.839 -0.1046  0.1882 -0.8644
17212SOL     OW54173   0.821   9.913   4.673 -0.0198 -0.6521  0.2137
17212SOL    HW154174   0.846   9.858   4.599  0.2219 -2.6961  1.7698
17212SOL    HW254175   0.900   9.963   4.694  0.1997 -0.8010 -0.2564
17213SOL     OW54176   2.866   0.767   2.077 -0.1827 -0.1061  0.1271
17213SOL    HW154177   2.881   0.677   2.050 -1.7071 -0.0803 -0.9369
17213SOL    HW254178   2.952   0.808   2.077  0.4752 -1.4922  0.3506
17214SOL     OW54179   9.694   7.314   2.950 -0.1369 -0.1805 -0.1308
17214SOL    HW154180   9.784   7.283   2.961 -0.3441 -0.7225  0.0818
17214SOL    HW254181   9.692   7.348   2.861 -0.1323 -1.6262 -0.7081
17215SOL     OW54182   4.033   9.634   0.234 -0.2679  0.0057 -0.6518
17215SOL    HW154183   3.948   9.617   0.193  0.0785 -0.8568 -1.0302
17215SOL    HW254184   4.072   9.547   0.243  0.2280  0.3285  0.2725
17216SOL     OW54185   3.046   6.426   4.924  0.2064 -0.3999 -0.6083
17216SOL    HW154186   3.091   6.464   4.999  0.2578  0.4741 -1.0761
17216SOL    HW254187   3.110   6.429   4.853 -0.7491  1.3340 -1.4193
17217SOL     OW54188   3.311   9.886   2.119 -0.0203  0.3095 -0.0946
17217SOL    HW154189   3.339   9.963   2.070  2.6894 -0.5316  0.0460
17217SOL    HW254190   3.371   9.881   2.193 -0.4335 -1.6721  0.1405
17218SOL     OW54191   1.509   6.913   5.262  0.8966  0.1026  0.1327
17218SOL    HW154192   1.566   6.967   5.318 -2.0857 -0.3567  3.8275
17218SOL    HW254193   1.440   6.973   5.234  0.7559 -0.4240 -0.6598
17219SOL     OW54194   7.022   6.233   2.154  0.2776 -0.3956  0.5346
17219SOL    HW154195   6.999   6.326   2.165  1.0339 -0.2546  0.9799
17219SOL    HW254196   6.971   6.188   2.221  0.4950 -0.2054  0.8329
17220SOL     OW54197   5.254   3.839  10.026 -0.1291  0.4767  0.4213
17220SOL    HW154198   5.174   3.869  10.067  0.2381  0.1531  1.3769
17220SOL    HW254199   5.296   3.784  10.091 -0.1099 -0.9885 -0.7933
17221SOL     OW54200   6.606   2.107   4.869 -0.7337  0.3864  0.3881
17221SOL    HW154201   6.546   2.036   4.845  0.2500  0.3634 -2.1300
17221SOL    HW254202   6.582   2.180   4.813  1.6794  0.3143 -0.8046
17222SOL     OW54203   0.509   9.749   7.983 -0.7956  0.0881 -0.2815
17222SOL    HW154204   0.589   9.697   7.973  0.0700  1.6169 -1.5119
17222SOL    HW254205   0.439   9.688   7.963  0.2052 -0.6821 -1.5332
17223SOL     OW54206   3.420   5.728   3.838  0.4076  1.2063 -0.4494
17223SOL    HW154207   3.447   5.722   3.746  1.4277  0.9084 -0.1307
17223SOL    HW254208   3.404   5.637   3.864 -0.1577  1.3150 -0.4086
17224SOL     OW54209   7.886   9.618   8.707 -0.8347 -0.0487 -0.7674
17224SOL    HW154210   7.929   9.601   8.791 -2.2022  0.4238  0.0383
17224SOL    HW254211   7.803   9.570   8.713 -0.2945 -1.2183 -2.4387
17225SOL     OW54212   1.312   9.706   0.957  0.0734  0.3661 -0.7369
17225SOL    HW154213   1.329   9.764   0.883 -2.5102  2.4469  0.2476
17225SOL    HW254214   1.348   9.752   1.033  0.0806 -0.3988 -0.2715
17226SOL     OW54215   2.203   5.077   2.900  0.0138  0.6565 -0.7628
17226SOL    HW154216   2.227   5.138   2.831 -0.9800  0.4796 -1.2633
17226SOL    HW254217   2.286   5.036   2.925  0.3580  0.6412 -1.9167
17227SOL     OW54218   5.679   8.904   1.815 -0.4596  0.3495  0.2700
17227SOL    HW154219   5.764   8.946   1.803  0.0561 -0.4332  1.0601
17227SOL    HW254220   5.693   8.845   1.889 -1.1370 -1.2518 -0.8615
17228SOL     OW54221   6.067   2.997   9.550  0.4623  1.4074 -0.0412
17228SOL    HW154222   6.093   3.077   9.597 -0.7431  0.4108  2.4145
17228SOL    HW254223   6.015   3.028   9.476  0.6386  2.9366  0.4595
17229SOL     OW54224   4.280   3.963   2.012 -0.3602 -0.7813  0.1597
17229SOL    HW154225   4.324   3.972   2.097 -0.2902 -1.3768  0.1864
17229SOL    HW254226   4.339   4.006   1.950 -0.2344 -0.6688  0.3563
17230SOL     OW54227   9.194   6.171   8.949  0.6350 -0.4805 -0.7091
17230SOL    HW154228   9.180   6.116   8.872  0.7610 -1.9828  0.3173
17230SOL    HW254229   9.188   6.111   9.023  2.3118  0.6122  0.3506
17231SOL     OW54230   3.821   5.314   8.499  0.4075  0.2419 -0.1717
17231SOL    HW154231   3.776   5.301   8.415 -0.8761 -0.3608  0.5819
17231SOL    HW254232   3.792   5.240   8.553  1.8459  0.1774  0.5496
17232SOL     OW54233   6.311   6.592   1.501  0.3632  0.2522 -0.6047
17232SOL    HW154234   6.298   6.668   1.557 -0.4142  0.0718 -0.5251
17232SOL    HW254235   6.265   6.614   1.420 -1.5969 -0.9223  0.1406
17233SOL     OW54236   7.835   3.373   4.068  0.0878  0.6573 -0.8813
17233SOL    HW154237   7.810   3.382   4.160  0.4148  0.6003 -0.7855
17233SOL    HW254238   7.869   3.284   4.060  1.4107  1.1364 -0.7262
17234SOL     OW54239   9.239   7.397   8.547  0.0450  0.1700  0.3061
17234SOL    HW154240   9.236   7.301   8.540  1.9521  0.1500 -0.6531
17234SOL    HW254241   9.195   7.428   8.468  1.2069  0.0586 -0.3961
17235SOL     OW54242   1.275   3.611   0.726 -0.3307 -0.3264 -0.1717
17235SOL    HW154243   1.236   3.526   0.744  1.4044 -1.1841 -0.4481
17235SOL    HW254244   1.261   3.662   0.806 -2.3587 -0.4763 -0.4096
17236SOL     OW54245   0.181   9.060   6.536 -0.6975 -0.3782  0.2507
17236SOL    HW154246   0.165   9.003   6.461 -0.6397 -1.0248  0.7207
17236SOL    HW254247   0.107   9.044   6.594 -1.3155  0.9444 -0.1560
17237SOL     OW54248   0.436   7.183   1.689  0.3196 -0.4309 -0.0119
17237SOL    HW154249   0.412   7.115   1.628 -1.0180  0.8515 -0.9391
17237SOL    HW254250   0.405   7.264   1.649 -1.2227  0.3595  2.6838
17238SOL     OW54251  10.190   6.914   6.653  0.0026 -0.1559 -0.7894
17238SOL    HW154252  10.128   6.901   6.581  0.3496  1.6692 -1.4646
17238SOL    HW254253  10.274   6.927   6.609  0.4084 -0.0632  0.0056
17239SOL     OW54254   6.151   3.822   1.902  0.4697  0.7861  0.3776
17239SOL    HW154255   6.128   3.758   1.833  0.7496 -1.4106  2.2587
17239SOL    HW254256   6.069   3.833   1.951  0.6297  1.2969  0.5270
17240SOL     OW54257   2.251   1.669   8.514  0.1354  0.1826 -0.1346
17240SOL    HW154258   2.280   1.587   8.553 -0.9173 -0.7810 -1.3169
17240SOL    HW254259   2.284   1.667   8.424  0.1467  1.0758 -0.1592
17241SOL     OW54260   0.603   4.855   9.135  0.1285  0.6148 -0.0748
17241SOL    HW154261   0.666   4.812   9.078 -0.0652 -1.4506  1.2430
17241SOL    HW254262   0.656   4.909   9.193  0.5058  0.7262 -0.5220
17242SOL     OW54263   4.669   9.388   1.496 -0.1727  0.7868 -0.4469
17242SOL    HW154264   4.659   9.336   1.416 -2.1590  2.8298 -1.6271
17242SOL    HW254265   4.579   9.401   1.527  0.4618  1.4210  1.2052
17243SOL     OW54266   8.710   1.173   9.830 -0.7737 -0.2225 -0.1893
17243SOL    HW154267   8.794   1.207   9.798 -0.8668 -1.0426 -1.3406
17243SOL    HW254268   8.714   1.184   9.925 -0.7330  2.8176 -0.4920
17244SOL     OW54269   0.474   6.926   7.131  0.4208 -0.2178 -0.3905
17244SOL    HW154270   0.419   6.878   7.069 -0.8106 -2.0609  2.0642
17244SOL    HW254271   0.412   6.972   7.187  1.3714 -1.5435  1.7957
17245SOL     OW54272   0.462   6.775   0.063 -0.4625 -0.4743  0.0410
17245SOL    HW154273   0.505   6.703   0.110  1.0994  1.4176  1.5918
17245SOL    HW254274   0.384   6.794   0.115  1.1479  1.4684  1.8271
17246SOL     OW54275   1.419   8.158   3.212 -1.0096  0.0828  0.1019
17246SOL    HW154276   1.391   8.089   3.151 -1.0996 -1.5970  1.9707
17246SOL    HW254277   1.410   8.118   3.299  2.9980  0.9410  1.0294
17247SOL     OW54278   8.623   8.871   6.346 -0.0105  0.2287  0.3522
17247SOL    HW154279   8.667   8.789   6.368  0.5812  0.4898  0.1622
17247SOL    HW254280   8.670   8.938   6.396 -1.7526  0.2222  2.0658
17248SOL     OW54281   7.642   4.422   3.329  0.1058  0.5119  0.3162
17248SOL    HW154282   7.736   4.436   3.324  0.0351  0.5355 -1.1590
17248SOL    HW254283   7.623   4.358   3.261 -1.0839  1.2179 -0.0415
17249SOL     OW54284   3.954   8.791   6.474 -0.4366  0.0866 -0.0046
17249SOL    HW154285   3.880   8.838   6.513 -1.1676  0.0386 -1.3016
17249SOL    HW254286   4.026   8.854   6.475 -0.6103  0.2792  0.8707
17250SOL     OW54287   2.054   4.499   3.833  0.0954 -0.1899 -0.0052
17250SOL    HW154288   2.072   4.477   3.742 -0.2876  2.1790 -0.6760
17250SOL    HW254289   1.999   4.578   3.829  0.2717  0.0911  2.2689
17251SOL     OW54290   3.024   8.965   8.940 -0.1981  0.3874 -0.0697
17251SOL    HW154291   3.034   8.902   9.012  0.4090  0.6810  0.1019
17251SOL    HW254292   2.970   9.034   8.977  2.1905  1.7778  0.9078
17252SOL     OW54293   8.742   1.701   5.141 -0.2371 -0.0861  0.2771
17252SOL    HW154294   8.667   1.644   5.157 -0.9592  0.9751  0.8252
17252SOL    HW254295   8.798   1.653   5.081 -0.7122 -1.4517  0.9125
17253SOL     OW54296   8.940   7.542   3.834  0.3271  0.3146 -0.3314
17253SOL    HW154297   8.990   7.470   3.873  0.2459 -0.1676 -1.1015
17253SOL    HW254298   8.976   7.621   3.874 -0.0430 -0.1984  1.0190
17254SOL     OW54299   5.591   6.419   8.500  0.1741 -1.0159  0.2025
17254SOL    HW154300   5.672   6.383   8.535  1.2247  2.3191  1.4863
17254SOL    HW254301   5.531   6.420   8.575 -1.0669 -3.3482 -0.7089
17255SOL     OW54302   0.571   0.697   3.580  0.3683 -0.5548  0.1346
17255SOL    HW154303   0.662   0.722   3.562  0.5262 -0.8934  0.4659
17255SOL    HW254304   0.528   0.702   3.494  0.8194 -0.8939 -0.1126
17256SOL     OW54305   9.058   8.012   5.334 -0.4425 -0.1871 -0.4777
17256SOL    HW154306   9.060   8.094   5.285 -3.1532  0.1400 -0.1018
17256SOL    HW254307   8.999   8.029   5.407  1.5559 -1.4724  1.4934
17257SOL     OW54308   5.104   8.364   1.037 -1.0454 -0.2278  0.0562
17257SOL    HW154309   5.013   8.385   1.016 -1.5450 -2.4560 -0.0391
17257SOL    HW254310   5.109   8.373   1.132 -0.8248  1.8715 -0.1235
17258SOL     OW54311   6.954   4.986   7.388  0.3366  0.3231 -0.0439
17258SOL    HW154312   6.997   4.950   7.466 -0.5723 -0.4740  0.0968
17258SOL    HW254313   6.965   5.081   7.397 -0.8949  0.3367  1.7508
17259SOL     OW54314   9.414   0.255   1.732 -0.0721 -0.2969  0.1948
17259SOL    HW154315   9.433   0.184   1.792  1.2854  0.4728  0.6976
17259SOL    HW254316   9.392   0.329   1.788 -2.3033 -0.5148 -0.3355
17260SOL     OW54317   9.770   9.599   9.793 -0.7576 -0.3665 -0.2699
17260SOL    HW154318   9.825   9.627   9.866  0.5665 -1.3937 -0.8549
17260SOL    HW254319   9.827   9.543   9.740 -2.1268 -0.7859 -1.3263
17261SOL     OW54320   5.651   5.034   0.539  1.0480  0.6383 -0.3953
17261SOL    HW154321   5.673   5.126   0.522 -2.8831  1.6952 -0.1360
17261SOL    HW254322   5.572   5.018   0.489  1.9347 -2.8154 -0.8115
17262SOL     OW54323   8.935   7.959   7.682  0.0424  0.2038 -0.0661
17262SOL    HW154324   8.983   7.950   7.600  1.0713 -1.0797  0.6603
17262SOL    HW254325   8.870   8.027   7.664  0.6428  0.3604 -1.7534
17263SOL     OW54326   8.979   7.275   9.147 -0.0766 -1.0499  0.2634
17263SOL    HW154327   9.022   7.204   9.194  1.1350  0.0173  0.8117
17263SOL    HW254328   9.018   7.355   9.183  0.5095 -0.1892 -2.1482
17264SOL     OW54329   8.167   1.631   1.835  0.3121  0.1999 -0.1986
17264SOL    HW154330   8.163   1.726   1.828  0.0597  0.1774 -0.3552
17264SOL    HW254331   8.163   1.599   1.744 -0.7230 -0.0014 -0.0904
17265SOL     OW54332   8.750   7.380   9.252 -0.0425  0.3734 -0.2307
17265SOL    HW154333   8.696   7.373   9.173 -1.0032 -1.4401  0.5379
17265SOL    HW254334   8.834   7.342   9.227  0.1735  1.2503 -0.8310
17266SOL     OW54335   5.852   1.061   1.420  0.1340  0.0962 -0.1917
17266SOL    HW154336   5.911   1.129   1.452  0.3452 -0.2430  0.1535
17266SOL    HW254337   5.842   1.079   1.326 -1.2885  1.6873  0.2592
17267SOL     OW54338   1.228   6.640   5.275  0.2292 -0.6521  0.1324
17267SOL    HW154339   1.206   6.556   5.235 -0.0478 -0.1383 -0.8174
17267SOL    HW254340   1.296   6.619   5.339 -0.5353 -1.7425  0.6077
17268SOL     OW54341   3.952   9.476   0.575 -0.1544  0.1291  0.1173
17268SOL    HW154342   4.023   9.534   0.546 -1.5169  2.2929  1.0242
17268SOL    HW254343   3.907   9.525   0.643 -0.3444 -2.6938  2.0931
17269SOL     OW54344   3.104   8.005   7.256 -0.4259 -0.6148 -0.4509
17269SOL    HW154345   3.192   7.986   7.289 -0.0659  2.3189  0.4678
17269SOL    HW254346   3.052   7.927   7.277  0.7589 -0.4333  3.5340
17270SOL     OW54347   3.911   5.627   7.557 -0.6037 -1.0319 -0.0836
17270SOL    HW154348   3.973   5.700   7.555 -0.7107 -0.9187  0.6483
17270SOL    HW254349   3.938   5.571   7.484 -1.8911  0.8515 -2.0575
17271SOL     OW54350   5.979   3.250   1.610 -0.3706  0.0105  0.0308
17271SOL    HW154351   5.956   3.339   1.582  3.2194  1.0681  0.1875
17271SOL    HW254352   5.991   3.202   1.527 -1.1889 -0.0541 -0.0597
17272SOL     OW54353   7.569   0.782   9.841  0.2801  0.4564 -0.0670
17272SOL    HW154354   7.503   0.735   9.892 -1.0432  1.3281 -0.9383
17272SOL    HW254355   7.518   0.835   9.779  1.8180  0.5083 -1.3173
17273SOL     OW54356   6.640   5.880   0.912  0.1973  0.0411  0.2479
17273SOL    HW154357   6.635   5.877   0.817  0.6702 -3.3337  0.2705
17273SOL    HW254358   6.707   5.946   0.931  1.1423 -0.2949 -1.8087
17274SOL     OW54359   2.301   7.700   2.107  0.0451 -0.0457  0.6164
17274SOL    HW154360   2.235   7.637   2.134  0.1119  0.0638  1.0306
17274SOL    HW254361   2.366   7.698   2.176  0.9888 -0.8938 -0.2822
17275SOL     OW54362   6.783   9.662   0.610 -0.4512 -0.2258 -0.4006
17275SOL    HW154363   6.848   9.706   0.556  0.4461  0.5362  1.2579
17275SOL    HW254364   6.832   9.596   0.658 -0.6349  1.1167  1.7231
17276SOL     OW54365   5.794   1.755   5.986 -0.2842 -0.2665 -0.0402
17276SOL    HW154366   5.734   1.827   6.004 -1.0725 -0.6750 -1.0097
17276SOL    HW254367   5.739   1.677   5.982  0.0981 -0.4523 -2.3202
17277SOL     OW54368   6.315   4.577   2.680  0.8200 -0.1146  0.1916
17277SOL    HW154369   6.330   4.533   2.764 -0.4145  1.2182  1.1339
17277SOL    HW254370   6.384   4.543   2.623  2.9009  0.3712  2.2959
17278SOL     OW54371   6.301   3.077   1.937  0.1485 -0.4184  0.5518
17278SOL    HW154372   6.379   3.022   1.930 -0.9365 -1.9822  0.4972
17278SOL    HW254373   6.315   3.147   1.874  2.1559  0.1245  1.5771
17279SOL     OW54374   2.920   4.932   8.952  0.0424 -0.0219 -0.0544
17279SOL    HW154375   2.859   5.006   8.954  0.7186  0.6043 -1.8778
17279SOL    HW254376   2.875   4.863   9.002 -0.3135  1.7879  2.2165
17280SOL     OW54377   9.310   9.217   7.233 -0.0952 -0.0973  0.4900
17280SOL    HW154378   9.250   9.148   7.260 -0.7082 -0.2655 -1.2293
17280SOL    HW254379   9.253   9.286   7.198  0.6032  0.5444  0.6083
17281SOL     OW54380   1.703   5.380   7.023 -0.4257  0.1220  0.7528
17281SOL    HW154381   1.702   5.312   6.955  0.1514  1.5654 -0.7395
17281SOL    HW254382   1.749   5.340   7.096 -0.3474 -1.2007 -0.0000
17282SOL     OW54383   1.473   0.211   0.077  0.1878 -0.0619 -0.6881
17282SOL    HW154384   1.384   0.246   0.079 -0.2780 -1.1988 -1.1370
17282SOL    HW254385   1.464   0.123   0.040  1.3834 -0.5226  0.0670
17283SOL     OW54386   7.807   3.812   2.774 -0.2584  0.8484  1.0189
17283SOL    HW154387   7.757   3.869   2.717 -0.4913 -2.0386 -1.8257
17283SOL    HW254388   7.753   3.733   2.782  1.5115 -0.2923  2.1266
17284SOL     OW54389   5.524   0.493   4.891  0.3325  0.2769 -0.0184
17284SOL    HW154390   5.601   0.443   4.862 -0.5733  0.0204 -2.1013
17284SOL    HW254391   5.454   0.428   4.898  0.0756  0.6533  0.9818
17285SOL     OW54392   8.198   1.503   5.797 -0.4617 -0.0331 -0.3298
17285SOL    HW154393   8.181   1.410   5.783  1.4151 -1.0110  3.3669
17285SOL    HW254394   8.291   1.507   5.818 -0.9955  2.3943  1.7496
17286SOL     OW54395   1.996   0.821   8.146  0.1646 -0.1241  0.2027
17286SOL    HW154396   1.995   0.859   8.058  1.7160  0.8518  0.5873
17286SOL    HW254397   1.937   0.746   8.140 -0.4323  0.4456 -1.4327
17287SOL     OW54398   8.238   8.538   2.449 -0.0227 -0.1314  0.0487
17287SOL    HW154399   8.169   8.515   2.512 -0.0229 -0.6978 -0.1567
17287SOL    HW254400   8.229   8.473   2.379 -0.9538  1.3458 -1.2319
17288SOL     OW54401   9.990   9.089   8.247 -0.8004  0.3796 -0.7913
17288SOL    HW154402  10.025   9.004   8.275  2.2404  1.9545  0.4550
17288SOL    HW254403   9.944   9.122   8.325 -3.4022 -0.7753 -1.7815
17289SOL     OW54404   2.344   2.169   8.159  0.4795 -0.4915 -0.0259
17289SOL    HW154405   2.363   2.257   8.192  0.2860 -0.2400 -0.5781
17289SOL    HW254406   2.344   2.113   8.237 -3.0619  0.5872  0.8383
17290SOL     OW54407   5.566   5.758   6.779  0.0155 -0.1725 -0.2216
17290SOL    HW154408   5.654   5.741   6.810  0.5566 -0.0594 -1.6278
17290SOL    HW254409   5.563   5.853   6.768 -0.4752 -0.1182  0.3755
17291SOL     OW54410   4.164   8.538   9.100  0.4116  0.0353 -0.4017
17291SOL    HW154411   4.137   8.552   9.191  0.1220 -0.7811 -0.3557
17291SOL    HW254412   4.249   8.581   9.094 -0.8484  2.5387 -0.5367
17292SOL     OW54413   1.086   9.001   7.479  0.0458 -0.4725  0.0645
17292SOL    HW154414   1.064   8.909   7.495  0.7425 -0.7486 -0.5135
17292SOL    HW254415   1.181   9.002   7.470  0.0403  0.2962  0.0168
17293SOL     OW54416   4.972   2.421   7.290 -0.1721 -0.5424 -0.1388
17293SOL    HW154417   4.965   2.368   7.211  0.4877 -0.7521 -0.0632
17293SOL    HW254418   5.064   2.414   7.315  0.1179  1.2443 -0.5662
17294SOL     OW54419   3.860   8.744   6.838  0.4762 -0.0761  0.0741
17294SOL    HW154420   3.863   8.695   6.920  1.9657  0.7109  0.5071
17294SOL    HW254421   3.949   8.776   6.825  0.2685 -0.2071 -1.8738
17295SOL     OW54422   6.632   6.292   2.587 -0.5098  0.5350 -0.2628
17295SOL    HW154423   6.674   6.218   2.630  1.6528  1.1249 -1.2841
17295SOL    HW254424   6.560   6.317   2.646 -0.9139 -1.9681  0.3629
17296SOL     OW54425   0.902   5.538   6.907 -0.1568  0.4112 -0.1978
17296SOL    HW154426   0.980   5.509   6.954 -0.2897  3.5622  2.1111
17296SOL    HW254427   0.933   5.608   6.850 -0.9654  0.3182 -0.7633
17297SOL     OW54428   3.095   1.603   1.049 -0.6720  0.0398 -0.6065
17297SOL    HW154429   3.083   1.663   1.122  0.5576  0.4309 -0.7130
17297SOL    HW254430   3.049   1.644   0.976  2.4107  2.2558 -1.4036
17298SOL     OW54431   9.481   9.729   7.800 -0.6044 -0.3080  0.3584
17298SOL    HW154432   9.459   9.799   7.863  0.2510 -0.2030  0.5513
17298SOL    HW254433   9.576   9.721   7.807 -0.7793 -1.9759  0.8370
17299SOL     OW54434   1.051   6.125   8.619  0.2379 -0.2561  0.0233
17299SOL    HW154435   1.137   6.145   8.580 -0.6746  1.6058 -1.1041
17299SOL    HW254436   1.024   6.208   8.659 -1.9546 -0.2581 -1.4045
17300SOL     OW54437   0.325   7.236   4.748 -0.1389 -0.0923  0.0850
17300SOL    HW154438   0.300   7.306   4.688  0.4703 -0.4691 -0.6207
17300SOL    HW254439   0.242   7.207   4.786 -0.8022 -1.1487 -2.0460
17301SOL     OW54440   3.373   2.824   6.725  0.1104 -0.3360 -0.4916
17301SOL    HW154441   3.426   2.808   6.647  2.0831  0.3282  0.6856
17301SOL    HW254442   3.402   2.758   6.788  1.6301  1.8050  1.1456
17302SOL     OW54443   5.757   9.851   5.938 -0.2193 -0.3705 -0.5627
17302SOL    HW154444   5.668   9.879   5.959 -0.8240 -2.8024  0.2677
17302SOL    HW254445   5.751   9.815   5.849  0.0949  0.1661 -0.8027
17303SOL     OW54446   7.365   9.598   1.319  0.0505 -0.3211  0.0046
17303SOL    HW154447   7.312   9.646   1.383  0.6441  1.1677 -0.6102
17303SOL    HW254448   7.312   9.597   1.240 -0.0620 -0.8999  0.0854
17304SOL     OW54449   7.500   5.512   7.293 -0.2392 -0.1749  0.1447
17304SOL    HW154450   7.583   5.559   7.291  1.5129 -3.1927 -1.0892
17304SOL    HW254451   7.466   5.521   7.204  0.5032 -1.8447 -0.3305
17305SOL     OW54452   9.108   6.604   4.993 -0.3280  0.1483 -0.5454
17305SOL    HW154453   9.013   6.620   4.998 -0.2813 -0.0441  1.1468
17305SOL    HW254454   9.144   6.684   4.956 -0.5766  2.4893  3.9066
17306SOL     OW54455   3.545   8.158   3.733  0.1992 -0.7529 -0.6249
17306SOL    HW154456   3.498   8.203   3.803  0.0585 -0.0456 -1.1727
17306SOL    HW254457   3.477   8.124   3.676  0.3112 -1.4459 -0.3574
17307SOL     OW54458   1.391   4.379   8.170  0.2625 -0.0421 -0.2196
17307SOL    HW154459   1.313   4.425   8.139 -1.2889 -2.8300 -0.6478
17307SOL    HW254460   1.383   4.380   8.265  0.2862  0.6079 -0.2194
17308SOL     OW54461   3.044   5.894   4.346  0.0375 -0.1073 -0.0188
17308SOL    HW154462   3.063   5.875   4.438  0.1538  0.7084  0.1306
17308SOL    HW254463   2.951   5.914   4.344  0.3261  1.3916  0.2003
17309SOL     OW54464   6.274   4.805   0.930 -0.6876  0.6200  0.0098
17309SOL    HW154465   6.349   4.754   0.960 -2.3963 -1.8107  0.3144
17309SOL    HW254466   6.208   4.792   0.998 -1.9865  1.2653 -1.1081
17310SOL     OW54467   0.772   6.834   0.718  0.9529 -0.4081 -0.1120
17310SOL    HW154468   0.835   6.860   0.784  0.0997  1.2493  0.0762
17310SOL    HW254469   0.738   6.750   0.748  0.8910  0.1210  1.3342
17311SOL     OW54470   3.946   0.249   1.024  0.3674  0.5076 -0.6149
17311SOL    HW154471   3.883   0.177   1.015  0.8848 -0.0840  0.4732
17311SOL    HW254472   4.031   0.205   1.030  0.5273  1.0961  1.9829
17312SOL     OW54473   2.122   8.988   3.208  0.2108 -0.2545  0.0432
17312SOL    HW154474   2.198   8.952   3.253  0.7268  2.4139  1.4123
17312SOL    HW254475   2.056   8.999   3.277  0.2113  1.7303 -0.2369
17313SOL     OW54476   9.513   0.141   9.565  0.0098 -0.4182  0.3368
17313SOL    HW154477   9.493   0.059   9.609  0.7635 -1.8995 -2.0209
17313SOL    HW254478   9.429   0.188   9.563 -0.1416 -0.5077  2.8586
17314SOL     OW54479   3.576   9.498   8.953  0.3483 -0.4030 -0.2198
17314SOL    HW154480   3.650   9.445   8.922  0.0018 -0.7584 -0.4537
17314SOL    HW254481   3.514   9.496   8.880  0.2606  0.1919 -0.1648
17315SOL     OW54482   2.137   1.586   0.715 -0.1033  1.0213  0.3894
17315SOL    HW154483   2.096   1.508   0.680 -0.3313  1.3184 -0.0062
17315SOL    HW254484   2.214   1.554   0.763 -1.6040  0.3279  2.4030
17316SOL     OW54485   1.078   0.124   5.377  0.0831  0.1198  0.1108
17316SOL    HW154486   1.084   0.175   5.458  2.2265  0.2578 -0.1043
17316SOL    HW254487   1.047   0.038   5.406 -1.5790  0.8913  0.7316
17317SOL     OW54488   8.863   8.193   1.404  0.6768 -0.2618 -0.0203
17317SOL    HW154489   8.843   8.187   1.497  4.0837 -0.6915  0.7346
17317SOL    HW254490   8.925   8.266   1.397  1.3069 -0.9291 -1.7903
17318SOL     OW54491   8.754   2.702   1.817 -0.1370  0.2768 -0.0088
17318SOL    HW154492   8.791   2.790   1.830  0.6281  0.0005 -0.2580
17318SOL    HW254493   8.662   2.711   1.842 -0.0144  1.0968  0.1830
17319SOL     OW54494   8.646   4.881   6.301  0.4894 -0.3171 -0.0417
17319SOL    HW154495   8.717   4.945   6.289  0.0651  0.3584  0.9902
17319SOL    HW254496   8.569   4.934   6.322  0.1087 -1.1575  0.7280
17320SOL     OW54497   0.431   9.957   4.662  0.2961  0.4624  0.3720
17320SOL    HW154498   0.436  10.048   4.693  1.7953  0.1947  0.9580
17320SOL    HW254499   0.363   9.918   4.718  0.9252  0.7500  1.3542
17321SOL     OW54500   5.978   2.305   4.311  1.1593 -0.2412  0.0348
17321SOL    HW154501   5.918   2.352   4.253  0.2266 -1.2422  0.1893
17321SOL    HW254502   6.035   2.257   4.251  2.3691  1.3580 -0.1395
17322SOL     OW54503   3.258   5.779   8.228  0.4741 -0.2226  0.0603
17322SOL    HW154504   3.328   5.813   8.172  1.8409  1.2449  2.5701
17322SOL    HW254505   3.303   5.749   8.307 -1.3231 -3.0107  0.1199
17323SOL     OW54506   8.064   1.044   1.622  0.2408 -0.1217  0.0850
17323SOL    HW154507   8.069   1.003   1.709  2.8320  3.2171  1.6144
17323SOL    HW254508   8.102   0.980   1.563  0.7211 -1.4715  1.8137
17324SOL     OW54509   2.511   6.030   7.936  0.0258  0.1334  0.1974
17324SOL    HW154510   2.430   6.076   7.914 -1.4278 -1.5888  1.8509
17324SOL    HW254511   2.496   5.940   7.908  0.2513 -0.8516  3.1258
17325SOL     OW54512   7.189   7.882   8.135 -0.1229  0.0346 -0.1892
17325SOL    HW154513   7.097   7.907   8.123 -0.6157 -1.0978  1.1552
17325SOL    HW254514   7.234   7.965   8.152 -1.1216  0.4595  0.4579
17326SOL     OW54515   4.476   9.688   7.754 -0.5076 -0.3029 -0.5884
17326SOL    HW154516   4.390   9.724   7.734 -0.9820 -0.7858  0.5073
17326SOL    HW254517   4.464   9.642   7.838  1.1007  0.6505  0.1901
17327SOL     OW54518   2.513   4.678   4.145 -0.0500 -0.2025 -0.2999
17327SOL    HW154519   2.453   4.752   4.149 -1.7225 -1.4048 -2.2159
17327SOL    HW254520   2.514   4.642   4.234 -1.9192  0.0380 -0.1759
17328SOL     OW54521   5.853   3.165   4.422  0.5456  0.1354 -0.2224
17328SOL    HW154522   5.806   3.139   4.501  1.9226 -1.1634  0.1917
17328SOL    HW254523   5.801   3.236   4.385 -0.0711  0.7871  1.8735
17329SOL     OW54524   7.493  10.168   3.964  0.0001  0.4344  0.5408
17329SOL    HW154525   7.529  10.252   3.933 -1.6444  1.2197  0.7006
17329SOL    HW254526   7.422  10.148   3.903  0.7085 -1.1245  0.2018
17330SOL     OW54527   2.189   6.798   0.974  0.6717 -0.0805  0.1938
17330SOL    HW154528   2.135   6.868   1.009  1.6405  0.5315  0.4979
17330SOL    HW254529   2.168   6.722   1.028  1.1252  0.5057  1.2185
17331SOL     OW54530   7.071   9.900   7.275 -0.3609 -0.4143 -0.1936
17331SOL    HW154531   7.041   9.990   7.285 -0.1828 -0.1145 -2.1581
17331SOL    HW254532   6.991   9.847   7.280 -0.6422 -0.0223 -0.5250
17332SOL     OW54533   7.075   2.256   8.148 -0.3561 -0.1550  0.1269
17332SOL    HW154534   7.024   2.190   8.193 -1.1059  0.5345  0.2986
17332SOL    HW254535   7.047   2.250   8.056  1.7176 -2.0802 -0.4480
17333SOL     OW54536   9.178   1.109   0.049 -0.1873 -0.4613 -0.0237
17333SOL    HW154537   9.134   1.189   0.021 -1.5221 -1.5661 -1.2149
17333SOL    HW254538   9.258   1.106  -0.003 -1.7356 -1.5273 -2.4675
17334SOL     OW54539   2.371   3.767   2.519 -0.5570  0.0801 -0.0139
17334SOL    HW154540   2.347   3.748   2.428 -1.6506  0.0289  0.2808
17334SOL    HW254541   2.447   3.711   2.536 -2.1693 -2.1515  0.0362
17335SOL     OW54542   8.980   1.455   1.692 -0.3163 -0.2092 -0.4589
17335SOL    HW154543   9.066   1.488   1.717 -1.4976  1.0782  2.2539
17335SOL    HW254544   8.966   1.486   1.603  1.3862  0.9097 -0.3479
17336SOL     OW54545   7.913   6.198   7.548  0.7335 -0.0766 -0.2806
17336SOL    HW154546   7.990   6.249   7.524  1.4578 -1.4973 -1.0537
17336SOL    HW254547   7.922   6.116   7.500 -1.5253 -0.0854 -0.7670
17337SOL     OW54548   4.271   4.806   8.495 -0.0005 -0.1346  0.1118
17337SOL    HW154549   4.257   4.886   8.443  1.7427 -0.5823 -1.0901
17337SOL    HW254550   4.356   4.773   8.465  0.4491 -1.0863  2.3870
17338SOL     OW54551   1.538   1.319   3.942  0.1678  1.0822 -0.1582
17338SOL    HW154552   1.459   1.288   3.897  0.2877 -0.7867  0.8567
17338SOL    HW254553   1.508   1.388   4.000 -0.9870 -0.5901  1.2820
17339SOL     OW54554   1.785   3.730   9.520  0.3073  0.4509  0.5782
17339SOL    HW154555   1.709   3.672   9.526  1.1584 -0.6934  0.5121
17339SOL    HW254556   1.790   3.754   9.428 -0.1606  0.7957  0.6394
17340SOL     OW54557   0.189   4.318   3.496  0.3307  0.0126 -0.2568
17340SOL    HW154558   0.229   4.387   3.442  0.3687 -0.7506 -1.2165
17340SOL    HW254559   0.214   4.341   3.585  1.1487  0.7203 -0.6544
17341SOL     OW54560   8.547   3.703   8.294 -0.4234 -0.2072  0.2445
17341SOL    HW154561   8.578   3.624   8.249  0.4901 -0.3470  1.1000
17341SOL    HW254562   8.595   3.774   8.252  1.6892 -0.4858  2.0406
17342SOL     OW54563   0.512   4.651   3.285 -0.0307  0.1091  0.0571
17342SOL    HW154564   0.606   4.667   3.294 -0.1443  0.5885  0.3812
17342SOL    HW254565   0.480   4.644   3.375 -0.6618  1.9922 -0.0026
17343SOL     OW54566   7.134   0.250   3.678  0.1279 -0.1543  0.1662
17343SOL    HW154567   7.040   0.233   3.674  0.2841 -0.9099 -0.2546
17343SOL    HW254568   7.159   0.273   3.589  0.1598  1.0260  0.4725
17344SOL     OW54569  10.157   7.919   3.663 -0.5278 -0.0355  0.1530
17344SOL    HW154570  10.213   7.862   3.610 -0.8616 -0.9706  0.7894
17344SOL    HW254571  10.146   7.998   3.610 -0.3015 -0.6810 -0.8769
17345SOL     OW54572   7.354   1.411   2.856  0.1073  1.0923  0.2908
17345SOL    HW154573   7.416   1.424   2.928  0.8681 -1.0257  0.0641
17345SOL    HW254574   7.314   1.326   2.874 -0.9920  1.3511 -0.8562
17346SOL     OW54575   1.129   1.206   5.663 -0.9233  0.0721  0.2900
17346SOL    HW154576   1.108   1.183   5.573  1.8550 -0.5911 -0.2264
17346SOL    HW254577   1.113   1.300   5.668  0.2390  0.3678 -1.2937
17347SOL     OW54578   3.503   2.339   2.637 -0.1182 -0.2702  0.1119
17347SOL    HW154579   3.580   2.386   2.669 -0.4905  0.4816 -0.0761
17347SOL    HW254580   3.442   2.408   2.613 -0.2875 -0.8337 -1.1300
17348SOL     OW54581   3.370   0.663   8.582  0.0807 -0.0189 -0.3305
17348SOL    HW154582   3.341   0.743   8.627 -1.2273 -1.1735  0.9247
17348SOL    HW254583   3.289   0.625   8.547  0.4630 -1.6788  0.5467
17349SOL     OW54584   4.380   6.253   4.012 -0.1289  0.0944  0.2678
17349SOL    HW154585   4.298   6.206   3.996  0.0941 -0.6593  1.3178
17349SOL    HW254586   4.352   6.339   4.043 -0.5254  0.0689 -0.0155
17350SOL     OW54587   5.884   2.838   3.721 -0.1485 -0.3024  0.3864
17350SOL    HW154588   5.975   2.825   3.695 -0.0580 -0.2444  0.6722
17350SOL    HW254589   5.854   2.911   3.667  0.4035  0.6254  1.3040
17351SOL     OW54590   5.074   0.719   6.930  0.2738  0.4290  0.6465
17351SOL    HW154591   5.059   0.805   6.890  0.1429  0.5715  0.9953
17351SOL    HW254592   5.166   0.700   6.915  0.2383  0.5126  0.3362
17352SOL     OW54593   3.624   6.787   8.899  0.0520  0.5934  0.6906
17352SOL    HW154594   3.669   6.786   8.984  1.5274  1.3021 -0.0616
17352SOL    HW254595   3.638   6.700   8.863 -2.8281 -0.5982  2.2940
17353SOL     OW54596   0.310   1.140  10.158  0.7409  0.1771  0.2108
17353SOL    HW154597   0.293   1.056  10.116  0.4525 -0.1580  0.9791
17353SOL    HW254598   0.292   1.124  10.251  2.2124  0.6661  0.5989
17354SOL     OW54599   5.960   2.891   1.411 -0.1167 -0.4658 -0.3356
17354SOL    HW154600   6.012   2.938   1.476 -0.1736 -0.8097 -0.0401
17354SOL    HW254601   5.952   2.803   1.446 -1.4061 -0.2676 -0.0803
17355SOL     OW54602   9.173   1.703   9.623 -0.1638 -0.3235 -0.3606
17355SOL    HW154603   9.121   1.629   9.592 -2.8041  0.9364  0.8966
17355SOL    HW254604   9.183   1.760   9.547 -1.0895 -0.3224 -0.4814
17356SOL     OW54605   7.835   3.711   4.549  0.0675 -0.1069 -0.0713
17356SOL    HW154606   7.796   3.628   4.575 -1.2772  1.2761  2.5714
17356SOL    HW254607   7.925   3.708   4.581  0.4865 -1.0764 -1.2756
17357SOL     OW54608   9.395   6.035   6.934  0.9293  0.2966 -0.8352
17357SOL    HW154609   9.450   6.096   6.885  1.6702  1.0111  0.8634
17357SOL    HW254610   9.455   5.969   6.968  0.6027  0.5492  0.2418
17358SOL     OW54611   4.894   6.561   1.902  0.2919  0.1583 -0.1111
17358SOL    HW154612   4.882   6.601   1.988  0.3002 -1.0321  0.4420
17358SOL    HW254613   4.944   6.626   1.852  1.6259  0.2091  1.2701
17359SOL     OW54614   0.739   5.594   3.306  0.3772 -0.4191 -0.1634
17359SOL    HW154615   0.790   5.645   3.243 -0.5836 -0.7400 -1.2158
17359SOL    HW254616   0.732   5.507   3.266 -1.1358 -0.3272 -0.1223
17360SOL     OW54617   8.166   4.225   3.235 -0.1895 -0.2934 -0.1779
17360SOL    HW154618   8.205   4.312   3.222  1.1408 -0.7023  1.0523
17360SOL    HW254619   8.180   4.206   3.327  0.2606 -2.1794 -0.6204
17361SOL     OW54620   8.288   6.902   9.462  0.0527 -0.1847  0.0087
17361SOL    HW154621   8.274   6.997   9.459  0.5716 -0.0004  2.5994
17361SOL    HW254622   8.359   6.887   9.399  0.6234  1.2670  0.2869
17362SOL     OW54623   3.881   8.092   7.844  0.2252  0.1952 -0.2345
17362SOL    HW154624   3.852   8.127   7.928 -1.9747 -2.0082 -0.0065
17362SOL    HW254625   3.954   8.035   7.865 -0.0343 -0.0015  0.1467
17363SOL     OW54626   2.091   6.268   0.013 -0.7056  0.8874  0.3504
17363SOL    HW154627   2.064   6.298  -0.074 -0.2216  1.0093  0.2396
17363SOL    HW254628   2.165   6.211  -0.003 -0.9238  0.5161  0.6503
17364SOL     OW54629   8.961   2.959   8.784  0.4827  0.1296 -0.2125
17364SOL    HW154630   8.902   2.922   8.718  1.1647 -0.7366 -0.3357
17364SOL    HW254631   8.905   2.975   8.860  0.5992 -3.2801  0.6563
17365SOL     OW54632   2.357   5.661   4.000 -0.1238 -0.1162  0.1555
17365SOL    HW154633   2.278   5.672   4.053  0.8310 -1.4575  1.9103
17365SOL    HW254634   2.377   5.568   4.006  1.3245  0.1311 -0.6657
17366SOL     OW54635   7.568   2.233   0.539  1.0826 -0.7221 -0.5570
17366SOL    HW154636   7.593   2.325   0.524  1.0637 -0.6112  0.0941
17366SOL    HW254637   7.536   2.203   0.454  0.0191  0.2112 -0.4912
17367SOL     OW54638   8.027   6.043   3.366  0.2279 -0.0098  0.3013
17367SOL    HW154639   7.933   6.046   3.384  0.2050  2.7561 -0.0879
17367SOL    HW254640   8.036   6.079   3.277  1.7290  0.5628  0.6674
17368SOL     OW54641   9.645   8.972   3.958  0.2841  0.3619  0.3549
17368SOL    HW154642   9.586   8.897   3.951  1.7290 -0.9336  1.6043
17368SOL    HW254643   9.720   8.949   3.903 -0.1822  1.8305 -0.9292
17369SOL     OW54644   2.847   7.764   8.751 -0.0411 -0.0698 -0.4102
17369SOL    HW154645   2.865   7.698   8.818 -0.6992 -0.1608 -0.3172
17369SOL    HW254646   2.779   7.725   8.696  0.3057  0.1120 -0.9780
17370SOL     OW54647   3.599   8.359   7.842 -0.1766  0.6394  0.2788
17370SOL    HW154648   3.538   8.304   7.891 -0.3416 -0.5214 -1.1949
17370SOL    HW254649   3.680   8.356   7.893 -0.4458 -0.2691  0.6660
17371SOL     OW54650   9.526   9.289   2.846  0.1548  0.2775  0.1410
17371SOL    HW154651   9.460   9.294   2.777 -1.6605 -2.2493  1.6035
17371SOL    HW254652   9.582   9.216   2.820  0.3137  0.2303  0.6091
17372SOL     OW54653   8.052   2.019   0.832 -0.3257  0.2794  0.4970
17372SOL    HW154654   8.018   1.930   0.822  1.1951 -0.0894 -1.4726
17372SOL    HW254655   8.104   2.016   0.912  1.5304 -1.1761 -0.7516
17373SOL     OW54656   0.564   8.899   5.398  0.6642  0.1284  0.3349
17373SOL    HW154657   0.590   8.867   5.484 -0.1386 -0.4485  0.3795
17373SOL    HW254658   0.580   8.825   5.339  0.3760  0.2148  0.1451
17374SOL     OW54659   5.153   7.706   7.870  0.1757 -0.2947 -0.1005
17374SOL    HW154660   5.222   7.716   7.935 -1.5368  1.2393  1.5404
17374SOL    HW254661   5.169   7.776   7.807 -0.5654  0.8077  0.9278
17375SOL     OW54662   4.061   5.977   5.028  0.4384 -0.7004  0.2288
17375SOL    HW154663   4.103   5.939   4.951 -1.0426 -2.1584  0.1212
17375SOL    HW254664   4.024   5.902   5.074 -1.0472  0.4497  0.9258
17376SOL     OW54665   7.729   6.590   2.164  0.1657 -0.4684 -0.6560
17376SOL    HW154666   7.749   6.683   2.152 -1.8137  1.3249  7.2120
17376SOL    HW254667   7.650   6.576   2.112 -1.3589  3.1914  0.5079
17377SOL     OW54668   9.094   6.967   1.045 -0.5516 -0.3428 -0.0967
17377SOL    HW154669   9.033   6.955   0.972  0.1480  1.8198 -1.0655
17377SOL    HW254670   9.044   7.014   1.111 -0.9502 -1.6353  0.5530
17378SOL     OW54671   4.538   8.033   5.379  0.1759  0.4360 -0.2883
17378SOL    HW154672   4.572   8.027   5.468  0.0858 -1.4827 -0.3574
17378SOL    HW254673   4.446   8.056   5.390  0.1473  0.1308  0.1284
17379SOL     OW54674   0.021   5.385   9.435  0.8285 -0.1968  0.2463
17379SOL    HW154675   0.090   5.431   9.482  0.4842  0.6122 -0.0268
17379SOL    HW254676  -0.059   5.431   9.460  0.7004  0.5824 -1.5375
17380SOL     OW54677   8.212   4.870   2.256 -0.4265  0.4341 -0.1720
17380SOL    HW154678   8.163   4.827   2.186  0.0910 -0.0477 -0.2425
17380SOL    HW254679   8.293   4.899   2.214  0.3967 -0.8584  0.4759
17381SOL     OW54680   6.137   2.895   4.941  0.7116 -0.4441 -0.3433
17381SOL    HW154681   6.200   2.929   5.005  1.3185  3.3414 -2.8022
17381SOL    HW254682   6.067   2.960   4.939 -0.8104 -2.0658 -1.3121
17382SOL     OW54683   0.929   0.832   5.159  0.1741 -0.2764  0.5908
17382SOL    HW154684   0.869   0.838   5.085  0.8738 -1.3918 -0.0731
17382SOL    HW254685   0.899   0.755   5.208  0.6876 -0.4814  0.5864
17383SOL     OW54686   2.140   3.253   3.764  0.5487  0.0665  0.8163
17383SOL    HW154687   2.054   3.213   3.749 -0.1334  1.7443  0.2002
17383SOL    HW254688   2.190   3.184   3.807 -0.8762 -1.1804  0.5405
17384SOL     OW54689   9.686   9.468   9.045  0.5864  0.2274  0.0184
17384SOL    HW154690   9.757   9.448   8.984 -0.5950 -1.3049 -0.8524
17384SOL    HW254691   9.701   9.560   9.069  2.7843 -0.0326 -0.2471
17385SOL     OW54692   8.361   1.387   6.150  0.5473 -0.8581 -0.0167
17385SOL    HW154693   8.282   1.385   6.204 -0.0471 -1.1996 -0.8859
17385SOL    HW254694   8.339   1.334   6.073  0.6357  1.3948 -1.6394
17386SOL     OW54695   1.383   2.223   9.007  0.5299 -0.3375 -0.1667
17386SOL    HW154696   1.390   2.261   8.919  0.1750  0.0089 -0.0477
17386SOL    HW254697   1.294   2.246   9.036 -0.1170 -2.2353 -0.5537
17387SOL     OW54698   1.824   0.352   8.528 -0.7311  0.1376  0.5283
17387SOL    HW154699   1.873   0.336   8.609 -0.9746  0.8916  0.8247
17387SOL    HW254700   1.838   0.272   8.476  2.3653  1.0648 -0.1901
17388SOL     OW54701   2.749   7.745   1.816 -0.6554 -0.3065  0.2421
17388SOL    HW154702   2.842   7.755   1.838 -0.6010 -1.4064  0.5603
17388SOL    HW254703   2.736   7.800   1.739  0.4301 -0.6767 -0.2156
17389SOL     OW54704   3.019   0.143   8.633 -0.3001 -0.2158  0.6061
17389SOL    HW154705   2.965   0.064   8.630  0.9746 -1.0947  0.0429
17389SOL    HW254706   3.108   0.110   8.644  0.5070  1.0336 -1.7959
17390SOL     OW54707   5.888   1.162   6.040  0.1692  0.1716 -0.3087
17390SOL    HW154708   5.834   1.089   6.009 -2.8744  2.5940 -0.9332
17390SOL    HW254709   5.971   1.152   5.994 -1.7581 -0.3884 -3.8530
17391SOL     OW54710  10.112   2.064   4.475 -0.3276 -0.2629  0.3572
17391SOL    HW154711  10.041   2.029   4.529  0.5436 -0.8055  1.1774
17391SOL    HW254712  10.189   2.059   4.531  0.1912  1.1661 -0.2105
17392SOL     OW54713   8.454   2.775   9.352 -0.2203 -0.2222 -0.1717
17392SOL    HW154714   8.471   2.712   9.281  2.3214  0.7720 -0.5205
17392SOL    HW254715   8.488   2.732   9.431  0.2850  0.1481 -0.1851
17393SOL     OW54716   7.654   3.425   7.706  0.3465 -0.2101  0.0071
17393SOL    HW154717   7.630   3.333   7.717 -0.8230 -0.0297 -0.8790
17393SOL    HW254718   7.603   3.454   7.630 -0.2069  1.4789  0.9953
17394SOL     OW54719   6.527   7.781   8.529  0.1574 -0.3738 -0.0242
17394SOL    HW154720   6.545   7.772   8.622  0.6091 -2.1420 -0.2482
17394SOL    HW254721   6.447   7.729   8.515 -1.0421  1.4893 -0.2970
17395SOL     OW54722   3.091   6.380   2.325  0.0758 -0.0687 -0.4255
17395SOL    HW154723   3.092   6.472   2.351 -0.6643  0.2735 -1.5869
17395SOL    HW254724   3.171   6.343   2.364  0.0592  0.9095  0.5649
17396SOL     OW54725   3.163   7.875   7.667 -0.1939  0.5398  0.2506
17396SOL    HW154726   3.204   7.797   7.629  1.7042 -0.2632  3.7194
17396SOL    HW254727   3.084   7.842   7.711  1.3016  0.2847  2.8415
17397SOL     OW54728   0.804   5.391   5.605 -0.0667  0.3448 -0.7708
17397SOL    HW154729   0.821   5.304   5.567  0.1040  0.3428 -0.6863
17397SOL    HW254730   0.721   5.379   5.652  1.0471 -0.3468  1.0539
17398SOL     OW54731  10.037   6.153   5.516 -0.0590 -0.1331  0.4769
17398SOL    HW154732  10.132   6.158   5.518 -0.0468  1.1846 -1.5459
17398SOL    HW254733  10.015   6.140   5.424 -1.8248 -0.7306  0.9506
17399SOL     OW54734   9.961   5.550   7.580  0.4770  0.1537  0.0246
17399SOL    HW154735   9.930   5.468   7.543 -0.5809  0.3387  0.4888
17399SOL    HW254736   9.969   5.533   7.674  1.0686  0.3386  0.0151
17400SOL     OW54737   5.048   1.216   9.108  0.4219 -0.6760 -0.5432
17400SOL    HW154738   5.134   1.236   9.071 -0.3061 -0.5970 -2.2114
17400SOL    HW254739   5.068   1.164   9.187  2.0239  0.3773 -0.2392
17401SOL     OW54740   2.021   6.919   0.723 -0.0347 -0.2466 -0.4459
17401SOL    HW154741   2.094   6.976   0.746 -0.8860  0.6179  0.1288
17401SOL    HW254742   1.993   6.881   0.807  0.3318 -1.2906 -0.7805
17402SOL     OW54743   1.986   6.609   4.956  0.1562 -0.9301  0.3945
17402SOL    HW154744   2.051   6.669   4.919 -1.2148 -0.7488 -1.8149
17402SOL    HW254745   2.027   6.573   5.035  2.4529  0.0738 -0.3340
17403SOL     OW54746   8.836   2.112   4.535 -0.8669  0.1778 -0.2942
17403SOL    HW154747   8.801   2.201   4.542 -0.3912  0.4075 -0.8079
17403SOL    HW254748   8.858   2.103   4.442 -0.0945 -0.1729 -0.0723
17404SOL     OW54749   1.996   8.197   4.033  0.3775 -0.4344  0.5845
17404SOL    HW154750   1.904   8.174   4.040 -0.1797  0.8554 -1.9399
17404SOL    HW254751   2.004   8.279   4.081  0.3983 -0.9453  1.4724
17405SOL     OW54752   0.785   8.679   6.264 -0.0775 -0.4123 -0.1736
17405SOL    HW154753   0.779   8.599   6.213 -1.9139 -0.3034 -0.1529
17405SOL    HW254754   0.864   8.668   6.317 -1.1302 -2.8896  0.9457
17406SOL     OW54755   8.030   3.971   3.567 -0.4424 -0.5252 -0.1014
17406SOL    HW154756   7.957   3.911   3.578 -0.5145 -0.5722 -0.8029
17406SOL    HW254757   8.091   3.949   3.638 -2.1275  1.0357  1.8920
17407SOL     OW54758   2.456   7.118   0.295 -0.5052 -0.2904 -0.3128
17407SOL    HW154759   2.408   7.196   0.266 -1.3104 -1.2379 -1.5405
17407SOL    HW254760   2.422   7.047   0.241 -0.5664 -1.7080  1.5446
17408SOL     OW54761   7.555   4.860   0.585  0.0894  0.1323  0.3617
17408SOL    HW154762   7.483   4.924   0.588 -0.1554 -0.2015  1.7259
17408SOL    HW254763   7.528   4.790   0.644  2.1168  0.6153  1.9075
17409SOL     OW54764   3.998  10.077   6.731 -0.2961  0.2533 -0.4219
17409SOL    HW154765   3.921  10.086   6.675  0.2907 -2.4400 -1.7625
17409SOL    HW254766   3.968  10.023   6.804  0.0694  0.0180 -0.4447
17410SOL     OW54767   2.481   4.011   7.218  0.4599  0.2946  0.0382
17410SOL    HW154768   2.487   4.100   7.185  2.0285  0.1745 -0.0077
17410SOL    HW254769   2.565   3.970   7.195 -0.4385 -1.3551 -0.4281
17411SOL     OW54770   7.709   9.917   8.805 -0.3160 -0.0296  0.0362
17411SOL    HW154771   7.666   9.832   8.810 -1.5594  0.6640  1.4987
17411SOL    HW254772   7.780   9.905   8.742  1.5487 -3.0463  2.5500
17412SOL     OW54773   7.693   8.138   9.242 -0.1128  0.3217  0.2581
17412SOL    HW154774   7.648   8.158   9.325  2.1916  0.3030  1.5501
17412SOL    HW254775   7.687   8.043   9.234  0.4863  0.2201  0.9152
17413SOL     OW54776   1.906   7.274   8.211 -0.4698 -0.2092  0.1931
17413SOL    HW154777   1.891   7.184   8.182 -1.2606 -0.1528  0.4272
17413SOL    HW254778   1.986   7.300   8.166  0.5209 -1.4990  1.1691
17414SOL     OW54779   9.008   0.921   8.433 -0.0379 -0.0687  0.7942
17414SOL    HW154780   8.972   0.906   8.346  0.0670  2.1527  0.3270
17414SOL    HW254781   9.096   0.885   8.429  0.0802  0.2900 -0.1396
17415SOL     OW54782   1.857   7.651   3.770  0.5896  0.3863  0.1876
17415SOL    HW154783   1.782   7.652   3.829  0.5459  0.4967  0.1299
17415SOL    HW254784   1.865   7.741   3.739 -1.0420 -0.1995 -2.0746
17416SOL     OW54785   1.681   4.469   4.394 -0.0113 -0.0258  0.1203
17416SOL    HW154786   1.771   4.446   4.418  0.6319  1.2136 -1.0720
17416SOL    HW254787   1.676   4.564   4.407 -1.0316 -0.0294 -0.1985
17417SOL     OW54788   0.970   2.030   4.973  0.4732  0.5565 -0.1350
17417SOL    HW154789   0.902   1.967   4.999 -0.1879  0.6405 -1.6447
17417SOL    HW254790   1.052   1.985   4.990  0.0033 -0.9689 -1.7943
17418SOL     OW54791   7.991   7.125   8.776  0.6548  0.1441  0.0364
17418SOL    HW154792   7.971   7.217   8.792  2.6776  0.7075 -0.5644
17418SOL    HW254793   8.084   7.116   8.797  0.8476 -1.4286 -1.3597
17419SOL     OW54794   1.733   0.322   3.664 -0.4111  0.1010  0.1753
17419SOL    HW154795   1.798   0.291   3.727  0.2382  0.8081 -0.1382
17419SOL    HW254796   1.774   0.398   3.623 -0.8044 -0.3979 -1.1530
17420SOL     OW54797   7.182   0.451   9.573 -0.2700 -0.2156  0.4971
17420SOL    HW154798   7.125   0.526   9.557 -0.3074 -0.3603 -0.0666
17420SOL    HW254799   7.254   0.486   9.625 -0.6455  0.0595  0.8339
17421SOL     OW54800   5.913   7.821   5.819  0.1376  0.3448  0.1956
17421SOL    HW154801   5.904   7.738   5.772 -0.1641  0.3282  0.2771
17421SOL    HW254802   5.883   7.801   5.908  2.0809  0.0167  0.7955
17422SOL     OW54803   6.815   3.990   4.964  0.1334  0.0319  0.1873
17422SOL    HW154804   6.765   3.913   4.990  0.5124 -0.4677 -0.5451
17422SOL    HW254805   6.787   4.008   4.874 -1.7345  2.1988  1.1384
17423SOL     OW54806   9.942   4.651   3.536  0.0179 -0.3490 -0.4543
17423SOL    HW154807   9.859   4.606   3.524 -0.0110 -0.4753  0.2004
17423SOL    HW254808  10.008   4.587   3.508 -0.0007 -0.9382  0.8258
17424SOL     OW54809   5.032   5.171   6.810  0.2341  0.1136  0.0349
17424SOL    HW154810   5.096   5.240   6.827 -0.2112  0.7599 -0.9057
17424SOL    HW254811   5.068   5.094   6.854  1.2564  0.6746  0.1967
17425SOL     OW54812   1.484   1.763   1.597  0.1897 -0.0404 -0.3968
17425SOL    HW154813   1.554   1.811   1.642  0.8308 -0.7393 -0.6379
17425SOL    HW254814   1.445   1.708   1.664  1.1201 -1.0531 -0.6714
17426SOL     OW54815   3.717   1.253   7.367  0.0209  0.2931 -0.4644
17426SOL    HW154816   3.670   1.203   7.301  0.7053 -0.6100 -0.2888
17426SOL    HW254817   3.806   1.217   7.365 -0.3419 -0.8186  2.0263
17427SOL     OW54818   6.074   2.611   4.595  0.1213  0.1827 -0.1928
17427SOL    HW154819   5.987   2.579   4.574 -0.4098  1.6701 -0.2734
17427SOL    HW254820   6.068   2.643   4.685  1.2264 -1.9707  0.6811
17428SOL     OW54821   7.868   0.202   8.415 -0.2345 -0.1148 -0.1270
17428SOL    HW154822   7.845   0.169   8.328  1.1915  1.2211 -1.0391
17428SOL    HW254823   7.791   0.250   8.444 -1.4750 -2.2462  0.2293
17429SOL     OW54824   5.620   3.711   9.738 -0.1495 -0.1009 -0.4270
17429SOL    HW154825   5.688   3.771   9.708 -1.1202  1.1627 -0.0974
17429SOL    HW254826   5.646   3.688   9.827 -0.4583  0.8280 -0.0952
17430SOL     OW54827   0.705   9.829   4.914  0.4736  0.1910  0.0656
17430SOL    HW154828   0.641   9.884   4.958  1.9436  1.1734  1.0054
17430SOL    HW254829   0.717   9.870   4.828  0.3208  0.3659  0.1275
17431SOL     OW54830  10.188   3.818   1.980 -0.1235 -0.0788  0.1133
17431SOL    HW154831  10.242   3.753   1.936 -0.2676 -1.3239  1.7091
17431SOL    HW254832  10.109   3.824   1.927  0.7812  0.3685 -1.2007
17432SOL     OW54833   7.111   4.348   6.815 -0.1591 -0.7480 -0.1931
17432SOL    HW154834   7.121   4.349   6.720  1.8231  0.0725 -0.0138
17432SOL    HW254835   7.167   4.276   6.845  0.6435  0.1301  0.4620
17433SOL     OW54836   9.400   2.242   4.528  0.6629  0.2610 -0.1392
17433SOL    HW154837   9.383   2.310   4.463 -0.1219 -0.6268 -0.8659
17433SOL    HW254838   9.331   2.177   4.515  0.8315 -0.2105  1.1997
17434SOL     OW54839   9.218   8.623   4.195  0.7740 -0.0093 -0.4064
17434SOL    HW154840   9.217   8.559   4.266 -0.0703 -0.1245 -0.5117
17434SOL    HW254841   9.284   8.687   4.220  1.2911 -0.6742 -0.0693
17435SOL     OW54842   2.679   3.084   1.380 -0.6828  0.2172  0.4793
17435SOL    HW154843   2.718   3.003   1.414  0.3010  0.0202 -1.0852
17435SOL    HW254844   2.619   3.056   1.311  0.8969  0.8976 -1.2054
17436SOL     OW54845   9.271   2.111   5.349  0.5549 -0.2912  0.2790
17436SOL    HW154846   9.248   2.075   5.263 -1.3279 -1.9768  1.4570
17436SOL    HW254847   9.229   2.197   5.351 -0.9392 -0.9972  0.1913
17437SOL     OW54848   9.936   5.689   4.578 -0.5749 -0.4031  0.1420
17437SOL    HW154849   9.854   5.655   4.612 -1.6354  1.8318 -0.0688
17437SOL    HW254850   9.979   5.729   4.653 -1.3001  1.4532 -0.3944
17438SOL     OW54851   6.115   7.385   2.116 -0.0719  0.2775 -0.1563
17438SOL    HW154852   6.160   7.303   2.135 -0.8363 -0.1136 -0.0251
17438SOL    HW254853   6.022   7.365   2.127 -0.3817  0.6604 -1.9325
17439SOL     OW54854   0.403   6.535   0.268 -0.1011 -0.3193 -0.2940
17439SOL    HW154855   0.440   6.509   0.352 -4.3834 -1.0184  1.4822
17439SOL    HW254856   0.374   6.625   0.281  0.9179  0.2380 -1.6840
17440SOL     OW54857   7.989   1.864   7.414  0.1414  0.2260 -0.0666
17440SOL    HW154858   8.024   1.835   7.330 -0.6154  0.0316 -0.3164
17440SOL    HW254859   8.064   1.904   7.459  0.2100  1.7274 -1.4630
17441SOL     OW54860   3.120   8.812   8.573  0.3465  0.0595 -0.0599
17441SOL    HW154861   3.046   8.863   8.541 -0.8302 -2.3929 -1.3865
17441SOL    HW254862   3.082   8.755   8.640  1.4286  0.1529  0.6474
17442SOL     OW54863   6.296   1.702   6.905  0.1886 -0.2350 -0.1078
17442SOL    HW154864   6.350   1.768   6.861 -0.4691  0.0008 -0.5732
17442SOL    HW254865   6.352   1.625   6.909  0.9550  0.3440  0.4181
17443SOL     OW54866   6.598   8.318   9.292  0.8784 -0.7723  0.0659
17443SOL    HW154867   6.512   8.307   9.250 -0.2065  1.5755  1.5093
17443SOL    HW254868   6.598   8.255   9.363  0.4614 -0.9849 -0.1153
17444SOL     OW54869   3.393   4.883   8.335  0.0955 -0.2147 -0.4475
17444SOL    HW154870   3.412   4.956   8.276 -0.8672 -2.4200 -3.6473
17444SOL    HW254871   3.300   4.890   8.353  0.2967  0.1884  0.4327
17445SOL     OW54872   6.046   5.882   9.714  0.5317  0.0306  0.2051
17445SOL    HW154873   6.056   5.892   9.809  0.4202 -1.1652  0.3532
17445SOL    HW254874   6.092   5.957   9.677  0.0345  0.8473  1.2246
17446SOL     OW54875   3.874   5.954   3.447 -0.2911 -0.2938  0.5121
17446SOL    HW154876   3.872   5.858   3.452 -0.5260 -0.1672  3.9248
17446SOL    HW254877   3.784   5.981   3.464  0.2829  0.5747  2.3446
17447SOL     OW54878   3.648   3.707   1.760  0.0562 -0.4870  0.0955
17447SOL    HW154879   3.651   3.675   1.851  0.9359 -0.8128 -0.0352
17447SOL    HW254880   3.588   3.648   1.716 -0.6346 -0.1237  0.5463
17448SOL     OW54881   5.798   3.561   1.614 -0.2270  0.1995 -0.5366
17448SOL    HW154882   5.857   3.635   1.630 -0.1316  0.0477 -0.1670
17448SOL    HW254883   5.727   3.573   1.677  1.1802 -1.5132  1.4495
17449SOL     OW54884   8.492   5.844   7.348  0.0989  0.1184 -0.9289
17449SOL    HW154885   8.478   5.750   7.361 -0.4865  0.3576  0.2550
17449SOL    HW254886   8.451   5.863   7.264 -0.7370 -0.4904 -0.6667
17450SOL     OW54887   1.863   2.844   2.948  0.4078  0.1527 -0.9522
17450SOL    HW154888   1.829   2.895   3.021  2.4365  2.5873 -1.6329
17450SOL    HW254889   1.830   2.889   2.870  1.3689 -0.1999 -1.5697
17451SOL     OW54890   5.926   9.180   8.958  0.2909  0.0567 -0.4893
17451SOL    HW154891   5.874   9.257   8.979  0.9589  0.7634 -1.4362
17451SOL    HW254892   5.867   9.125   8.905 -0.1741 -0.0814  0.1668
17452SOL     OW54893   4.976   5.275   5.290  0.2744  0.7055 -0.1606
17452SOL    HW154894   5.015   5.321   5.365 -0.8955 -0.0783  0.9713
17452SOL    HW254895   5.042   5.280   5.221  1.0061  2.2742  0.6104
17453SOL     OW54896   0.546   9.143   2.454  0.1992 -0.6366  0.1535
17453SOL    HW154897   0.509   9.146   2.542 -1.4085 -0.1723 -0.5300
17453SOL    HW254898   0.610   9.072   2.458  0.0429 -0.7147  1.6515
17454SOL     OW54899   7.486   0.231   0.973  0.1984 -0.0364 -0.0250
17454SOL    HW154900   7.561   0.290   0.980  0.5571 -0.4732 -0.2072
17454SOL    HW254901   7.505   0.160   1.033 -0.4683  0.2716  0.5655
17455SOL     OW54902   7.135   9.636   8.397  0.0236  0.1304 -0.2206
17455SOL    HW154903   7.197   9.578   8.441  0.2090  0.7407  0.3204
17455SOL    HW254904   7.149   9.722   8.437  1.4917  1.0988 -2.7132
17456SOL     OW54905   3.565   6.693   1.295  0.3440  0.0636 -0.0646
17456SOL    HW154906   3.479   6.700   1.337 -0.2479 -1.0719 -1.0599
17456SOL    HW254907   3.608   6.622   1.342 -0.1296 -0.8729 -1.0200
17457SOL     OW54908   3.618   3.198   5.506  0.1275 -0.3181  0.0219
17457SOL    HW154909   3.581   3.273   5.552 -0.1175 -0.5653  0.2401
17457SOL    HW254910   3.570   3.123   5.543  2.0183 -0.8263  1.5231
17458SOL     OW54911   5.517   7.395   1.358  0.4326 -0.1899 -0.3260
17458SOL    HW154912   5.588   7.364   1.414  0.2329 -0.7310 -0.3692
17458SOL    HW254913   5.526   7.490   1.359  1.0175 -0.2435 -0.1483
17459SOL     OW54914   7.651   6.399   7.184  0.1257 -0.2636 -0.5699
17459SOL    HW154915   7.597   6.389   7.105 -0.9179  0.8736 -0.0328
17459SOL    HW254916   7.599   6.358   7.254 -0.6634  1.9018  0.1850
17460SOL     OW54917   2.649   8.698   2.931  0.4606  0.1314  0.5440
17460SOL    HW154918   2.623   8.612   2.964 -0.1253 -0.1945 -0.7340
17460SOL    HW254919   2.568   8.749   2.930  0.4077  0.0365 -0.6721
17461SOL     OW54920   2.448   6.751   4.104 -0.1462  0.2710 -0.2568
17461SOL    HW154921   2.460   6.680   4.041  0.5942 -0.2350  0.4544
17461SOL    HW254922   2.374   6.801   4.069 -0.4968 -0.6813 -0.9054
17462SOL     OW54923   1.451   5.161   0.721  0.6815 -0.1697  0.4235
17462SOL    HW154924   1.512   5.229   0.750  0.4300  0.0654  0.4005
17462SOL    HW254925   1.369   5.181   0.766  0.0073  0.7597 -1.1678
17463SOL     OW54926   4.935   5.807   5.322 -0.1527  0.6962 -0.2475
17463SOL    HW154927   4.893   5.893   5.319  0.8979  1.1894 -1.3466
17463SOL    HW254928   5.007   5.813   5.259  1.9711  0.1105  1.9972
17464SOL     OW54929   2.870   5.872   5.999 -0.5044  0.2852 -0.2410
17464SOL    HW154930   2.930   5.947   5.997  0.9122 -0.8432 -0.8482
17464SOL    HW254931   2.893   5.821   5.921 -1.7439 -0.5588 -0.0627
17465SOL     OW54932   4.969   3.786   9.676 -0.0861  0.3867 -0.2070
17465SOL    HW154933   4.915   3.803   9.753 -0.6486  1.2620 -0.7939
17465SOL    HW254934   4.923   3.829   9.604 -0.4993 -1.9116 -1.3635
17466SOL     OW54935   4.284   5.797   7.335  0.0544 -0.3461 -0.4952
17466SOL    HW154936   4.299   5.704   7.320  0.9333 -0.0411 -1.5372
17466SOL    HW254937   4.371   5.834   7.352 -0.3156  0.2411  0.1788
17467SOL     OW54938   4.864   5.642   3.017  0.1883 -0.4679 -0.4618
17467SOL    HW154939   4.881   5.566   3.074  0.2834 -0.8519 -0.9979
17467SOL    HW254940   4.772   5.664   3.036 -0.0742 -1.1900 -0.8508
17468SOL     OW54941   8.971   6.222   2.190 -0.6213 -0.5086  0.8544
17468SOL    HW154942   9.029   6.170   2.134 -0.9040 -0.5228  0.5780
17468SOL    HW254943   8.883   6.203   2.158 -0.7872 -0.5692  1.3420
17469SOL     OW54944   7.467   4.033   5.918 -0.1795 -0.4840  0.3322
17469SOL    HW154945   7.404   4.073   5.859  0.9734  0.6678 -0.1510
17469SOL    HW254946   7.550   4.035   5.869  0.6474 -0.1501  1.7150
17470SOL     OW54947   2.143   0.392   4.593  0.5604  0.3037  0.0159
17470SOL    HW154948   2.099   0.475   4.610  0.3476  0.4124 -1.0245
17470SOL    HW254949   2.090   0.351   4.524  0.9592 -0.4561  0.1592
17471SOL     OW54950   7.525   8.539   6.465 -0.2958 -0.6347 -0.2277
17471SOL    HW154951   7.518   8.524   6.371  0.3314  1.6103 -0.6502
17471SOL    HW254952   7.604   8.491   6.490  0.3105 -0.1107 -1.1039
17472SOL     OW54953   9.942   6.378   0.154 -0.2623  0.1910 -0.1753
17472SOL    HW154954   9.964   6.343   0.241 -1.9657 -2.9978 -0.9640
17472SOL    HW254955  10.021   6.362   0.102 -0.4753 -1.1782 -0.1140
17473SOL     OW54956   2.077   4.852   5.308  0.1181 -0.0221 -0.0806
17473SOL    HW154957   2.157   4.894   5.278  0.6164 -2.1179 -1.7546
17473SOL    HW254958   2.093   4.758   5.299 -2.6470 -0.4795 -0.8129
17474SOL     OW54959   9.112  10.201   2.370 -0.7269 -0.0747 -0.2331
17474SOL    HW154960   9.020  10.222   2.385 -1.1006 -0.1705 -2.2316
17474SOL    HW254961   9.161  10.266   2.422 -1.9033 -0.5340  1.4749
17475SOL     OW54962   9.551   5.323   9.684 -0.1091  0.7153 -0.0389
17475SOL    HW154963   9.533   5.349   9.775  0.9177  0.4639  0.2465
17475SOL    HW254964   9.510   5.237   9.675  1.5176 -0.1677  0.8171
17476SOL     OW54965   3.815   8.670  10.130 -0.2696 -0.1076 -0.3061
17476SOL    HW154966   3.732   8.651  10.088 -1.0491  0.5599  0.8883
17476SOL    HW254967   3.832   8.594  10.185 -0.2272 -0.1389 -0.3639
17477SOL     OW54968   9.825   2.570   0.150  0.1333 -0.0615  0.1046
17477SOL    HW154969   9.918   2.569   0.128  0.0020  0.6307 -0.5123
17477SOL    HW254970   9.792   2.485   0.120 -0.5035  1.6917 -4.5750
17478SOL     OW54971   3.841   1.301   3.055 -0.3328  0.3515 -0.4719
17478SOL    HW154972   3.763   1.308   2.999 -0.4323 -1.6495 -0.6181
17478SOL    HW254973   3.913   1.288   2.993 -0.0645  0.8032 -0.2580
17479SOL     OW54974   3.133   7.913   9.343  0.4769 -0.0489 -0.5904
17479SOL    HW154975   3.221   7.874   9.344  1.1057  1.2214 -2.1032
17479SOL    HW254976   3.150   8.007   9.346 -0.9575  0.1470  1.7513
17480SOL     OW54977   6.786   4.526   3.537  0.0503 -0.1507  0.2233
17480SOL    HW154978   6.721   4.576   3.585 -1.1979  0.2037 -1.7889
17480SOL    HW254979   6.846   4.493   3.604 -0.5627  1.9105  1.8086
17481SOL     OW54980   5.169   6.358   5.223  0.1711 -0.2769  0.7185
17481SOL    HW154981   5.171   6.292   5.154 -0.6757  0.4820 -0.0558
17481SOL    HW254982   5.241   6.417   5.202 -2.0771  1.8093 -1.4403
17482SOL     OW54983   2.584   7.223   3.780 -0.2572 -0.3421 -0.1648
17482SOL    HW154984   2.647   7.290   3.805 -0.3065 -0.0038 -0.9472
17482SOL    HW254985   2.541   7.258   3.702  0.3886 -1.6976 -1.1595
17483SOL     OW54986   3.414   3.013   7.764 -0.4637 -0.1222 -0.5821
17483SOL    HW154987   3.413   2.927   7.807 -0.7518 -0.7781 -1.8536
17483SOL    HW254988   3.325   3.045   7.773 -0.0023  0.7223  1.1828
17484SOL     OW54989   9.650   6.642   5.519 -0.5267  0.0375 -0.3379
17484SOL    HW154990   9.589   6.676   5.585 -0.7103 -1.1617  0.1215
17484SOL    HW254991   9.723   6.607   5.570  1.2663  2.7467 -0.9144
17485SOL     OW54992  10.125  10.084   3.056  0.1912  0.0902 -0.0729
17485SOL    HW154993  10.198  10.038   3.098 -0.8493  0.7205  2.5507
17485SOL    HW254994  10.094  10.024   2.988  0.7957 -1.7877  1.2826
17486SOL     OW54995   8.080   5.279   6.808  0.0317  0.3266  0.0825
17486SOL    HW154996   8.003   5.324   6.842 -0.4001  0.0275 -0.4918
17486SOL    HW254997   8.113   5.335   6.738  0.4245  0.5246  0.4219
17487SOL     OW54998   4.912   6.858   2.577 -0.0484  0.4204  0.5661
17487SOL    HW154999   4.974   6.910   2.527  2.3980 -3.1573 -0.2959
17487SOL    HW255000   4.966   6.804   2.634 -2.4600 -1.2198  1.3860
17488SOL     OW55001   3.025   5.966   1.552  0.1593  0.0310 -0.1437
17488SOL    HW155002   3.011   6.007   1.467  2.9295 -0.1682 -0.7578
17488SOL    HW255003   3.042   5.874   1.531 -3.5907 -1.0218  1.0263
17489SOL     OW55004   9.177   4.912   6.357  0.0139  0.7074 -0.2633
17489SOL    HW155005   9.154   4.845   6.292 -0.4403  0.4370  0.1753
17489SOL    HW255006   9.137   4.882   6.438  1.2575  0.6443  0.3367
17490SOL     OW55007   5.067   4.392   2.149  0.4723  0.4185  0.1015
17490SOL    HW155008   5.038   4.389   2.058  2.2036  1.5647 -0.5108
17490SOL    HW255009   4.986   4.388   2.200 -0.7240  2.8559 -1.5283
17491SOL     OW55010   2.321   1.310   4.728  0.2966 -0.4435 -0.3400
17491SOL    HW155011   2.399   1.270   4.765  0.6287 -0.5451 -1.1369
17491SOL    HW255012   2.353   1.358   4.651 -0.1855  0.8364  0.2547
17492SOL     OW55013   3.273   6.075   5.000  0.0686 -0.5059 -0.4020
17492SOL    HW155014   3.226   6.018   4.941  2.1924 -1.7675 -0.9217
17492SOL    HW255015   3.331   6.017   5.050  0.4151  0.8731  0.8622
17493SOL     OW55016   7.801   0.643   6.863 -0.7068  0.2353  0.1884
17493SOL    HW155017   7.822   0.550   6.857 -1.1249  0.0598  1.4770
17493SOL    HW255018   7.734   0.657   6.796 -0.8222 -0.4411  0.1621
17494SOL     OW55019   8.388   9.076   4.363  0.1388  0.3518 -0.2396
17494SOL    HW155020   8.416   9.145   4.423 -0.7962 -0.1138  0.7653
17494SOL    HW255021   8.351   9.008   4.421  1.5320 -1.2301 -1.1534
17495SOL     OW55022   7.364   7.160   3.568 -0.0855  0.7736  0.0634
17495SOL    HW155023   7.293   7.096   3.567 -0.8353  1.5858 -1.6687
17495SOL    HW255024   7.444   7.108   3.576 -0.8039 -0.2542  0.5448
17496SOL     OW55025   8.719   0.650   0.192  0.1796  0.1353  0.2708
17496SOL    HW155026   8.754   0.674   0.106  3.5012  1.3368  1.8605
17496SOL    HW255027   8.652   0.715   0.210  0.4993  0.7687 -0.7841
17497SOL     OW55028   7.310   6.670   8.243  0.5024  0.1907  0.2095
17497SOL    HW155029   7.259   6.627   8.174 -0.2905 -0.5654  1.2312
17497SOL    HW255030   7.397   6.631   8.236  0.8835  1.3050 -1.3912
17498SOL     OW55031   9.697   4.354   3.941  0.4467 -0.3666 -0.5368
17498SOL    HW155032   9.665   4.265   3.930 -0.4412 -0.2756  1.2399
17498SOL    HW255033   9.634   4.408   3.892  1.5302 -0.7752 -2.4341
17499SOL     OW55034   8.001   4.272   6.946  0.3583  0.2732  0.4917
17499SOL    HW155035   7.942   4.196   6.943  1.6007 -0.7178  0.5731
17499SOL    HW255036   8.024   4.281   7.038  0.4713  0.5420  0.4380
17500SOL     OW55037   2.905   4.855   5.849  0.2735  0.3402 -0.6346
17500SOL    HW155038   2.989   4.892   5.877  0.7723 -0.5040 -0.9803
17500SOL    HW255039   2.912   4.762   5.871 -0.7158  0.3379 -0.3404
17501SOL     OW55040   4.156   4.162   4.303  0.5507  0.4064  0.4371
17501SOL    HW155041   4.221   4.226   4.333 -0.9430  1.8118  0.7850
17501SOL    HW255042   4.167   4.160   4.208  1.0160  0.7327  0.4802
17502SOL     OW55043   5.152   7.528   6.748  0.2740  0.5511  0.6972
17502SOL    HW155044   5.219   7.480   6.797 -0.5498 -1.7256 -0.3270
17502SOL    HW255045   5.138   7.475   6.670 -0.6656  2.5183 -0.4811
17503SOL     OW55046   0.022   0.892   9.418  0.7144  0.3129  0.3022
17503SOL    HW155047  -0.053   0.923   9.468  0.3019  0.8707 -0.6575
17503SOL    HW255048  -0.016   0.839   9.348  1.1811  1.0155 -0.4869
17504SOL     OW55049   0.325   0.007   8.185 -0.2676 -0.1730 -0.6503
17504SOL    HW155050   0.396  -0.040   8.141 -0.5196 -0.4374 -0.7796
17504SOL    HW255051   0.367   0.051   8.259 -0.4326 -2.6648  0.9856
17505SOL     OW55052   8.392   7.854   5.106  0.3613  0.1804 -0.2198
17505SOL    HW155053   8.486   7.837   5.110  0.6626  1.6896 -0.4292
17505SOL    HW255054   8.384   7.932   5.051 -0.6846  2.2987  2.8101
17506SOL     OW55055   2.835   1.269   7.628 -0.3591 -0.2665  0.2259
17506SOL    HW155056   2.798   1.276   7.716 -1.5403  0.5616 -0.3255
17506SOL    HW255057   2.913   1.214   7.639  2.3372  3.7830  2.6935
17507SOL     OW55058   0.137   4.795  10.044  0.6487 -0.3595 -0.2636
17507SOL    HW155059   0.100   4.777   9.958 -0.2118 -0.2417  0.0744
17507SOL    HW255060   0.121   4.715  10.094  2.2722 -0.8944 -0.5854
17508SOL     OW55061   6.605   2.442   7.911 -0.5233 -0.1532 -0.9937
17508SOL    HW155062   6.523   2.393   7.911 -0.7739  0.1773  2.1773
17508SOL    HW255063   6.656   2.405   7.983  1.5710  0.5627 -2.0486
17509SOL     OW55064   2.810   6.762   5.355 -0.0348  0.6924 -0.5155
17509SOL    HW155065   2.774   6.763   5.266  0.6561 -1.3220 -0.8472
17509SOL    HW255066   2.862   6.682   5.358 -1.0511  0.0854  2.0931
17510SOL     OW55067   3.678   0.106   9.936  0.0942  0.0607 -0.1995
17510SOL    HW155068   3.651   0.112   9.844  1.3882  1.9909 -0.4924
17510SOL    HW255069   3.747   0.172   9.945  1.3843 -1.4924  1.6769
17511SOL     OW55070   2.510   7.565   1.816 -0.3764  0.2982  0.3011
17511SOL    HW155071   2.565   7.503   1.768 -1.1048  0.6262 -0.9542
17511SOL    HW255072   2.559   7.648   1.813  0.4364 -0.1067  1.6936
17512SOL     OW55073   0.940   0.691   1.128  0.2951  0.1508  0.1497
17512SOL    HW155074   0.987   0.762   1.171  1.1861 -1.1101  1.2942
17512SOL    HW255075   0.944   0.618   1.190  0.3179 -1.2331 -1.4393
17513SOL     OW55076   4.103   9.233   4.687 -0.3746  0.5471  0.3106
17513SOL    HW155077   4.185   9.184   4.699  0.1035  1.2863  0.0534
17513SOL    HW255078   4.125   9.323   4.708 -1.3100  0.6312  0.9700
17514SOL     OW55079   3.173   0.146   4.165  0.2069 -0.0517 -0.7308
17514SOL    HW155080   3.252   0.112   4.124 -0.8127 -1.5294 -1.5500
17514SOL    HW255081   3.104   0.130   4.100 -1.1863 -1.1477  0.9850
17515SOL     OW55082   1.675   0.767   4.518 -0.1653  0.1325 -0.4923
17515SOL    HW155083   1.678   0.680   4.476  1.9539  0.1414 -0.4303
17515SOL    HW255084   1.723   0.824   4.458  2.0793  0.3614  1.4489
17516SOL     OW55085   7.368   3.503   0.947 -0.1482 -0.0188  0.2336
17516SOL    HW155086   7.348   3.583   0.995 -0.5308 -0.6027  1.0652
17516SOL    HW255087   7.285   3.456   0.943  0.6347 -1.6435  2.1585
17517SOL     OW55088   8.328   4.031   9.489  0.2098  0.1332  0.0754
17517SOL    HW155089   8.304   4.047   9.580  0.4838  0.8225  0.0302
17517SOL    HW255090   8.386   3.955   9.492  1.9820  1.4829  0.7124
17518SOL     OW55091   9.453   3.372   4.511  0.0059  0.3736 -0.2841
17518SOL    HW155092   9.536   3.341   4.546 -0.3076  0.2989  0.4014
17518SOL    HW255093   9.452   3.341   4.420 -0.4890 -2.0116  0.4864
17519SOL     OW55094   4.786   2.327   1.943  0.2690  0.1822 -0.0180
17519SOL    HW155095   4.752   2.399   1.890  3.5720  1.0345 -1.1583
17519SOL    HW255096   4.785   2.361   2.033  1.5253  1.5859 -0.5043
17520SOL     OW55097   7.396   8.671   6.842  0.0460 -0.0467 -0.5500
17520SOL    HW155098   7.379   8.596   6.785 -1.9123 -0.1329  0.1169
17520SOL    HW255099   7.452   8.636   6.911 -0.1558 -0.6915 -0.7082
17521SOL     OW55100   7.255   8.973   6.794  0.3178  0.1704 -0.3865
17521SOL    HW155101   7.297   9.047   6.751  2.1709 -1.3539 -1.2543
17521SOL    HW255102   7.317   8.946   6.862 -0.8880  0.1734  0.7245
17522SOL     OW55103   5.781   4.031   0.774  0.0491  0.0937 -0.3543
17522SOL    HW155104   5.777   3.967   0.703  0.6316 -1.6151  1.1171
17522SOL    HW255105   5.709   4.091   0.755 -0.6407 -1.0894 -1.6643
17523SOL     OW55106   0.059   6.433   9.295  0.4029 -1.0534  0.4264
17523SOL    HW155107   0.077   6.346   9.258  2.5929 -0.5354  0.2108
17523SOL    HW255108   0.127   6.444   9.362  0.0867  0.4728  0.4982
17524SOL     OW55109   8.149   5.930   2.763 -0.2516  0.1336  0.3917
17524SOL    HW155110   8.223   5.937   2.823  0.8275  0.4560 -0.9547
17524SOL    HW255111   8.175   5.865   2.699 -1.5737 -0.5289  0.4998
17525SOL     OW55112   8.159   2.868  10.112 -0.0774 -0.3089  0.4194
17525SOL    HW155113   8.101   2.859  10.188  1.4444  0.3516  1.6948
17525SOL    HW255114   8.213   2.944  10.132 -0.7051  0.8205 -2.0696
17526SOL     OW55115   3.792   5.413   6.427 -0.3636 -0.0700 -0.8433
17526SOL    HW155116   3.881   5.389   6.454 -0.4106  1.3245  0.6611
17526SOL    HW255117   3.745   5.330   6.425  0.3562 -0.5580  0.8089
17527SOL     OW55118   1.126   3.330   2.077 -0.4213  0.4938  0.0996
17527SOL    HW155119   1.031   3.339   2.081 -0.2853  1.1820  2.8966
17527SOL    HW255120   1.150   3.292   2.162  1.6447 -1.3670 -1.2537
17528SOL     OW55121   3.646   9.874   3.095  0.4893  0.4968 -0.1964
17528SOL    HW155122   3.722   9.875   3.153  0.5772 -0.1742 -0.2971
17528SOL    HW255123   3.636   9.965   3.068  0.3471  0.8414  1.0006
17529SOL     OW55124   4.710   8.060   8.709  0.0480 -0.9032 -0.0868
17529SOL    HW155125   4.802   8.059   8.680 -0.3220  0.4386 -1.3338
17529SOL    HW255126   4.700   8.145   8.752 -0.9675 -0.4484 -1.1844
17530SOL     OW55127  10.110   9.191   1.104  0.5035 -0.3086  0.3445
17530SOL    HW155128  10.074   9.235   1.027  0.1083 -0.1169  0.6337
17530SOL    HW255129  10.204   9.196   1.092  0.5146  2.1103  1.1798
17531SOL     OW55130   6.643   7.507   6.937  0.5716  0.2363  0.3333
17531SOL    HW155131   6.611   7.464   7.017 -0.4154 -0.5516 -0.4772
17531SOL    HW255132   6.575   7.570   6.916  0.7131  0.2634 -0.0368
17532SOL     OW55133   2.619   0.399   1.456 -0.5200  0.5432 -0.1817
17532SOL    HW155134   2.542   0.361   1.413  1.7918 -2.4762 -1.8118
17532SOL    HW255135   2.658   0.456   1.390  0.0655  0.0430 -0.2731
17533SOL     OW55136   6.998   0.163   3.281  0.4903  0.3946 -0.0483
17533SOL    HW155137   6.925   0.224   3.292 -0.1103 -0.1791 -0.7949
17533SOL    HW255138   7.068   0.200   3.333  0.4680  2.3038 -1.3347
17534SOL     OW55139   4.386   0.855   8.982  0.4186 -0.2036  0.5650
17534SOL    HW155140   4.316   0.888   8.926  0.8924  1.8775  1.1774
17534SOL    HW255141   4.465   0.898   8.949  1.0143 -0.5704  1.5095
17535SOL     OW55142   7.428   4.011   1.447  0.0430 -0.0009 -0.0037
17535SOL    HW155143   7.410   4.027   1.354 -0.2493  0.4902  0.1385
17535SOL    HW255144   7.454   4.096   1.482  1.5177 -0.4629  0.0573
17536SOL     OW55145   7.165   5.296   6.981  0.8884  0.0453 -0.2984
17536SOL    HW155146   7.156   5.268   6.890  1.5115 -1.5643  0.1178
17536SOL    HW255147   7.244   5.252   7.012  1.9643  2.4202  0.3528
17537SOL     OW55148   7.583   0.203   9.581 -0.4999  0.2696 -0.5907
17537SOL    HW155149   7.498   0.167   9.606 -0.1199 -0.7709 -0.7893
17537SOL    HW255150   7.573   0.297   9.595 -0.5464 -0.1744  2.7472
17538SOL     OW55151   2.621   1.039   6.619 -0.6377 -0.2251  0.1994
17538SOL    HW155152   2.639   1.073   6.531 -0.5178  1.8421  0.9932
17538SOL    HW255153   2.706   1.034   6.661 -0.9628  1.3526  1.0792
17539SOL     OW55154   7.902   0.177   9.002  0.4107  0.0479 -0.2946
17539SOL    HW155155   7.936   0.250   9.054  0.8541 -1.6789  1.9019
17539SOL    HW255156   7.807   0.190   9.002  0.5029  0.7547 -0.1199
17540SOL     OW55157   4.207   8.606   9.775 -0.2361  0.4342  0.2891
17540SOL    HW155158   4.169   8.646   9.854 -0.6631 -0.8123  0.7135
17540SOL    HW255159   4.245   8.524   9.806 -0.3206 -0.0172 -0.7930
17541SOL     OW55160   5.386  10.101   8.846  0.6302 -0.3416 -0.1532
17541SOL    HW155161   5.396  10.053   8.927  0.8208 -0.5794 -0.3171
17541SOL    HW255162   5.415  10.040   8.778  0.1202 -0.2801 -0.4316
17542SOL     OW55163   0.167   1.860   6.233 -1.2585  0.0637 -0.0070
17542SOL    HW155164   0.255   1.870   6.196 -1.2611  0.9522  0.2247
17542SOL    HW255165   0.123   1.800   6.173 -0.3075 -0.8713  0.1984
17543SOL     OW55166   0.904   0.339   0.390  0.0806 -0.5048  0.4677
17543SOL    HW155167   0.846   0.395   0.441 -0.3755 -1.2463  0.7538
17543SOL    HW255168   0.967   0.400   0.352 -1.6948  0.4979 -0.9773
17544SOL     OW55169   4.091   1.480   5.792  0.2904  0.2984  0.2599
17544SOL    HW155170   4.009   1.436   5.772  1.5243 -0.7746 -2.6686
17544SOL    HW255171   4.064   1.564   5.829 -2.0807 -1.1248  1.9221
17545SOL     OW55172   9.103   2.180   3.303 -0.6229  0.1753 -0.1431
17545SOL    HW155173   9.175   2.131   3.343 -2.3688 -0.4279  2.3589
17545SOL    HW255174   9.024   2.136   3.333 -2.0967  0.2474 -3.6050
17546SOL     OW55175   8.101   3.884   8.252  0.1651 -0.8285  0.0291
17546SOL    HW155176   8.105   3.865   8.158 -2.0576  0.4379 -0.3392
17546SOL    HW255177   8.176   3.837   8.289  1.1403 -1.2184 -2.3895
17547SOL     OW55178   3.366   4.968   0.009 -0.2441  0.4639  0.0643
17547SOL    HW155179   3.300   4.900   0.023 -0.3933  0.6023  0.0445
17547SOL    HW255180   3.440   4.923  -0.029  0.0156  0.1419  0.9333
17548SOL     OW55181   2.531   3.414   3.023  0.0647  0.1570 -0.3312
17548SOL    HW155182   2.516   3.326   3.058  1.6580  0.0813  0.2159
17548SOL    HW255183   2.594   3.401   2.952  0.7225  0.9135  0.1098
17549SOL     OW55184   1.390   1.838   7.216 -0.0108  0.1473  0.4614
17549SOL    HW155185   1.371   1.881   7.300 -0.5142 -0.0460  0.4478
17549SOL    HW255186   1.444   1.902   7.169 -1.3097  1.0640  0.1765
17550SOL     OW55187   2.568   9.376   7.121  0.2557  0.0907 -0.1112
17550SOL    HW155188   2.524   9.461   7.119  2.1989  1.1229  0.7493
17550SOL    HW255189   2.531   9.329   7.046 -2.5060  0.8148  0.7072
17551SOL     OW55190   0.209   3.134   5.833 -0.0835 -0.1079  0.4888
17551SOL    HW155191   0.209   3.162   5.924  1.0271  1.3748  0.0440
17551SOL    HW255192   0.194   3.039   5.837  2.0081 -0.3892  2.3008
17552SOL     OW55193   3.649   3.663   2.870 -0.3566  0.1131 -0.0980
17552SOL    HW155194   3.720   3.717   2.905 -1.1311  0.6074  0.7439
17552SOL    HW255195   3.661   3.667   2.775  1.8869 -1.4176  0.1045
17553SOL     OW55196   1.432   5.295   6.793  0.6728 -0.4142  0.0913
17553SOL    HW155197   1.451   5.385   6.766  0.2337 -0.6670 -1.0869
17553SOL    HW255198   1.396   5.254   6.715 -0.2923 -1.2674  0.9801
17554SOL     OW55199   9.237   7.829   3.512 -0.2754 -0.0792 -0.1754
17554SOL    HW155200   9.255   7.745   3.470 -0.2042 -0.2708  0.2331
17554SOL    HW255201   9.302   7.889   3.474  2.0104 -1.0113  2.0847
17555SOL     OW55202   5.600  10.009   4.669 -0.0469 -0.6818  0.3136
17555SOL    HW155203   5.592  10.009   4.573  0.2295 -1.2116  0.2953
17555SOL    HW255204   5.688   9.978   4.686  0.2811  0.4432  0.7115
17556SOL     OW55205   8.506   1.282   3.917 -0.3417  0.1686  0.4243
17556SOL    HW155206   8.548   1.364   3.942 -1.0818  0.9192 -0.7570
17556SOL    HW255207   8.499   1.286   3.821  0.2051 -1.5539  0.2785
17557SOL     OW55208   2.153   2.821   6.574 -0.0392  0.5637 -0.5071
17557SOL    HW155209   2.185   2.731   6.559 -2.6358 -0.5375  0.3134
17557SOL    HW255210   2.100   2.841   6.497  1.9985  2.1510 -1.5595
17558SOL     OW55211   8.805   8.830  10.042 -0.0672  0.0952 -0.0689
17558SOL    HW155212   8.826   8.889   9.969  0.0232  1.1737  0.8065
17558SOL    HW255213   8.769   8.888  10.109  0.1114 -0.8554  0.8522
17559SOL     OW55214   0.406   3.881   1.840  0.0866  0.0180 -0.0415
17559SOL    HW155215   0.390   3.938   1.764 -1.9582 -0.5326 -0.0568
17559SOL    HW255216   0.482   3.829   1.816  0.2220  0.7460 -1.2075
17560SOL     OW55217   4.695   7.338   0.643 -0.5541  0.2314  0.0296
17560SOL    HW155218   4.765   7.384   0.689 -0.1161  0.0123 -0.4049
17560SOL    HW255219   4.682   7.257   0.692 -0.2834  0.1281 -0.0674
17561SOL     OW55220   7.356   4.456   1.584  0.6810  0.1187 -0.4436
17561SOL    HW155221   7.312   4.462   1.499  0.7041 -0.3353 -0.4918
17561SOL    HW255222   7.289   4.421   1.643  0.6129  0.6019 -0.2313
17562SOL     OW55223   7.531   0.671   2.521  0.0394  0.2859 -0.3472
17562SOL    HW155224   7.442   0.707   2.520  0.4210  1.2526 -0.0714
17562SOL    HW255225   7.587   0.746   2.503  0.8757 -0.0726  0.7414
17563SOL     OW55226   0.848   2.324   1.134 -0.0587 -0.3449  0.5340
17563SOL    HW155227   0.925   2.277   1.165  0.1062 -0.1595  0.4078
17563SOL    HW255228   0.790   2.330   1.210  0.7208  0.8879  1.0432
17564SOL     OW55229   0.018   4.946   7.727  0.5482  0.0265 -0.1403
17564SOL    HW155230   0.107   4.965   7.760  2.1347 -0.7403 -3.7371
17564SOL    HW255231   0.026   4.860   7.686 -2.0360 -0.2753 -0.0589
17565SOL     OW55232   2.931   5.444   7.894 -0.4868 -0.2740 -0.0224
17565SOL    HW155233   2.888   5.360   7.878 -2.5430  0.8742 -0.6726
17565SOL    HW255234   2.907   5.466   7.984 -0.1942 -0.2309  0.0441
17566SOL     OW55235   7.736   2.800   2.172 -0.3758  0.6450 -0.6282
17566SOL    HW155236   7.696   2.886   2.162  0.7260  1.3921  1.0636
17566SOL    HW255237   7.830   2.816   2.164 -0.1432 -0.3415 -0.0146
17567SOL     OW55238   0.579   8.013   7.802  0.2473  0.0026 -0.2489
17567SOL    HW155239   0.511   8.031   7.737 -0.8092 -0.8059  0.6130
17567SOL    HW255240   0.621   7.932   7.773 -1.3086 -1.2539  0.9140
17568SOL     OW55241   3.432   4.072   0.094  0.1296 -0.7168 -0.5374
17568SOL    HW155242   3.516   4.116   0.107  0.1029 -0.9698  0.5111
17568SOL    HW255243   3.367   4.141   0.108  0.1426 -0.6945 -0.5888
17569SOL     OW55244   5.666   6.718   9.303 -0.6074  0.1759  0.0312
17569SOL    HW155245   5.687   6.709   9.396 -1.2647  1.3672  0.3007
17569SOL    HW255246   5.631   6.807   9.295  2.5276  1.3173 -1.9296
17570SOL     OW55247   8.082   4.401   8.826  0.1789  1.0045 -0.0150
17570SOL    HW155248   8.149   4.402   8.893 -1.1828  0.3689  1.3797
17570SOL    HW255249   8.103   4.323   8.773  0.3479  0.6170  0.6121
17571SOL     OW55250   3.256   4.282   0.136 -0.4458 -0.1608 -0.6035
17571SOL    HW155251   3.204   4.298   0.214  1.0300  1.9487  0.0057
17571SOL    HW255252   3.237   4.356   0.079 -0.6165 -1.0751 -1.7546
17572SOL     OW55253   1.975   0.697   7.205  0.1605 -0.0273 -0.5850
17572SOL    HW155254   1.885   0.687   7.175 -0.1259 -3.6081  1.2000
17572SOL    HW255255   1.978   0.783   7.248 -2.8239 -0.5367  0.7251
17573SOL     OW55256   2.331   8.745   6.289  0.3899  0.7510  0.2168
17573SOL    HW155257   2.343   8.660   6.332 -0.0566  0.0368 -1.0302
17573SOL    HW255258   2.391   8.742   6.214 -0.0848  1.2737 -0.1878
17574SOL     OW55259   5.943   7.363   4.637  0.6805 -0.4509 -0.3224
17574SOL    HW155260   6.015   7.420   4.611 -0.1037  1.1291  0.9410
17574SOL    HW255261   5.966   7.335   4.725  0.1435 -0.6137 -0.2378
17575SOL     OW55262   1.697   8.043   7.481  0.2664 -0.0638 -0.1755
17575SOL    HW155263   1.745   7.985   7.422  1.3571 -0.2370  0.8874
17575SOL    HW255264   1.697   7.998   7.565  0.1508  0.9547  0.3776
17576SOL     OW55265   1.308   6.275   1.682 -0.0369 -0.1380  0.0190
17576SOL    HW155266   1.338   6.359   1.718 -0.6738 -0.1747  0.6467
17576SOL    HW255267   1.334   6.210   1.748  2.6721 -0.7657 -1.5984
17577SOL     OW55268   2.651   1.563   6.113 -0.0853 -0.9090 -0.2557
17577SOL    HW155269   2.698   1.619   6.051 -0.4837 -0.8836 -0.5344
17577SOL    HW255270   2.629   1.621   6.186  2.0542 -1.3601  0.8065
17578SOL     OW55271   1.252   1.962   8.984  0.3158  0.7986 -0.5194
17578SOL    HW155272   1.293   2.049   8.982 -1.0221  1.4494 -0.1783
17578SOL    HW255273   1.257   1.932   8.893 -2.4250  2.7912 -1.4075
17579SOL     OW55274   9.064   2.640   4.170 -0.4780 -0.7167 -0.1306
17579SOL    HW155275   9.077   2.735   4.176 -2.6424 -0.4483  0.6807
17579SOL    HW255276   9.103   2.605   4.250 -1.9284 -0.2499  0.7845
17580SOL     OW55277   9.039   3.670   3.564  0.1222  0.1130  0.1851
17580SOL    HW155278   9.088   3.605   3.514 -1.0941  0.1993 -1.1540
17580SOL    HW255279   9.013   3.735   3.499  0.0743  1.1765  1.2629
17581SOL     OW55280   0.135   9.302   3.326 -0.3075  0.0778 -0.2259
17581SOL    HW155281   0.150   9.356   3.249 -0.2236  0.8332  0.3175
17581SOL    HW255282   0.190   9.340   3.394 -0.4387 -0.5328  0.2323
17582SOL     OW55283   1.510   6.960   1.121  0.1158 -0.1292 -0.1714
17582SOL    HW155284   1.511   6.881   1.067 -0.6275  0.0867 -0.5021
17582SOL    HW255285   1.542   7.029   1.063  2.1690 -0.4424  0.5373
17583SOL     OW55286   5.616   1.704   9.420  0.3749  0.2492 -0.2277
17583SOL    HW155287   5.523   1.697   9.400  0.3086  0.6553 -0.0783
17583SOL    HW255288   5.660   1.681   9.338  0.1207  1.0231 -0.5880
17584SOL     OW55289   3.777   0.876   7.526  0.3374 -0.1985 -0.0948
17584SOL    HW155290   3.779   0.840   7.615  1.2360  0.0511 -0.0040
17584SOL    HW255291   3.733   0.960   7.535  3.4095  1.3883  0.7271
17585SOL     OW55292   1.631   8.307   1.477 -0.8254  0.4372 -0.2904
17585SOL    HW155293   1.673   8.234   1.522 -0.3539  2.1166  2.0539
17585SOL    HW255294   1.545   8.274   1.454 -0.4598 -1.0073  0.3404
17586SOL     OW55295   6.729   7.853   0.689 -0.4848 -0.6607 -0.3703
17586SOL    HW155296   6.680   7.842   0.607 -1.1993  0.0751 -0.0486
17586SOL    HW255297   6.765   7.767   0.707 -0.2296 -0.8010 -1.5268
17587SOL     OW55298   4.732   1.873   5.138 -0.1365 -0.3477  0.3816
17587SOL    HW155299   4.652   1.824   5.118  0.1754 -0.8571  0.3694
17587SOL    HW255300   4.803   1.813   5.115  0.2485  0.0386  0.5574
17588SOL     OW55301   0.943   5.253  10.176 -0.6477 -0.2532  0.1896
17588SOL    HW155302   1.008   5.268  10.107  1.4360  0.1265  2.1588
17588SOL    HW255303   0.959   5.163  10.205 -1.0479 -0.1857  0.6273
17589SOL     OW55304   9.308   3.407   2.316  0.2107 -0.1258  0.3312
17589SOL    HW155305   9.394   3.438   2.343 -0.0808  0.2561  0.8231
17589SOL    HW255306   9.326   3.351   2.240  0.9289 -0.3670  0.6709
17590SOL     OW55307   8.812   5.712   3.724 -0.6114 -0.5651  0.6174
17590SOL    HW155308   8.755   5.698   3.800 -1.9631  3.1002  0.3861
17590SOL    HW255309   8.887   5.762   3.759 -0.8895  0.5120 -0.2816
17591SOL     OW55310   5.277   2.061   4.506  0.0731  0.3625 -0.6676
17591SOL    HW155311   5.245   2.011   4.431  1.7530  1.4498 -2.1364
17591SOL    HW255312   5.355   2.015   4.535 -0.7166 -0.2076  0.6277
17592SOL     OW55313   0.668   7.223   9.598 -0.3769  0.6850  0.2452
17592SOL    HW155314   0.697   7.151   9.543  1.1076  0.4822  1.2528
17592SOL    HW255315   0.742   7.240   9.657 -1.9182  0.8309  2.2134
17593SOL     OW55316   1.458   3.911   4.983  0.1339  0.5543  0.2748
17593SOL    HW155317   1.447   3.848   4.912  0.0369  0.9950 -0.1033
17593SOL    HW255318   1.545   3.893   5.018 -0.1615 -0.2406  0.6159
17594SOL     OW55319   6.797   0.331   9.695  0.4044  0.2284  0.1130
17594SOL    HW155320   6.702   0.337   9.691  0.4068 -0.5291 -1.4394
17594SOL    HW255321   6.817   0.335   9.788 -1.2735 -1.4151  0.5772
17595SOL     OW55322   4.608   9.917   7.226  0.1195  0.5063  0.0447
17595SOL    HW155323   4.568   9.983   7.170  2.9938  2.4209  0.1599
17595SOL    HW255324   4.674   9.875   7.170 -0.8188 -1.4774  0.3501
17596SOL     OW55325   8.637   7.415   6.239  1.0211  0.6195  0.3215
17596SOL    HW155326   8.728   7.445   6.236  1.1111  0.3818  0.6440
17596SOL    HW255327   8.625   7.384   6.329  0.8121  0.0591  0.1038
17597SOL     OW55328   1.589   9.455   2.603 -0.1426  0.1756 -0.0621
17597SOL    HW155329   1.553   9.483   2.687  0.2076 -2.1742  0.9072
17597SOL    HW255330   1.681   9.482   2.606  0.2987 -1.4279  1.0295
17598SOL     OW55331   6.983   0.768   1.433 -0.0024  0.1797  0.0752
17598SOL    HW155332   7.055   0.766   1.370  0.4673 -1.0153  0.6287
17598SOL    HW255333   7.016   0.720   1.509 -0.7250  1.2176  1.0617
17599SOL     OW55334   7.679   8.000   5.741  0.1218  0.1373  0.6383
17599SOL    HW155335   7.745   8.000   5.671  1.0255  0.9234  1.4732
17599SOL    HW255336   7.630   7.919   5.727  0.3381  0.2390 -0.8530
17600SOL     OW55337   6.703   9.075   8.575  0.7585 -0.1018 -0.3190
17600SOL    HW155338   6.645   9.151   8.582  0.6596 -0.1955 -0.1147
17600SOL    HW255339   6.791   9.112   8.573  0.6129  0.2809 -3.9591
17601SOL     OW55340   2.188   6.511   7.495  0.1573 -0.0218 -0.3611
17601SOL    HW155341   2.104   6.511   7.449 -0.2601 -0.2148  0.3905
17601SOL    HW255342   2.238   6.441   7.453  0.4638  1.0250 -1.7459
17602SOL     OW55343   3.466   8.672   7.404  0.3251 -0.1465  0.1292
17602SOL    HW155344   3.548   8.721   7.409  0.4784 -0.4806  0.8658
17602SOL    HW255345   3.401   8.730   7.443  0.7135 -0.9740  2.0356
17603SOL     OW55346   1.126   7.404   6.332 -0.1295  0.4697  0.4435
17603SOL    HW155347   1.083   7.489   6.342 -0.9944  0.1693 -0.5576
17603SOL    HW255348   1.205   7.423   6.282 -2.3560  0.2046 -3.4682
17604SOL     OW55349   5.315   6.058   1.414  0.3444 -0.4118  0.2740
17604SOL    HW155350   5.383   5.999   1.382  0.2198 -0.4182  0.0235
17604SOL    HW255351   5.358   6.143   1.421  0.3860 -0.4219  0.1438
17605SOL     OW55352   3.387   9.848   8.401 -0.0364  0.1384 -0.0843
17605SOL    HW155353   3.482   9.840   8.395  0.1182  0.2540  2.1031
17605SOL    HW255354   3.366   9.921   8.343  1.3895  1.3184  0.8683
17606SOL     OW55355   7.052   4.557   3.983  0.1270 -0.2884  0.0033
17606SOL    HW155356   7.013   4.543   4.069 -1.2279  0.7277 -0.4346
17606SOL    HW255357   7.136   4.599   4.002 -0.1906 -0.0101  0.8233
17607SOL     OW55358   2.197   2.447  10.161  0.0115  0.1299  0.0015
17607SOL    HW155359   2.289   2.421  10.168  0.2556  1.0122  0.0466
17607SOL    HW255360   2.196   2.539  10.187 -0.8917  0.1097  0.0400
17608SOL     OW55361   5.256   4.235   1.999 -0.0818  0.6274  0.0730
17608SOL    HW155362   5.199   4.275   2.064  0.9637  0.6990  0.9622
17608SOL    HW255363   5.212   4.251   1.916 -2.1214 -0.6294  0.8621
17609SOL     OW55364   8.027   7.422   5.184 -0.2013 -0.4836 -0.1520
17609SOL    HW155365   8.002   7.499   5.235 -0.7291 -0.2508 -0.7595
17609SOL    HW255366   8.057   7.457   5.100  1.2067 -0.8280  0.1840
17610SOL     OW55367   1.797   3.260   1.106  0.5294  0.0505 -0.3595
17610SOL    HW155368   1.736   3.197   1.146 -0.8170  0.8824 -1.0581
17610SOL    HW255369   1.859   3.281   1.176  0.7047 -1.6819  0.0272
17611SOL     OW55370  10.053   8.451   8.984 -0.2850 -0.7442 -0.2410
17611SOL    HW155371  10.070   8.534   9.030 -2.4325 -0.7799  0.6977
17611SOL    HW255372  10.094   8.384   9.038  1.4201 -0.3274 -0.9776
17612SOL     OW55373   0.987   6.947   5.378  0.3015 -0.7714 -0.0518
17612SOL    HW155374   1.023   6.928   5.292  2.4799  0.0269  0.6593
17612SOL    HW255375   1.058   6.990   5.426 -1.3994  0.3133  1.5987
17613SOL     OW55376   0.337   4.441   3.260 -0.0458 -0.7319  0.0700
17613SOL    HW155377   0.367   4.351   3.249 -0.7705 -0.8389 -1.1260
17613SOL    HW255378   0.417   4.492   3.275  0.2684 -1.7403  1.9946
17614SOL     OW55379   3.259   4.416   7.958 -0.2835 -0.1478 -0.0033
17614SOL    HW155380   3.224   4.408   7.869 -0.0577  0.6999 -0.1780
17614SOL    HW255381   3.332   4.354   7.961  1.3601  1.6564 -1.2702
17615SOL     OW55382   0.690   0.072   2.409  0.3865 -0.1225 -0.3365
17615SOL    HW155383   0.690   0.122   2.327  1.4866  1.0532  0.3646
17615SOL    HW255384   0.622   0.114   2.461  0.1561 -0.4399 -0.3800
17616SOL     OW55385   0.570   9.517   2.873 -0.6542 -0.0411  0.0953
17616SOL    HW155386   0.628   9.538   2.947 -1.2005 -0.2195  0.5729
17616SOL    HW255387   0.623   9.538   2.795  0.2172 -0.6176  0.5178
17617SOL     OW55388   3.526   5.538   8.259 -0.0579 -0.3122  0.0953
17617SOL    HW155389   3.493   5.581   8.338 -2.7215 -1.5502 -0.3030
17617SOL    HW255390   3.518   5.445   8.277  0.5160 -0.6095 -1.1558
17618SOL     OW55391   3.263   4.526   6.215 -0.6369  0.1244 -0.1824
17618SOL    HW155392   3.316   4.601   6.242 -1.8030  0.3505  1.5439
17618SOL    HW255393   3.204   4.561   6.148 -0.3345  0.4736 -0.2638
17619SOL     OW55394   2.966   2.607   0.488  0.3034  0.2926  0.6037
17619SOL    HW155395   2.977   2.595   0.582  0.3808 -1.7919  0.3410
17619SOL    HW255396   3.029   2.547   0.448  0.2047  1.0777 -0.7825
17620SOL     OW55397   1.648   7.807   8.924  0.5431  0.1416 -0.7090
17620SOL    HW155398   1.601   7.766   8.997  0.3663 -0.3920 -1.1241
17620SOL    HW255399   1.687   7.886   8.962  1.6175 -0.8617  0.3279
17621SOL     OW55400   0.183   0.888   8.342 -0.4120 -0.2996 -0.2746
17621SOL    HW155401   0.127   0.960   8.313 -1.6329 -0.7812  0.8163
17621SOL    HW255402   0.207   0.912   8.431 -0.2484 -0.9101 -0.1579
17622SOL     OW55403   0.107   5.048   5.109 -0.0090  0.2988  0.2954
17622SOL    HW155404   0.099   4.960   5.146  2.4525 -0.0020  0.2014
17622SOL    HW255405   0.136   5.034   5.019 -0.3769  1.1873  0.0346
17623SOL     OW55406   5.641   9.894   5.078  0.6890 -0.4732 -0.0458
17623SOL    HW155407   5.640   9.819   5.018 -0.4823 -0.8417  0.4173
17623SOL    HW255408   5.704   9.955   5.039  1.1532 -1.4074 -0.7851
17624SOL     OW55409   1.605   1.622   2.223  0.1313  0.0729  0.1436
17624SOL    HW155410   1.534   1.685   2.223  0.9984  1.1004  2.1043
17624SOL    HW255411   1.572   1.549   2.276  0.8107  0.9188  1.7749
17625SOL     OW55412   4.918   2.944   1.388  0.6919  0.4261  0.1491
17625SOL    HW155413   4.847   2.920   1.448  0.4691  3.0270  0.9865
17625SOL    HW255414   4.998   2.921   1.435  0.4698 -1.8503 -0.5060
17626SOL     OW55415   9.067   4.894   2.325 -0.6882  0.0246  0.1425
17626SOL    HW155416   9.054   4.935   2.410 -2.1140  0.0821 -0.0885
17626SOL    HW255417   9.148   4.844   2.335 -1.2664 -0.6199  1.7939
17627SOL     OW55418   2.115   7.245   7.049  0.2096 -0.0684 -0.1520
17627SOL    HW155419   2.193   7.195   7.023  0.1756 -1.1220  1.7401
17627SOL    HW255420   2.147   7.304   7.117 -0.2743  0.7970 -0.6715
17628SOL     OW55421   3.282   2.054   8.942 -0.0310 -0.0373  0.4175
17628SOL    HW155422   3.357   2.000   8.920 -1.2401 -1.9960  1.0239
17628SOL    HW255423   3.268   2.109   8.864  0.1955 -1.7716 -0.8711
17629SOL     OW55424   2.102   7.958   4.484 -0.1041  0.2655 -0.7464
17629SOL    HW155425   2.117   7.940   4.391  0.6235 -0.1314 -0.5578
17629SOL    HW255426   2.174   8.015   4.510  0.7084 -1.0554 -0.0121
17630SOL     OW55427   7.125   4.101   5.905 -0.2285  0.5399  0.0408
17630SOL    HW155428   7.179   4.065   5.835  0.2245  2.0726 -0.4270
17630SOL    HW255429   7.044   4.051   5.902  0.5583 -0.7341 -0.2740
17631SOL     OW55430   4.804   5.386   2.380 -0.3743 -0.1441  0.1640
17631SOL    HW155431   4.853   5.305   2.394  2.2372  1.4883  0.6932
17631SOL    HW255432   4.802   5.428   2.465  0.7201  1.6701 -0.6924
17632SOL     OW55433   1.888   2.537   3.916 -0.0119 -0.3674 -0.1325
17632SOL    HW155434   1.817   2.585   3.873 -0.6855 -0.5551  0.7553
17632SOL    HW255435   1.881   2.562   4.008  0.9782 -0.5131 -0.0188
17633SOL     OW55436  10.067   9.160   6.966  0.2165 -0.4190 -0.3617
17633SOL    HW155437   9.987   9.117   6.935  0.3657  0.2274 -1.6973
17633SOL    HW255438  10.081   9.124   7.053 -0.3369 -2.1575 -0.9604
17634SOL     OW55439   4.791   7.830   8.981  0.0378  0.4120 -0.1521
17634SOL    HW155440   4.707   7.852   8.940  0.3724  2.1175  0.0226
17634SOL    HW255441   4.853   7.891   8.941  0.9911 -0.1305  0.4919
17635SOL     OW55442   3.578   8.561   6.820  0.6562  0.5561  0.1504
17635SOL    HW155443   3.627   8.644   6.817  0.3524  0.7013 -0.7622
17635SOL    HW255444   3.646   8.494   6.831  0.9825  0.8448 -0.0789
17636SOL     OW55445   2.294   4.555   5.277  0.1729 -0.3500  0.4221
17636SOL    HW155446   2.357   4.626   5.283  0.4890 -0.6459  0.6063
17636SOL    HW255447   2.250   4.569   5.193  0.9161 -0.5055  0.0004
17637SOL     OW55448   4.520   3.216   6.844 -0.6029 -0.5849 -0.1816
17637SOL    HW155449   4.615   3.229   6.834 -0.6794 -0.3063 -0.5474
17637SOL    HW255450   4.512   3.127   6.878 -0.0791  0.1937  2.0939
17638SOL     OW55451   8.854   5.962  10.003 -0.2135  0.0076  0.4849
17638SOL    HW155452   8.833   5.880  10.048  0.5287  0.2765  1.3271
17638SOL    HW255453   8.950   5.964  10.001 -0.2260 -0.3755 -1.7974
17639SOL     OW55454   8.618   5.431   8.111  0.0528 -0.1867  0.8279
17639SOL    HW155455   8.680   5.481   8.164  2.0045 -1.1553 -0.4881
17639SOL    HW255456   8.661   5.348   8.095 -0.9056 -0.2880 -1.4626
17640SOL     OW55457   3.125   9.973   6.529  0.4875  0.1503 -1.0567
17640SOL    HW155458   3.083   9.890   6.508 -0.2640  0.5282 -1.0466
17640SOL    HW255459   3.117   9.981   6.624  1.3616 -0.1901 -0.9449
17641SOL     OW55460   5.324   7.854   3.284 -0.1347  0.3072 -0.0095
17641SOL    HW155461   5.290   7.864   3.373  0.0453 -0.6739  0.1827
17641SOL    HW255462   5.384   7.780   3.291  0.4391  0.7041 -0.7932
17642SOL     OW55463   9.246   0.773   1.897  0.3688  0.0065 -0.7241
17642SOL    HW155464   9.225   0.865   1.907  0.8646  0.0448  0.0277
17642SOL    HW255465   9.338   0.772   1.870  0.1667 -0.2467 -1.4317
17643SOL     OW55466   1.546   3.056   0.100 -0.2197  0.0703 -0.3858
17643SOL    HW155467   1.513   3.136   0.060  2.7880  0.3293 -2.4063
17643SOL    HW255468   1.641   3.064   0.099  0.1375 -3.0815  0.3011
17644SOL     OW55469   9.210   9.952   1.098 -0.2925 -0.1978 -0.3033
17644SOL    HW155470   9.158   9.940   1.177 -0.7531  0.4344 -0.4984
17644SOL    HW255471   9.214  10.047   1.087  0.6785 -0.2563 -0.4441
17645SOL     OW55472   3.982   4.802   8.553 -0.1319 -0.2942 -0.3311
17645SOL    HW155473   4.076   4.789   8.542 -0.1959 -0.6869 -0.4202
17645SOL    HW255474   3.961   4.874   8.494  0.1177 -0.1894 -0.2919
17646SOL     OW55475   2.902   7.248   7.294  0.1967 -0.0257 -0.4547
17646SOL    HW155476   2.954   7.201   7.359 -0.0436 -0.4105 -0.5387
17646SOL    HW255477   2.966   7.283   7.233  0.4540  0.6895  0.2204
17647SOL     OW55478   2.383   9.684   5.359  0.2378  0.3410 -0.1624
17647SOL    HW155479   2.318   9.734   5.310  1.3923  0.6455 -1.3975
17647SOL    HW255480   2.418   9.621   5.296  0.6007 -0.3271  0.6962
17648SOL     OW55481   6.975   8.063   8.143 -0.1344 -0.5575 -0.5989
17648SOL    HW155482   6.926   8.139   8.111  0.2518 -0.8531 -1.9567
17648SOL    HW255483   7.051   8.101   8.187  0.4489 -0.1584 -1.9329
17649SOL     OW55484   1.364   0.277   7.823  0.4789  0.1090  0.4132
17649SOL    HW155485   1.392   0.254   7.911  0.6033  0.3754  0.4434
17649SOL    HW255486   1.270   0.257   7.822  0.7814 -1.3648  0.1116
17650SOL     OW55487   4.592   6.069   2.593 -0.1330  0.7436  0.4203
17650SOL    HW155488   4.681   6.088   2.625  0.9056 -1.0281 -1.2888
17650SOL    HW255489   4.557   6.005   2.656  0.2875  0.4766  0.3850
17651SOL     OW55490   5.101   3.044   9.782  1.0591  0.3514 -0.3891
17651SOL    HW155491   5.007   3.060   9.776  1.1877  1.5219  0.5173
17651SOL    HW255492   5.141   3.115   9.732  1.5234  0.8332  0.6621
17652SOL     OW55493   3.032   1.948   6.090  0.5237 -0.2828 -0.3394
17652SOL    HW155494   3.074   1.978   6.170 -0.8886  0.3536  0.1800
17652SOL    HW255495   3.017   2.028   6.039 -1.0113 -0.3616 -0.0425
17653SOL     OW55496   0.087   1.410   0.325 -0.6291  0.6172  0.3634
17653SOL    HW155497   0.086   1.410   0.421 -1.2465 -1.8681  0.3934
17653SOL    HW255498   0.160   1.353   0.302 -0.5266  1.1477 -0.6565
17654SOL     OW55499   5.863   8.963   9.145 -0.2262 -0.0948  0.2856
17654SOL    HW155500   5.933   8.898   9.136  0.3800  0.5275  0.4660
17654SOL    HW255501   5.890   9.035   9.087 -1.1182 -0.1971 -0.2637
17655SOL     OW55502   0.187   7.209   5.944 -0.0499 -0.0283  0.8768
17655SOL    HW155503   0.094   7.194   5.926  0.0122 -0.6521  1.0571
17655SOL    HW255504   0.191   7.221   6.039  0.0048  0.3708  0.8250
17656SOL     OW55505   0.074   7.979   6.706  0.1233  0.0110 -0.1038
17656SOL    HW155506   0.103   8.066   6.734  0.7268  0.7574 -2.9177
17656SOL    HW255507  -0.011   7.995   6.665 -0.4064 -0.9626  0.5840
17657SOL     OW55508   6.744   4.916   9.988 -1.1224 -0.3323  0.3687
17657SOL    HW155509   6.795   4.891   9.910 -0.3865 -1.0183  1.0564
17657SOL    HW255510   6.809   4.916  10.059 -1.4502  1.8792  0.6993
17658SOL     OW55511  10.001  10.076   1.968 -0.2054 -0.1098  0.0444
17658SOL    HW155512   9.977  10.140   1.902  0.3814  0.3576  0.2845
17658SOL    HW255513  10.026   9.998   1.919 -0.4000  0.0208 -0.2611
17659SOL     OW55514   4.665   2.215   5.914 -0.0417 -0.4215  0.1604
17659SOL    HW155515   4.606   2.180   5.981 -1.0917 -1.3014 -1.1973
17659SOL    HW255516   4.607   2.265   5.855  0.9631  0.9053  0.2612
17660SOL     OW55517   6.031   2.250   9.871 -0.3346 -0.1231 -0.2800
17660SOL    HW155518   5.987   2.335   9.860  0.7715  0.2707 -1.8563
17660SOL    HW255519   5.977   2.188   9.823 -0.4966 -0.1068 -0.1218
17661SOL     OW55520   0.616   9.494   0.730 -0.2535  0.3408  0.0934
17661SOL    HW155521   0.584   9.404   0.721 -0.5778  0.5267 -0.6623
17661SOL    HW255522   0.557   9.534   0.794 -0.0764  0.0037  0.4691
17662SOL     OW55523   1.014   8.217   2.969  0.7872  0.1115 -0.1988
17662SOL    HW155524   1.010   8.273   3.046 -2.0380 -1.0872  0.5898
17662SOL    HW255525   0.991   8.274   2.895  1.5950  0.8000  0.0683
17663SOL     OW55526   5.981   2.870   4.529 -0.4353  0.5048  0.0651
17663SOL    HW155527   5.991   2.795   4.588 -1.6142  0.8073  0.6729
17663SOL    HW255528   6.001   2.946   4.583  0.1165  0.6830 -0.3799
17664SOL     OW55529   8.525   9.312   3.800  0.5096  0.2344 -0.2391
17664SOL    HW155530   8.479   9.392   3.827 -1.5592 -1.1807  0.5213
17664SOL    HW255531   8.547   9.268   3.882 -1.5909 -1.7318 -0.6850
17665SOL     OW55532   2.771  10.015   4.086 -0.1032 -0.4298 -0.3870
17665SOL    HW155533   2.864  10.033   4.100 -0.1143  0.6223 -1.6610
17665SOL    HW255534   2.766   9.979   3.998 -1.1109  1.1378 -0.9849
17666SOL     OW55535   1.540   4.662   4.785  0.0524  0.0396  0.5643
17666SOL    HW155536   1.494   4.729   4.733 -1.1196 -0.2662  1.1961
17666SOL    HW255537   1.470   4.614   4.829  1.0083 -0.0517  2.0150
17667SOL     OW55538   6.127   4.441   3.947  0.2548  0.0970  0.2980
17667SOL    HW155539   6.055   4.380   3.932  0.2284  0.0113  0.7655
17667SOL    HW255540   6.087   4.517   3.989  0.3060  0.3946 -0.1755
17668SOL     OW55541   0.061   6.956   9.133 -0.3454 -0.1524  0.9570
17668SOL    HW155542   0.117   6.990   9.204  1.4741  1.9056 -1.3796
17668SOL    HW255543   0.081   6.863   9.130  0.7480  0.0173  2.1078
17669SOL     OW55544   0.614   0.301   3.322 -0.4282  0.2958 -0.2534
17669SOL    HW155545   0.671   0.291   3.399  0.2475  2.0619 -0.4770
17669SOL    HW255546   0.675   0.321   3.251 -1.3037  2.3838 -0.4643
17670SOL     OW55547   9.099   3.919   5.020 -0.3706 -0.8043 -0.1736
17670SOL    HW155548   9.009   3.929   5.051  0.5836  2.6542  1.6719
17670SOL    HW255549   9.097   3.945   4.929 -1.2025 -0.6564 -0.1133
17671SOL     OW55550   6.744   6.082   9.312  0.1118  0.0539  0.4903
17671SOL    HW155551   6.695   6.006   9.344 -1.3262  0.3637 -0.9270
17671SOL    HW255552   6.820   6.044   9.267  0.7083 -0.4499  1.8781
17672SOL     OW55553   0.692   4.724   5.344 -0.1137 -0.1476  0.5945
17672SOL    HW155554   0.784   4.737   5.365  0.0453  0.8182 -0.6347
17672SOL    HW255555   0.646   4.791   5.395 -0.1553 -0.7242  1.3204
17673SOL     OW55556   9.192   7.127   2.777 -0.2303  0.4918  0.1230
17673SOL    HW155557   9.266   7.152   2.831  0.2021 -3.3163  1.4497
17673SOL    HW255558   9.230   7.070   2.709 -1.5636  0.6298 -0.7673
17674SOL     OW55559   1.602   6.162   7.457  0.0960 -0.3537 -0.0331
17674SOL    HW155560   1.677   6.114   7.493  0.3617  0.4790  0.5272
17674SOL    HW255561   1.547   6.094   7.418  0.0426 -1.2128  1.5198
17675SOL     OW55562   6.519   9.846   4.461 -0.1941 -0.6378 -0.4026
17675SOL    HW155563   6.429   9.827   4.435 -0.1574 -0.3986 -0.7038
17675SOL    HW255564   6.568   9.849   4.379  0.1385 -1.0154 -0.2243
17676SOL     OW55565   4.331   0.520   0.469 -0.1801 -0.3733 -0.3648
17676SOL    HW155566   4.328   0.565   0.553 -0.1653  2.1081 -1.6403
17676SOL    HW255567   4.325   0.590   0.404 -1.8565 -2.3511 -2.4296
17677SOL     OW55568   9.503   1.490   4.196 -0.7024 -0.4991  0.2378
17677SOL    HW155569   9.595   1.514   4.181 -1.2966  2.3608  0.8748
17677SOL    HW255570   9.504   1.440   4.278  0.2911 -0.6443  0.1471
17678SOL     OW55571   1.690   2.036   2.192 -0.0405  0.2411  0.2890
17678SOL    HW155572   1.740   2.042   2.110 -0.5905 -1.4184 -0.1861
17678SOL    HW255573   1.756   2.019   2.259  0.1503 -0.9115 -0.1826
17679SOL     OW55574   1.720   0.888   2.607 -0.1012 -0.3910 -0.8731
17679SOL    HW155575   1.708   0.934   2.524  2.4130  2.7679  0.4275
17679SOL    HW255576   1.632   0.879   2.643 -1.1772 -1.4441 -3.6293
17680SOL     OW55577   4.123   3.824   1.660 -0.0695  0.0306  0.2136
17680SOL    HW155578   4.034   3.792   1.650 -0.1725  0.5481 -0.5309
17680SOL    HW255579   4.153   3.786   1.743 -0.4935 -1.2697 -0.2158
17681SOL     OW55580   3.882   6.871   5.194  0.1318 -0.0397 -0.3112
17681SOL    HW155581   3.968   6.879   5.236  0.4072 -2.6156 -0.2933
17681SOL    HW255582   3.837   6.804   5.245 -1.3362  0.2342 -1.2227
17682SOL     OW55583   7.116   4.709   6.436  0.3148 -0.1676 -0.5578
17682SOL    HW155584   7.062   4.661   6.373  0.2637  0.5981 -1.0928
17682SOL    HW255585   7.080   4.797   6.437  0.7481  0.0068  0.0425
17683SOL     OW55586  10.016   4.754   5.826  0.0252 -0.2975 -0.3003
17683SOL    HW155587  10.073   4.679   5.809  1.9123  1.3347 -1.3445
17683SOL    HW255588   9.972   4.732   5.908  1.4696 -2.0117  0.0552
17684SOL     OW55589   7.392   9.257   5.821 -0.1462  0.1380 -0.3781
17684SOL    HW155590   7.467   9.241   5.879 -0.7020  0.1211  0.3423
17684SOL    HW255591   7.317   9.262   5.880 -0.6897  0.3379 -1.0828
17685SOL     OW55592   8.198   3.720   8.966 -0.1699  0.6394 -0.4052
17685SOL    HW155593   8.206   3.635   9.009 -0.0300 -0.4692 -2.5331
17685SOL    HW255594   8.202   3.784   9.037 -0.6196 -1.1443  1.2593
17686SOL     OW55595   7.498   4.215   3.214 -0.0644 -0.7314  0.1104
17686SOL    HW155596   7.457   4.188   3.296  0.0736  0.4633  0.5810
17686SOL    HW255597   7.432   4.268   3.169  0.3444 -0.2597  0.0653
17687SOL     OW55598   4.357   9.864   3.131 -0.1378  0.1980 -0.9880
17687SOL    HW155599   4.328   9.773   3.142  1.4690 -0.1636  0.5328
17687SOL    HW255600   4.303   9.914   3.192  0.6767 -0.1075 -0.0068
17688SOL     OW55601   0.489   5.023   0.765  0.2354 -0.3350 -0.6384
17688SOL    HW155602   0.490   4.928   0.751  0.0462 -0.3941 -0.2602
17688SOL    HW255603   0.536   5.059   0.690  0.7694 -0.7642 -0.5131
17689SOL     OW55604   5.098   2.302   4.027 -0.4430 -0.3949  0.3953
17689SOL    HW155605   5.069   2.339   3.943  0.8090 -0.6726 -0.1642
17689SOL    HW255606   5.122   2.379   4.079 -0.0593 -0.2884  0.0646
17690SOL     OW55607   8.113   6.328   7.433  0.2253 -0.3416  0.3249
17690SOL    HW155608   8.041   6.339   7.372  1.1324  0.0749 -0.6938
17690SOL    HW255609   8.170   6.263   7.392  1.1223  0.3476  0.4465
17691SOL     OW55610   4.510   5.122   8.060  0.3620  0.1402 -0.1130
17691SOL    HW155611   4.520   5.056   8.128  0.5244  0.6218  0.3315
17691SOL    HW255612   4.450   5.082   7.997  1.5940 -1.0088 -0.5826
17692SOL     OW55613   1.203   0.710   4.900 -0.2438  0.3491  0.3842
17692SOL    HW155614   1.124   0.657   4.888 -1.0639  1.9108 -1.4098
17692SOL    HW255615   1.181   0.771   4.970  0.4453 -1.1625  1.9460
17693SOL     OW55616   3.510   6.788   5.192 -0.2584 -0.0388  0.4677
17693SOL    HW155617   3.596   6.785   5.234 -0.9169 -1.9437  1.7315
17693SOL    HW255618   3.504   6.705   5.145 -0.9617  0.5792 -0.5402
17694SOL     OW55619   0.750   9.333   1.080  0.5885  0.5025 -0.2263
17694SOL    HW155620   0.727   9.426   1.091  0.3816  0.3738  0.4385
17694SOL    HW255621   0.797   9.311   1.160 -1.7627 -0.7182  0.8502
17695SOL     OW55622   8.184   9.781   4.049  0.1196 -0.0101 -0.2267
17695SOL    HW155623   8.255   9.833   4.014  0.5086 -0.4290 -0.0667
17695SOL    HW255624   8.196   9.784   4.144  1.0836 -1.6773 -0.2623
17696SOL     OW55625   9.422   5.084   2.498 -0.2661 -0.6826  0.0840
17696SOL    HW155626   9.490   5.031   2.539 -0.4466  1.3648  3.2211
17696SOL    HW255627   9.470   5.148   2.445  0.0685 -1.8407 -1.0243
17697SOL     OW55628   7.179   4.068   1.957 -0.0133  0.0093 -0.2638
17697SOL    HW155629   7.088   4.096   1.950 -0.5389 -1.7448 -0.8883
17697SOL    HW255630   7.203   4.087   2.047 -0.4333  2.1022 -0.5714
17698SOL     OW55631   9.836  10.111   5.040  0.0578 -0.3716 -0.2059
17698SOL    HW155632   9.827  10.136   4.948 -1.0999 -1.9375 -0.5277
17698SOL    HW255633   9.800  10.185   5.088  0.7537  0.4943 -0.9923
17699SOL     OW55634   3.408   7.800   4.346 -0.1986 -0.3430  0.4527
17699SOL    HW155635   3.392   7.868   4.411  0.0228 -1.0025  1.2011
17699SOL    HW255636   3.493   7.822   4.308  0.0793 -0.4468  1.0098
17700SOL     OW55637   7.729   0.937   1.863 -0.1282 -0.2555  0.4668
17700SOL    HW155638   7.799   1.000   1.884 -1.1105  0.6081  1.1798
17700SOL    HW255639   7.696   0.910   1.948 -0.4731 -0.8896  0.1308
17701SOL     OW55640  10.161   8.243   3.205 -0.0863 -0.2193  0.2660
17701SOL    HW155641  10.240   8.298   3.205 -0.1788 -0.0760  1.8820
17701SOL    HW255642  10.195   8.154   3.194  0.2961 -0.1314  0.6973
17702SOL     OW55643   3.753   1.866   0.121 -0.1087  0.6907  0.1860
17702SOL    HW155644   3.676   1.822   0.157 -0.4881  2.4829  1.6305
17702SOL    HW255645   3.827   1.833   0.173  0.1437 -1.0694 -1.2360
17703SOL     OW55646   2.270   5.933   4.314 -0.6718 -0.4654  0.0519
17703SOL    HW155647   2.175   5.932   4.326 -0.8605  0.1580 -1.3071
17703SOL    HW255648   2.286   6.008   4.257  0.6841 -0.3217  0.6153
17704SOL     OW55649   0.895   1.713   4.572  0.1475  0.1017 -0.3129
17704SOL    HW155650   0.932   1.801   4.566 -0.9532  0.4464 -2.5420
17704SOL    HW255651   0.815   1.725   4.622  0.6499  0.1479  0.4851
17705SOL     OW55652   4.166   0.423   2.505  0.3344 -0.3581  0.5199
17705SOL    HW155653   4.094   0.409   2.566 -0.7787  1.5309 -0.3064
17705SOL    HW255654   4.125   0.424   2.419  1.2649  1.0524  0.0646
17706SOL     OW55655   7.195  10.003   2.007  0.4294 -0.2265 -0.1761
17706SOL    HW155656   7.220  10.036   1.921  0.1614  1.0707  0.2250
17706SOL    HW255657   7.100  10.015   2.011  0.2496 -1.5576 -0.2172
17707SOL     OW55658   0.331   5.840   4.112  1.0809 -0.1769  0.4373
17707SOL    HW155659   0.287   5.756   4.098 -0.6793  0.7169  0.4473
17707SOL    HW255660   0.275   5.887   4.174 -0.0709  2.5287 -2.4874
17708SOL     OW55661   9.208   0.291   4.203 -0.0471  0.6223 -0.0412
17708SOL    HW155662   9.128   0.243   4.228  1.4918 -1.1896  1.5797
17708SOL    HW255663   9.200   0.303   4.108 -1.6688 -0.6276 -0.0842
17709SOL     OW55664  10.092   9.996   3.804 -0.3922  0.1470  0.0217
17709SOL    HW155665  10.158  10.038   3.748 -0.4124  1.5960  1.0626
17709SOL    HW255666  10.056   9.926   3.749  0.4363  0.7648 -1.3530
17710SOL     OW55667   8.566   9.613   1.109  0.2952  0.0750 -0.3605
17710SOL    HW155668   8.625   9.541   1.135 -0.0590  0.0421  0.3615
17710SOL    HW255669   8.567   9.673   1.184 -1.3939 -0.4329  0.0996
17711SOL     OW55670   2.240   6.689   1.923 -0.0102 -0.6178 -0.6770
17711SOL    HW155671   2.182   6.764   1.907  1.2159  0.4666 -0.1527
17711SOL    HW255672   2.306   6.723   1.984  1.9817 -1.4348 -2.3469
17712SOL     OW55673   3.560   4.405   9.460 -0.1422 -0.1230  0.0829
17712SOL    HW155674   3.484   4.416   9.517  0.1226  0.0749  0.4033
17712SOL    HW255675   3.632   4.444   9.510 -0.2562  1.7646 -1.2119
17713SOL     OW55676   0.392   4.401   0.120 -0.2746 -0.5500  0.0282
17713SOL    HW155677   0.463   4.337   0.116  0.4121  0.2140 -0.1280
17713SOL    HW255678   0.313   4.348   0.138  0.2495 -1.4492 -0.2773
17714SOL     OW55679   5.527   0.297   9.526 -0.3192 -0.3176  0.0697
17714SOL    HW155680   5.432   0.287   9.512 -0.5218 -0.8404  1.6747
17714SOL    HW255681   5.566   0.271   9.443 -1.6050  0.1919 -0.7112
17715SOL     OW55682   2.275   1.453   8.175  0.0237  0.0101  0.2921
17715SOL    HW155683   2.265   1.542   8.209  0.3140  0.1477  0.0126
17715SOL    HW255684   2.361   1.425   8.207  0.5014  0.3090 -0.7268
17716SOL     OW55685   4.185   3.451   9.488 -0.3546 -0.1820  0.7459
17716SOL    HW155686   4.203   3.545   9.497 -0.3192 -0.1817  0.6715
17716SOL    HW255687   4.089   3.445   9.488 -0.3688 -0.0695 -0.0037
17717SOL     OW55688   0.813   7.550   3.212 -0.5064 -0.1825 -0.1233
17717SOL    HW155689   0.785   7.544   3.120 -0.1268  0.4964 -0.2859
17717SOL    HW255690   0.898   7.593   3.208  0.2761 -1.6342  0.4213
17718SOL     OW55691   6.573  10.150   1.792 -0.3999  0.1731  0.1950
17718SOL    HW155692   6.573  10.241   1.823  1.7872  0.1733  0.3019
17718SOL    HW255693   6.620  10.153   1.709  1.8494 -1.1837  1.3593
17719SOL     OW55694   3.974   9.505   2.956 -0.9184 -0.2554 -0.0719
17719SOL    HW155695   4.023   9.516   2.875 -1.3579 -1.6580 -0.5546
17719SOL    HW255696   3.913   9.578   2.958  0.4582  0.9030  0.0034
17720SOL     OW55697   7.100   9.305   4.476 -0.1378 -0.1757 -0.4678
17720SOL    HW155698   7.020   9.253   4.473 -0.5757  0.4562  0.0584
17720SOL    HW255699   7.078   9.386   4.430 -0.1198  0.4147  0.5422
17721SOL     OW55700   9.829   3.859   5.221  0.0724 -0.7882 -0.0084
17721SOL    HW155701   9.788   3.928   5.273 -0.3499 -2.2678  1.6634
17721SOL    HW255702   9.760   3.831   5.161  0.0491 -0.2115 -0.2591
17722SOL     OW55703   5.393   7.067   0.097 -0.0507  0.5637  0.0311
17722SOL    HW155704   5.329   7.000   0.074  0.4028 -0.3271  1.3401
17722SOL    HW255705   5.342   7.139   0.132 -0.6293  1.3343 -2.2823
17723SOL     OW55706   4.555   8.932   1.985 -0.1570  0.5815 -0.3518
17723SOL    HW155707   4.601   9.016   1.981 -0.9358  1.0375  0.1953
17723SOL    HW255708   4.485   8.938   1.920  0.9737 -0.3832 -1.6889
17724SOL     OW55709   1.054   0.625   5.734  0.2401  0.1929  0.2860
17724SOL    HW155710   1.110   0.587   5.801  0.9960  0.0106 -0.4402
17724SOL    HW255711   1.064   0.720   5.745  3.0315  0.1923 -1.7347
17725SOL     OW55712   1.369   8.003  10.163 -0.0373  0.2111 -0.0945
17725SOL    HW155713   1.428   8.059  10.214 -0.6487  0.4029  0.4220
17725SOL    HW255714   1.307   7.969  10.227 -1.3969  1.2079 -0.8483
17726SOL     OW55715   7.615   8.697   4.646 -0.0352  0.1287  0.1478
17726SOL    HW155716   7.667   8.635   4.698 -0.2737  0.4686  0.7999
17726SOL    HW255717   7.664   8.708   4.565  0.9436  0.5048  0.7893
17727SOL     OW55718   5.900   4.666   1.363 -0.6868  0.8221  0.0902
17727SOL    HW155719   5.823   4.629   1.407 -0.7473 -0.1943 -0.8433
17727SOL    HW255720   5.960   4.688   1.434 -1.5417  0.9184  0.7825
17728SOL     OW55721   2.815   8.125   1.790 -0.1969 -0.0857 -0.4446
17728SOL    HW155722   2.808   8.095   1.881 -0.4646 -1.2686 -0.8525
17728SOL    HW255723   2.728   8.159   1.769 -0.1295  0.2060 -0.2586
17729SOL     OW55724   8.809   2.229   5.167 -0.1229  0.0115 -0.3568
17729SOL    HW155725   8.779   2.209   5.256 -1.7213  0.2564 -0.8169
17729SOL    HW255726   8.837   2.145   5.131  0.3614 -0.1175  0.3155
17730SOL     OW55727   9.670   7.226   3.822  0.4117  0.0794 -0.2876
17730SOL    HW155728   9.734   7.171   3.777  0.7781 -0.9363  1.4123
17730SOL    HW255729   9.585   7.194   3.791  0.6789  0.0804 -1.0273
17731SOL     OW55730   0.809   5.187   3.552  0.5093  1.0131 -0.3375
17731SOL    HW155731   0.895   5.218   3.526  2.0249 -1.8280  1.0932
17731SOL    HW255732   0.813   5.181   3.648 -1.5310  1.5291 -0.1887
17732SOL     OW55733   6.097   4.180   4.348  0.2387 -0.1296  0.3777
17732SOL    HW155734   6.106   4.156   4.440  0.1344 -1.6246  0.0230
17732SOL    HW255735   6.090   4.096   4.302  0.6552  0.5844 -1.0305
17733SOL     OW55736   4.778   8.185   1.467  0.7956 -0.4878 -0.4496
17733SOL    HW155737   4.842   8.191   1.538 -0.3692 -1.2846  0.6930
17733SOL    HW255738   4.748   8.275   1.454  0.5839 -0.4087  0.4990
17734SOL     OW55739   2.069   3.278   0.998  0.6512 -0.0521  0.3657
17734SOL    HW155740   2.115   3.274   1.083  1.2322  0.3606  0.0774
17734SOL    HW255741   1.982   3.244   1.017  0.9697 -0.5381  0.9997
17735SOL     OW55742   5.863   4.506   5.646  0.5441 -0.0733 -0.1796
17735SOL    HW155743   5.885   4.418   5.618  1.1782 -0.1551  0.5696
17735SOL    HW255744   5.947   4.545   5.672  0.3217  0.8657 -0.8367
17736SOL     OW55745   6.692   6.428   7.963 -0.6018 -0.5632 -0.2334
17736SOL    HW155746   6.717   6.357   8.022 -0.7149 -0.7496 -0.4093
17736SOL    HW255747   6.600   6.446   7.983 -0.4263 -0.1034  0.1807
17737SOL     OW55748   0.370   6.708   4.004  0.3000  0.6383 -0.7033
17737SOL    HW155749   0.456   6.730   4.040 -0.9051  2.2126  1.2522
17737SOL    HW255750   0.362   6.764   3.927  0.1471  2.0553  0.3278
17738SOL     OW55751   0.715   4.583   1.831 -0.9369  0.0624 -0.3558
17738SOL    HW155752   0.632   4.566   1.788  1.3674 -2.4204 -4.0664
17738SOL    HW255753   0.772   4.616   1.762  2.4261 -2.4301  1.1060
17739SOL     OW55754   3.061   9.988   7.427 -0.1243  0.0009 -0.6008
17739SOL    HW155755   3.068  10.039   7.508 -1.1450  0.3720 -0.7411
17739SOL    HW255756   3.067  10.052   7.357 -0.2151 -0.2044 -0.7972
17740SOL     OW55757   7.357   9.606   0.001  0.1945 -0.6326  0.3628
17740SOL    HW155758   7.270   9.647   0.000  0.7095  0.4972  0.1856
17740SOL    HW255759   7.378   9.596   0.093  0.4099  0.2772  0.4154
17741SOL     OW55760   0.039   4.979   6.160  0.0626 -0.4423 -0.4261
17741SOL    HW155761  -0.030   4.946   6.218 -0.5893  4.1391  1.6223
17741SOL    HW255762  -0.008   5.012   6.083  0.1686  0.2632 -0.1985
17742SOL     OW55763   9.337   6.627   0.185 -0.4208 -0.0568  0.3206
17742SOL    HW155764   9.308   6.710   0.223 -1.0046  0.0268 -0.2910
17742SOL    HW255765   9.293   6.560   0.238  0.0664  0.0192  0.8270
17743SOL     OW55766   9.207   8.776   5.813 -0.0390  0.2313  0.7788
17743SOL    HW155767   9.199   8.871   5.818 -0.5149  0.1959  0.6414
17743SOL    HW255768   9.190   8.755   5.721 -0.8584 -0.0798  1.0000
17744SOL     OW55769   3.901   8.317   3.002  0.1578 -0.4711 -0.2961
17744SOL    HW155770   3.897   8.225   2.976  0.1376 -0.3398 -0.7685
17744SOL    HW255771   3.976   8.322   3.061  0.9701 -0.5498 -1.2956
17745SOL     OW55772   0.307   5.179   0.398  0.0206 -0.2851 -0.3294
17745SOL    HW155773   0.370   5.247   0.375 -0.0259 -0.1721 -0.1196
17745SOL    HW255774   0.234   5.192   0.337 -0.7727  0.9614  0.8723
17746SOL     OW55775   0.658   1.648   8.908 -0.2497 -0.0687  0.5955
17746SOL    HW155776   0.735   1.700   8.930  0.2452 -0.3636 -0.4221
17746SOL    HW255777   0.681   1.558   8.933 -0.3528 -0.1219  0.4978
17747SOL     OW55778   8.844   4.664   3.395  0.0722  0.5247 -0.5481
17747SOL    HW155779   8.847   4.752   3.358 -1.7944  0.6821 -0.3760
17747SOL    HW255780   8.885   4.673   3.481  3.0394  0.4775 -1.8989
17748SOL     OW55781   6.525   0.758   6.511 -0.0093 -0.4080  0.3362
17748SOL    HW155782   6.610   0.798   6.496  0.1652 -0.7277  0.4665
17748SOL    HW255783   6.542   0.687   6.574 -0.2707 -0.8525 -0.0917
17749SOL     OW55784   4.402   5.084   3.144  0.1770 -0.7328  0.0464
17749SOL    HW155785   4.455   5.039   3.210  0.5811  0.0329  0.2576
17749SOL    HW255786   4.315   5.091   3.184 -0.2474 -2.5438 -0.5573
17750SOL     OW55787   1.551   7.563   3.281 -0.3544  0.2083  0.0318
17750SOL    HW155788   1.616   7.617   3.327 -0.3369  1.3169 -1.2859
17750SOL    HW255789   1.603   7.503   3.227 -0.4144  0.7076 -0.5824
17751SOL     OW55790   6.099   7.706   8.898 -0.0864  0.0990 -0.3537
17751SOL    HW155791   6.072   7.636   8.837 -0.4455  1.7943 -2.1805
17751SOL    HW255792   6.025   7.767   8.899  0.0172  0.2283  1.6314
17752SOL     OW55793   7.573   0.400   0.106 -0.6820  0.0266  0.1936
17752SOL    HW155794   7.661   0.439   0.105 -0.7506  0.1683 -1.5175
17752SOL    HW255795   7.560   0.374   0.197 -0.8522  4.4220  1.5327
17753SOL     OW55796  10.188   9.825   4.964  0.2893  0.1133 -0.0449
17753SOL    HW155797  10.139   9.785   5.036  1.4785 -0.0809  0.6727
17753SOL    HW255798  10.174   9.766   4.890  2.3194 -1.8913  1.0979
17754SOL     OW55799   0.141   5.797   6.178 -0.4901  0.0340  0.3560
17754SOL    HW155800   0.224   5.751   6.168 -0.7402 -0.2941 -0.2583
17754SOL    HW255801   0.103   5.762   6.258 -0.7412 -0.9372 -0.1749
17755SOL     OW55802   5.191   1.106   8.366  0.3682 -0.0421 -0.4428
17755SOL    HW155803   5.179   1.195   8.398 -0.2342  0.0309 -0.8504
17755SOL    HW255804   5.175   1.112   8.271  0.0415 -0.6267 -0.4310
17756SOL     OW55805   4.950   9.149   5.881 -0.0759  1.0347 -0.6308
17756SOL    HW155806   4.933   9.133   5.788  0.7574 -0.8327 -0.4835
17756SOL    HW255807   4.864   9.147   5.922 -0.0833 -3.0720 -0.6661
17757SOL     OW55808   5.511   3.444   1.057  0.3477  0.3446 -0.4802
17757SOL    HW155809   5.485   3.360   1.018 -1.2920  1.0803 -1.0299
17757SOL    HW255810   5.518   3.504   0.982  2.4608  0.4924 -0.2053
17758SOL     OW55811   6.466   5.381   7.492  0.1607 -0.1228 -0.0721
17758SOL    HW155812   6.479   5.456   7.434 -0.2080 -0.5443 -0.7085
17758SOL    HW255813   6.470   5.418   7.580  0.8326  0.5078 -0.3588
17759SOL     OW55814   9.999   5.446   4.075  0.1012  0.0773  0.4328
17759SOL    HW155815   9.928   5.388   4.102 -0.2981 -0.2590 -1.2764
17759SOL    HW255816  10.078   5.404   4.109 -0.4566  0.1345  1.8208
17760SOL     OW55817   3.057   8.730   1.505  0.1486  0.6100  0.0017
17760SOL    HW155818   3.038   8.711   1.413 -0.4060 -2.8222  0.7330
17760SOL    HW255819   3.153   8.737   1.509  0.1523  1.0231 -0.8927
17761SOL     OW55820   4.234   9.771   7.760 -0.6476 -0.4899  0.2670
17761SOL    HW155821   4.220   9.824   7.838  1.8069  1.8014 -0.7611
17761SOL    HW255822   4.179   9.811   7.693  0.6575  0.3376 -0.3238
17762SOL     OW55823   5.155   3.834   4.701 -0.3499 -0.4007 -0.3795
17762SOL    HW155824   5.150   3.903   4.634 -2.7575 -0.6736 -0.5353
17762SOL    HW255825   5.076   3.846   4.753  0.9914 -0.8548  1.7999
17763SOL     OW55826   7.033   5.205   8.818  0.0619 -0.1259 -0.6043
17763SOL    HW155827   7.114   5.157   8.802  0.1745  0.1373 -0.8297
17763SOL    HW255828   7.059   5.297   8.820 -0.0274 -0.1328  0.7021
17764SOL     OW55829   2.312   4.667   2.324  0.2916 -0.8221 -0.1389
17764SOL    HW155830   2.246   4.731   2.301 -0.3096 -0.8219  1.5614
17764SOL    HW255831   2.395   4.709   2.302 -0.1053  0.4501  0.7377
17765SOL     OW55832   0.256   4.633   6.518 -0.0618 -0.2887  0.4742
17765SOL    HW155833   0.269   4.579   6.440 -2.6102 -2.2082  1.2704
17765SOL    HW255834   0.232   4.719   6.484  0.7875 -0.5675 -0.8624
17766SOL     OW55835   4.698   8.493   6.461 -0.0222 -0.1373  0.9494
17766SOL    HW155836   4.699   8.565   6.398 -0.5223 -0.9842 -0.0317
17766SOL    HW255837   4.787   8.458   6.457  0.4456  0.8938  1.9867
17767SOL     OW55838   0.478   7.581   6.114  0.1838 -0.2633 -0.2085
17767SOL    HW155839   0.489   7.622   6.199 -1.7773  0.7445 -0.4035
17767SOL    HW255840   0.566   7.559   6.085  1.1969  2.9209  0.3300
17768SOL     OW55841   4.433   2.619   0.020 -0.3679  0.3833 -0.2901
17768SOL    HW155842   4.376   2.572  -0.042  1.5912  0.1873 -1.9871
17768SOL    HW255843   4.440   2.559   0.095  1.4159 -1.7132 -2.0643
17769SOL     OW55844   8.748   8.021   6.134 -0.3780  0.1750  0.6610
17769SOL    HW155845   8.789   8.049   6.216 -0.9173  0.3875  0.8634
17769SOL    HW255846   8.654   8.019   6.154 -0.5150  0.2578  0.0402
17770SOL     OW55847   6.429   4.100   9.921 -0.5816  0.2738  0.0469
17770SOL    HW155848   6.507   4.067   9.966  0.3024  1.2547 -0.7155
17770SOL    HW255849   6.464   4.143   9.843 -1.9611  0.0668 -0.6854
17771SOL     OW55850   3.521   1.384   6.054 -0.7195  0.7192 -0.1760
17771SOL    HW155851   3.616   1.377   6.066 -0.7008  0.7144 -0.3229
17771SOL    HW255852   3.496   1.461   6.105 -0.7741  0.1830  0.6096
17772SOL     OW55853   4.853   2.351   4.998 -0.2410  0.0690  0.2745
17772SOL    HW155854   4.841   2.297   5.076  0.9389 -1.1325 -0.3483
17772SOL    HW255855   4.777   2.409   4.997 -1.9822 -2.1317  0.5337
17773SOL     OW55856   8.229   7.893   8.589  0.0856  0.0946 -0.3749
17773SOL    HW155857   8.267   7.918   8.673  3.7713 -0.4056 -1.8173
17773SOL    HW255858   8.173   7.818   8.609  0.6595  0.1844  1.6673
17774SOL     OW55859   3.142   4.047   2.067  0.7728  0.1230 -0.2179
17774SOL    HW155860   3.060   4.062   2.115  0.1212 -0.1003 -1.2418
17774SOL    HW255861   3.197   4.000   2.129 -0.0311 -0.0931  0.3484
17775SOL     OW55862   8.422   2.240   1.003 -0.1991 -0.0441 -0.7722
17775SOL    HW155863   8.499   2.185   0.987  2.1523  3.1456 -0.8358
17775SOL    HW255864   8.361   2.216   0.933  1.5872 -1.1115 -1.9999
17776SOL     OW55865   8.818   6.722   6.435 -0.4480  0.3600  0.3612
17776SOL    HW155866   8.819   6.650   6.498  0.5413 -0.5024 -0.6159
17776SOL    HW255867   8.910   6.738   6.414 -0.7882 -0.0047 -1.5645
17777SOL     OW55868   7.540   8.470   9.303  0.6517 -0.6113 -0.2083
17777SOL    HW155869   7.474   8.432   9.360  0.6741  0.4991  0.5696
17777SOL    HW255870   7.511   8.448   9.214 -0.2280 -0.9750  0.1729
17778SOL     OW55871   4.708  10.046   2.639 -0.2587  0.3217 -0.2270
17778SOL    HW155872   4.766   9.971   2.657  0.0563  0.9039  1.2374
17778SOL    HW255873   4.663  10.021   2.559  0.1941 -1.2417 -0.0323
17779SOL     OW55874   4.728   2.311   7.346  0.1390  0.1218  0.1528
17779SOL    HW155875   4.804   2.369   7.339  0.9796 -0.9730  0.0606
17779SOL    HW255876   4.751   2.251   7.417  0.8440 -2.3903 -2.1208
17780SOL     OW55877   1.336   6.696   2.678 -0.1383 -0.1889  0.0914
17780SOL    HW155878   1.276   6.622   2.686 -0.3001  0.0082  0.6567
17780SOL    HW255879   1.392   6.690   2.755  1.3516 -1.0813 -1.0337
17781SOL     OW55880   1.369   2.416   4.128  0.1843  0.3066 -0.4574
17781SOL    HW155881   1.389   2.479   4.198  0.8909 -0.6191  0.1910
17781SOL    HW255882   1.338   2.338   4.174  0.7884 -0.3572 -1.1581
17782SOL     OW55883   1.585   2.897   0.971 -0.3868 -0.1067 -0.6342
17782SOL    HW155884   1.662   2.921   0.920 -1.0209 -1.1297 -2.1064
17782SOL    HW255885   1.512   2.939   0.926 -0.9030 -0.6492 -0.3236
17783SOL     OW55886   2.517   8.057   9.121  0.1800 -0.8128 -0.2091
17783SOL    HW155887   2.484   8.097   9.201  0.0747  0.3415 -0.8220
17783SOL    HW255888   2.612   8.054   9.133  0.1667 -0.6194 -0.0500
17784SOL     OW55889   3.283   1.244   7.781  0.0272 -0.1618 -0.0855
17784SOL    HW155890   3.365   1.293   7.776 -0.5298  0.7871 -0.0763
17784SOL    HW255891   3.221   1.296   7.730 -0.3783 -1.2641 -0.7157
17785SOL     OW55892   5.656   1.132   5.442  0.3172 -0.0773 -0.4867
17785SOL    HW155893   5.571   1.098   5.470 -0.2748  0.2832 -1.7873
17785SOL    HW255894   5.637   1.223   5.416  0.9850 -0.1820 -1.3474
17786SOL     OW55895   2.107   2.166  10.184  0.1644  0.3407  0.2102
17786SOL    HW155896   2.106   2.236  10.118 -3.9960 -1.6632 -2.0307
17786SOL    HW255897   2.092   2.211  10.267 -1.3420  2.2649 -1.0552
17787SOL     OW55898   0.273   5.515   9.946 -0.2093  0.3493 -0.2590
17787SOL    HW155899   0.297   5.607   9.958 -1.7081  0.5624  1.3577
17787SOL    HW255900   0.202   5.500  10.009 -0.2009 -1.8332 -0.7126
17788SOL     OW55901   0.735   9.829   8.835 -0.3034  0.1886  0.3245
17788SOL    HW155902   0.761   9.856   8.922  0.2713 -0.9903  0.5327
17788SOL    HW255903   0.775   9.893   8.776 -0.8574  1.0925  0.9345
17789SOL     OW55904   0.544   4.533   4.809  0.3854  0.4914  0.1659
17789SOL    HW155905   0.576   4.484   4.733  1.2016  2.6645 -0.9480
17789SOL    HW255906   0.621   4.549   4.862  0.3033  1.3728  0.0322
17790SOL     OW55907   4.485   0.122   5.160  0.4227  0.7390 -0.2845
17790SOL    HW155908   4.415   0.071   5.201 -0.1278  1.4790 -0.2964
17790SOL    HW255909   4.506   0.190   5.224  2.7024 -0.7976  0.6995
17791SOL     OW55910   1.991   3.561   1.690  0.5875 -0.6071 -0.2017
17791SOL    HW155911   1.927   3.547   1.760  1.0111 -1.6352 -0.0098
17791SOL    HW255912   2.075   3.537   1.730  1.1270  0.8311 -0.4089
17792SOL     OW55913   7.664   4.194   2.988 -0.7609  0.1883  0.0230
17792SOL    HW155914   7.745   4.185   3.038 -0.7483  0.6863  0.0960
17792SOL    HW255915   7.604   4.131   3.028 -1.2414  1.6617  1.6681
17793SOL     OW55916   2.082   0.452   7.116 -0.2502 -0.4290 -0.1623
17793SOL    HW155917   2.054   0.450   7.207  1.0063  0.4167  0.2612
17793SOL    HW255918   2.068   0.543   7.089  2.2070  0.0788  0.1306
17794SOL     OW55919   6.970   7.830   0.343  0.4297 -0.0232  0.1520
17794SOL    HW155920   6.960   7.909   0.396  0.6830 -1.0188  1.7235
17794SOL    HW255921   6.927   7.851   0.260 -0.1337  1.5061  0.8114
17795SOL     OW55922   4.619   9.655   5.951 -0.4677  0.1284 -0.0261
17795SOL    HW155923   4.617   9.582   5.889  1.7182 -1.1228  1.3342
17795SOL    HW255924   4.555   9.631   6.018  1.1764 -1.2061  1.1052
17796SOL     OW55925   9.102   4.238   5.169 -0.7213 -0.1537  0.2702
17796SOL    HW155926   9.039   4.309   5.161 -1.4945 -0.7468  0.9135
17796SOL    HW255927   9.049   4.158   5.158 -0.6067 -0.7571  3.6953
17797SOL     OW55928   8.808   3.037   8.184 -0.1373 -0.3555  0.2578
17797SOL    HW155929   8.848   3.079   8.259  1.5732  0.0290 -0.8431
17797SOL    HW255930   8.726   3.000   8.218  0.0069  0.8639  2.0056
17798SOL     OW55931   3.179   6.440   0.647  0.0801 -0.2486 -0.6349
17798SOL    HW155932   3.134   6.355   0.645  0.3641 -0.5341  2.3952
17798SOL    HW255933   3.110   6.503   0.667  0.3647 -0.1848  0.1694
17799SOL     OW55934   7.666   0.360   7.382 -0.0484 -0.1137  0.0144
17799SOL    HW155935   7.719   0.366   7.461 -0.5977 -2.5379  0.6060
17799SOL    HW255936   7.729   0.356   7.310  0.4838  0.3984  0.4503
17800SOL     OW55937   8.462   7.193   8.637  0.2164  0.1793 -0.3413
17800SOL    HW155938   8.446   7.284   8.662  1.4834  0.9058 -2.0913
17800SOL    HW255939   8.548   7.173   8.673  0.2045 -0.1324 -0.4871
17801SOL     OW55940   5.509   1.126   6.658 -0.2908 -0.3444  0.4102
17801SOL    HW155941   5.512   1.220   6.643  0.0650 -0.2024  1.4088
17801SOL    HW255942   5.592   1.093   6.623  0.6874  0.0338  2.3079
17802SOL     OW55943   7.971   3.003   9.018 -0.0691 -0.0041  0.2228
17802SOL    HW155944   7.985   3.087   8.973 -0.3310  0.8705  1.7305
17802SOL    HW255945   7.883   3.010   9.054  1.1127  0.4653  3.1934
17803SOL     OW55946   0.662   9.042   3.824  0.6088  0.3255 -0.2234
17803SOL    HW155947   0.649   9.050   3.729  2.4164  1.7659 -0.3870
17803SOL    HW255948   0.738   9.097   3.842  2.1418 -2.2795  1.6227
17804SOL     OW55949  10.062   3.798   7.840  0.6063 -0.2828  0.2775
17804SOL    HW155950   9.970   3.824   7.842  0.7160  0.0980  0.3132
17804SOL    HW255951  10.066   3.722   7.898 -0.1317 -1.7866 -1.5928
17805SOL     OW55952   2.024   6.978   0.447 -0.1517  0.4390  0.3439
17805SOL    HW155953   2.059   6.936   0.526 -1.8703 -0.3305  0.7401
17805SOL    HW255954   1.930   6.957   0.450 -0.3365  0.9659 -1.5608
17806SOL     OW55955   3.038   9.961   1.919 -0.4811  0.0489 -0.4580
17806SOL    HW155956   2.996   9.879   1.943 -0.8127  0.7530  1.4411
17806SOL    HW255957   3.130   9.938   1.906 -0.5544 -0.6006  0.1517
17807SOL     OW55958   5.067   2.106   3.716 -0.0163 -0.7779  0.4020
17807SOL    HW155959   5.093   2.194   3.690 -0.8441 -0.2732  1.2675
17807SOL    HW255960   5.045   2.063   3.633 -2.6081  0.8140  0.2230
17808SOL     OW55961   8.750   4.956   4.160 -0.0383 -0.3647 -0.5596
17808SOL    HW155962   8.781   4.865   4.163  0.8779 -0.0682 -0.7280
17808SOL    HW255963   8.748   4.983   4.252  0.9217 -0.1571 -0.5938
17809SOL     OW55964   7.863   7.462  10.201  0.1515  0.0502 -0.2544
17809SOL    HW155965   7.915   7.392  10.161 -1.1663  0.5142 -2.8628
17809SOL    HW255966   7.775   7.425  10.208  0.2180  0.2056  1.6777
17810SOL     OW55967   8.919  10.070   7.643 -0.1985  0.7772 -0.1916
17810SOL    HW155968   8.867   9.991   7.629 -0.0610  0.9037 -1.4573
17810SOL    HW255969   8.983  10.045   7.710 -0.5192 -0.0153 -0.1759
17811SOL     OW55970   6.848   2.708   7.173 -0.2875  0.1185 -0.6403
17811SOL    HW155971   6.865   2.802   7.175  1.9994 -0.2468 -0.7317
17811SOL    HW255972   6.935   2.669   7.179 -1.1600 -1.9876 -1.3962
17812SOL     OW55973   0.717   5.117   2.611  0.1137  0.0463  0.0479
17812SOL    HW155974   0.662   5.047   2.574 -0.2911 -0.4096  1.5042
17812SOL    HW255975   0.656   5.174   2.657  0.3788  1.6518 -1.5087
17813SOL     OW55976   4.898   9.769   2.574 -0.0904 -0.1326 -0.5243
17813SOL    HW155977   4.826   9.712   2.545 -1.0170  1.4280 -1.3726
17813SOL    HW255978   4.889   9.771   2.669 -0.5900 -0.7013 -0.5550
17814SOL     OW55979   3.808   7.421   5.626  0.0485 -0.4140 -0.0131
17814SOL    HW155980   3.809   7.342   5.572  0.6920  0.2811 -1.0264
17814SOL    HW255981   3.887   7.415   5.680  0.0337 -0.5184 -0.0039
17815SOL     OW55982   3.547   9.813   6.255 -0.6212 -0.1834 -0.2566
17815SOL    HW155983   3.466   9.817   6.205 -0.6875 -0.5805 -0.1833
17815SOL    HW255984   3.531   9.747   6.322 -1.2113  1.7462  1.5438
17816SOL     OW55985   7.209   8.592   0.747  0.1889  0.3240  0.3206
17816SOL    HW155986   7.209   8.581   0.652 -0.3449 -1.9184  0.5587
17816SOL    HW255987   7.288   8.546   0.776 -0.4753 -0.3526  1.0859
17817SOL     OW55988   3.632   2.633   0.384  0.1919  0.1025  0.3561
17817SOL    HW155989   3.549   2.669   0.415  0.3081  0.8901 -0.2070
17817SOL    HW255990   3.697   2.699   0.408  0.5960 -0.3251  0.4402
17818SOL     OW55991   2.571   0.353   2.198 -0.0292  0.4585  0.1462
17818SOL    HW155992   2.574   0.376   2.105  0.3585  1.0124  0.2925
17818SOL    HW255993   2.513   0.277   2.202 -1.8300  1.7553 -0.2954
17819SOL     OW55994  10.194   4.899   5.689 -0.1423 -0.3975  0.4279
17819SOL    HW155995  10.129   4.876   5.755 -0.8007  2.0573  0.6995
17819SOL    HW255996  10.263   4.944   5.738 -0.4204  1.0481 -0.4534
17820SOL     OW55997   4.417   3.817   6.178 -0.2982 -0.8340 -0.7977
17820SOL    HW155998   4.338   3.797   6.228 -0.4171 -0.7796 -0.9661
17820SOL    HW255999   4.393   3.891   6.122  0.5211  0.6998  0.8099
17821SOL     OW56000   1.928   0.609   4.966 -0.3555 -0.3358 -0.3679
17821SOL    HW156001   1.934   0.546   4.894 -0.8534  1.2754 -1.8391
17821SOL    HW256002   2.010   0.658   4.962 -1.4543  1.4367 -1.4278
17822SOL     OW56003   0.227   9.367   0.652 -0.0838 -0.2907  0.4146
17822SOL    HW156004   0.274   9.382   0.570  3.0141 -0.9590  1.9971
17822SOL    HW256005   0.136   9.351   0.626  0.8266 -0.3191 -2.8485
17823SOL     OW56006   1.906   3.669   1.459  0.2763 -0.0056 -0.2123
17823SOL    HW156007   1.936   3.632   1.542 -0.2878 -0.4668 -0.2050
17823SOL    HW256008   1.964   3.632   1.393  0.6440  0.2588 -0.0343
17824SOL     OW56009   7.237   7.856   4.370  0.2883  0.8271  0.6102
17824SOL    HW156010   7.297   7.784   4.352  1.1592  1.5827  0.4487
17824SOL    HW256011   7.150   7.822   4.348  0.8530  0.2792 -0.8036
17825SOL     OW56012   6.563   0.456   8.495 -0.2770 -0.3883  0.2095
17825SOL    HW156013   6.630   0.474   8.560 -0.6669 -1.0182  0.7932
17825SOL    HW256014   6.493   0.519   8.514 -0.3714 -0.5434  0.3775
17826SOL     OW56015   1.998   7.425   0.487 -0.4509 -0.6394 -0.7911
17826SOL    HW156016   1.992   7.480   0.409 -0.9394  1.2883  0.5675
17826SOL    HW256017   1.906   7.405   0.508 -0.2715 -2.1699 -1.3836
17827SOL     OW56018   9.603   5.413   5.783 -0.4381 -0.1640  0.4526
17827SOL    HW156019   9.662   5.352   5.826 -0.5595 -1.3224 -0.9487
17827SOL    HW256020   9.660   5.474   5.737 -0.3070 -0.9408 -0.4388
17828SOL     OW56021   5.809   2.658   8.455  0.5355 -0.6313 -0.3255
17828SOL    HW156022   5.780   2.724   8.392 -2.1034  0.0426  1.4859
17828SOL    HW256023   5.836   2.708   8.532 -1.6967 -1.5742  1.1520
17829SOL     OW56024   1.129   7.320   6.679 -0.2183  0.1402 -0.1038
17829SOL    HW156025   1.220   7.305   6.651 -0.0437 -0.8064  0.9604
17829SOL    HW256026   1.089   7.234   6.677 -0.5664  0.2703  1.2938
17830SOL     OW56027   8.430   0.703   6.915  0.5300 -0.1687  0.4027
17830SOL    HW156028   8.462   0.785   6.954 -1.9934  0.7451  0.6239
17830SOL    HW256029   8.376   0.664   6.984 -1.9989  0.2480 -1.2991
17831SOL     OW56030   2.490   0.191   0.407 -0.0228  0.5249  0.4668
17831SOL    HW156031   2.503   0.110   0.357  1.7620  1.8074 -1.2195
17831SOL    HW256032   2.479   0.162   0.497  0.5218 -1.6080 -0.1200
17832SOL     OW56033   9.901   8.694   4.492  0.0770  0.4390  0.5186
17832SOL    HW156034   9.880   8.729   4.579  0.4716  0.5798  0.5604
17832SOL    HW256035   9.996   8.680   4.495  0.3242  1.8718 -0.4088
17833SOL     OW56036   7.871   9.542   8.086  0.7236  0.1391  0.0580
17833SOL    HW156037   7.820   9.478   8.135 -0.1240  0.6621 -0.1314
17833SOL    HW256038   7.850   9.626   8.127  2.0800  0.2647  0.5128
17834SOL     OW56039   7.198   8.685   0.377 -0.2279  0.0277 -0.5537
17834SOL    HW156040   7.237   8.675   0.290 -0.6583  1.6394 -0.9405
17834SOL    HW256041   7.104   8.686   0.362 -0.3539 -1.1881  0.0994
17835SOL     OW56042   2.382   8.357   5.587  0.5507 -0.0512 -0.1552
17835SOL    HW156043   2.381   8.361   5.491  0.2927 -1.7446 -0.2381
17835SOL    HW256044   2.301   8.312   5.610  1.4685 -1.2951  0.7548
17836SOL     OW56045   8.396   5.301   4.369  0.0244 -0.0402  0.3432
17836SOL    HW156046   8.476   5.258   4.398 -0.1419 -0.1613  0.6318
17836SOL    HW256047   8.368   5.250   4.294  0.8433  0.7075 -0.4754
17837SOL     OW56048   5.133   4.656   1.868 -0.6215  0.3340 -0.1230
17837SOL    HW156049   5.169   4.705   1.794  0.2997 -1.0649 -0.6452
17837SOL    HW256050   5.206   4.651   1.930 -0.2477 -1.5102 -0.6730
17838SOL     OW56051   9.157   3.935   6.093  0.4166 -0.2105  0.4760
17838SOL    HW156052   9.230   3.873   6.088  0.1288 -0.4865 -0.3623
17838SOL    HW256053   9.181   4.006   6.034 -0.1502 -0.4732 -0.0779
17839SOL     OW56054   3.380   0.179   1.149 -0.0440  0.4325  0.4468
17839SOL    HW156055   3.455   0.167   1.090 -1.0907 -0.2832 -0.7611
17839SOL    HW256056   3.348   0.266   1.129 -0.9591 -0.1613 -0.7096
17840SOL     OW56057   0.277   4.058   9.168 -0.0227  0.2643 -0.7483
17840SOL    HW156058   0.224   4.128   9.205 -1.0085 -0.3778 -0.9239
17840SOL    HW256059   0.361   4.065   9.213 -0.8639  0.1333  0.9045
17841SOL     OW56060   3.663   0.955   1.277 -0.0513  0.4623  0.1027
17841SOL    HW156061   3.579   0.918   1.302  0.0314  1.0500  1.3476
17841SOL    HW256062   3.681   1.021   1.345  1.6260  0.0188  0.1193
17842SOL     OW56063   6.718   9.093   0.684 -0.3605 -0.2945 -0.1537
17842SOL    HW156064   6.681   9.005   0.681 -0.0618 -0.3741 -1.6581
17842SOL    HW256065   6.787   9.088   0.750  0.8916 -1.6748 -1.5343
17843SOL     OW56066   7.584   7.380   0.069  0.7168 -0.0421  0.7322
17843SOL    HW156067   7.564   7.348   0.157 -1.0564  0.7480  0.6300
17843SOL    HW256068   7.546   7.468   0.066  1.7188  0.3755 -0.4713
17844SOL     OW56069   1.023   9.355   2.446  0.0345  0.1952 -0.0137
17844SOL    HW156070   0.958   9.413   2.407 -0.3307  0.9720  1.6861
17844SOL    HW256071   0.982   9.324   2.527  0.3345 -2.2277 -0.7687
17845SOL     OW56072   1.086   6.236  10.030 -0.1855 -0.0848  0.3268
17845SOL    HW156073   1.018   6.232  10.097 -0.6443  0.9302 -0.0639
17845SOL    HW256074   1.054   6.179   9.960  0.0136 -0.6768  0.7134
17846SOL     OW56075   3.069   8.624   5.209  0.1462 -0.1744  0.5715
17846SOL    HW156076   3.057   8.530   5.212 -0.8623 -0.0896 -0.3554
17846SOL    HW256077   3.068   8.652   5.300 -1.5251 -0.8278  0.7723
17847SOL     OW56078   8.470   4.421   2.759  0.5000  0.4906  0.3857
17847SOL    HW156079   8.388   4.460   2.727  0.2641 -1.0900 -0.9839
17847SOL    HW256080   8.443   4.366   2.832  0.3306 -0.1037 -0.1253
17848SOL     OW56081   9.081   3.392   8.755  0.0766 -0.4375  0.6616
17848SOL    HW156082   9.065   3.301   8.729 -0.3568 -0.9821  2.7371
17848SOL    HW256083   9.155   3.387   8.816 -0.2178  0.5595  1.1110
17849SOL     OW56084   6.724   8.660   6.900  0.1869 -0.4940 -0.1638
17849SOL    HW156085   6.780   8.598   6.948 -0.9680 -1.0190  0.5065
17849SOL    HW256086   6.719   8.737   6.956  0.0889 -0.5175 -0.1403
17850SOL     OW56087   8.089   4.669   1.711  0.2831  0.7806 -0.4919
17850SOL    HW156088   8.041   4.747   1.683  1.6005  1.2965 -1.3780
17850SOL    HW256089   8.160   4.703   1.766  0.6555  0.1911 -0.5988
17851SOL     OW56090   8.197   1.145   7.305 -0.0493  0.8026 -0.2557
17851SOL    HW156091   8.190   1.210   7.374  0.9386  1.4850 -0.7969
17851SOL    HW256092   8.132   1.078   7.329 -0.3471  1.4712  0.8390
17852SOL     OW56093   0.472   0.699   2.119  0.1467  0.2507 -0.3719
17852SOL    HW156094   0.382   0.682   2.090 -0.3521 -1.1997  1.9373
17852SOL    HW256095   0.463   0.738   2.206  1.7251  1.3702 -0.6878
17853SOL     OW56096   2.844   0.850   7.657 -0.5243  0.4852  0.6502
17853SOL    HW156097   2.930   0.881   7.629 -0.5285 -0.5030 -0.4988
17853SOL    HW256098   2.783   0.884   7.592 -0.7350 -0.5208  0.3030
17854SOL     OW56099   0.862   8.973   5.538  0.2482 -0.0817 -0.3093
17854SOL    HW156100   0.873   9.021   5.620  0.2597  0.1468 -0.4473
17854SOL    HW256101   0.787   8.915   5.554  0.3337 -0.1347 -0.0919
17855SOL     OW56102   3.322   8.922   3.808 -0.2248 -0.1862 -0.0303
17855SOL    HW156103   3.359   9.001   3.769 -1.8981  0.6557  0.0580
17855SOL    HW256104   3.280   8.951   3.889 -0.4442 -1.2318  0.2475
17856SOL     OW56105   9.098   2.279   5.819 -0.0222  0.1997  0.4162
17856SOL    HW156106   9.148   2.216   5.871  2.4166  0.3663 -1.6260
17856SOL    HW256107   9.041   2.225   5.764  0.5776 -0.1670  0.1478
17857SOL     OW56108   6.229   5.883   2.792  0.3672 -0.3717 -0.1994
17857SOL    HW156109   6.308   5.830   2.801  0.3475 -0.7895 -2.2140
17857SOL    HW256110   6.159   5.828   2.827  1.3177  1.2182  4.6397
17858SOL     OW56111   6.823   7.535   4.620  0.0823  0.0801  0.2783
17858SOL    HW156112   6.788   7.467   4.561  0.5218 -0.8977  1.1239
17858SOL    HW256113   6.918   7.531   4.606  0.2157 -0.4090  1.3230
17859SOL     OW56114   1.022   7.472   8.263  0.4115 -0.0689  0.5581
17859SOL    HW156115   1.065   7.396   8.222 -0.1381  0.1866 -0.5018
17859SOL    HW256116   1.095   7.526   8.294  0.8336 -0.3694  0.1003
17860SOL     OW56117   1.964   9.824   2.128 -0.8485 -0.1264  0.8657
17860SOL    HW156118   2.056   9.807   2.108 -0.8404 -0.5445  1.2648
17860SOL    HW256119   1.965   9.912   2.166 -0.9967  1.1346 -1.9051
17861SOL     OW56120   3.932   3.313   2.967 -0.2571  0.3212  0.0985
17861SOL    HW156121   3.988   3.300   3.043  0.1452 -0.2878 -0.2962
17861SOL    HW256122   3.993   3.334   2.896 -0.5244 -0.3082 -0.3264
17862SOL     OW56123  10.132   0.014   5.538 -0.2077 -0.5634 -0.9984
17862SOL    HW156124  10.207  -0.045   5.551 -0.9204 -1.1451  0.5725
17862SOL    HW256125  10.169   0.102   5.549  0.5149 -0.7776 -1.6282
17863SOL     OW56126   5.906   4.996   3.767 -0.0464 -0.8096 -0.3452
17863SOL    HW156127   5.811   4.979   3.766 -0.0864 -0.5643 -0.6913
17863SOL    HW256128   5.929   5.012   3.676  0.3039 -0.7165 -0.2418
17864SOL     OW56129   7.420   2.022   2.113 -0.3036  0.1483 -0.2502
17864SOL    HW156130   7.392   2.016   2.204  1.2027 -1.1366  0.1606
17864SOL    HW256131   7.501   2.074   2.116  0.3973 -0.8939 -0.6801
17865SOL     OW56132   4.019   4.859   4.363 -0.6890 -0.2814  0.2529
17865SOL    HW156133   4.099   4.806   4.361  0.5748  1.5908  0.5255
17865SOL    HW256134   3.970   4.824   4.438  1.2262  0.4787  1.9106
17866SOL     OW56135   8.832   8.548   1.688 -0.0096 -0.4144  0.6929
17866SOL    HW156136   8.903   8.559   1.752 -0.5044 -2.4964  1.6702
17866SOL    HW256137   8.758   8.515   1.740 -0.7844 -1.0645 -0.7801
17867SOL     OW56138   9.591   9.121   9.401 -0.0081  0.4430 -0.0239
17867SOL    HW156139   9.592   9.116   9.305 -1.0727 -0.6624  0.0044
17867SOL    HW256140   9.573   9.032   9.429 -1.2710  1.0551  1.1593
17868SOL     OW56141   3.170   9.036   5.087  0.1972  0.0516 -0.3490
17868SOL    HW156142   3.227   8.976   5.134  1.2630  0.6242 -0.9093
17868SOL    HW256143   3.143   8.988   5.008 -0.5807 -0.4357  0.2022
17869SOL     OW56144   7.506   6.701   9.354 -0.0333  0.1705 -0.1083
17869SOL    HW156145   7.503   6.725   9.261 -1.2945  0.1142 -0.0961
17869SOL    HW256146   7.532   6.781   9.399 -1.8711  0.9019 -0.2897
17870SOL     OW56147   4.322   9.640   9.081  0.0557  0.5499  0.4448
17870SOL    HW156148   4.302   9.672   8.993 -1.7005  0.1969  0.6906
17870SOL    HW256149   4.366   9.556   9.067 -0.6515  0.2611 -0.1080
17871SOL     OW56150   3.117   7.907   6.021  0.2025 -0.5135 -0.7829
17871SOL    HW156151   3.128   7.825   6.070 -1.2212 -0.2391  0.0289
17871SOL    HW256152   3.076   7.967   6.084 -1.0989  0.0304 -2.1322
17872SOL     OW56153   6.759   3.147   6.690  0.4455  0.2243  0.6024
17872SOL    HW156154   6.689   3.095   6.731  0.2074 -0.1529 -0.2781
17872SOL    HW256155   6.732   3.155   6.598  0.7378  1.4655  0.6123
17873SOL     OW56156   0.708   7.559   2.520 -0.3422  0.2411  0.2391
17873SOL    HW156157   0.800   7.582   2.515 -0.3693  0.2548 -0.2307
17873SOL    HW256158   0.706   7.464   2.509 -0.5190  0.4369 -1.5302
17874SOL     OW56159   8.426   5.695   5.534  0.2453  0.0884 -0.4955
17874SOL    HW156160   8.384   5.713   5.450  2.3506  0.0913 -1.5935
17874SOL    HW256161   8.424   5.779   5.580 -0.2726  0.2696 -0.8420
17875SOL     OW56162   9.471   1.189   5.510  0.3659  0.7263 -0.2606
17875SOL    HW156163   9.501   1.255   5.573  0.5528  1.7544 -1.4027
17875SOL    HW256164   9.547   1.174   5.454  0.6419 -1.2129  0.5741
17876SOL     OW56165   2.638   2.151   6.933 -0.2351  0.1667 -0.0097
17876SOL    HW156166   2.723   2.117   6.961 -0.7398  0.5419  2.0763
17876SOL    HW256167   2.577   2.081   6.954 -0.4498 -0.1739 -1.6690
17877SOL     OW56168   7.347   4.150   4.201  0.2137  0.2257  0.0238
17877SOL    HW156169   7.286   4.223   4.209 -0.2343  0.1074 -1.9241
17877SOL    HW256170   7.422   4.185   4.153 -0.0985 -0.6147 -1.1167
17878SOL     OW56171   0.294   4.837   4.446 -0.1126 -0.1292  0.4675
17878SOL    HW156172   0.226   4.887   4.489 -2.0976 -1.6447 -0.7998
17878SOL    HW256173   0.283   4.856   4.353  0.9812 -0.6523  0.2146
17879SOL     OW56174   1.667  10.023   7.349  0.0025  0.2486  0.5966
17879SOL    HW156175   1.691  10.101   7.399  0.7471 -0.4954  1.4211
17879SOL    HW256176   1.593  10.051   7.295 -0.2284  1.3145  1.4434
17880SOL     OW56177   6.958   9.632   4.767 -0.9590 -0.5216 -0.3524
17880SOL    HW156178   6.944   9.688   4.843 -0.9792  0.2265 -0.9008
17880SOL    HW256179   7.021   9.567   4.797  0.3744  0.8141 -0.2085
17881SOL     OW56180   0.304   9.779   4.860 -0.4363 -0.0854  0.1489
17881SOL    HW156181   0.342   9.781   4.948  1.4732  1.6271 -0.6795
17881SOL    HW256182   0.249   9.701   4.860 -0.8652  0.1463  3.0208
17882SOL     OW56183   0.629   2.600   6.985  0.5717  0.0326 -0.2404
17882SOL    HW156184   0.667   2.673   6.935 -0.0912  0.4484 -0.1574
17882SOL    HW256185   0.565   2.561   6.925 -0.1376  0.4549  0.2251
17883SOL     OW56186   8.847   0.723   5.086  0.5020  0.0936 -0.2341
17883SOL    HW156187   8.801   0.807   5.086 -1.1396 -0.7940  0.6256
17883SOL    HW256188   8.864   0.704   4.994  0.6426  1.2225 -0.4499
17884SOL     OW56189   0.128   5.225   1.538  0.1326 -0.1116  0.5226
17884SOL    HW156190   0.147   5.303   1.590  0.0911 -0.1507  0.5962
17884SOL    HW256191   0.207   5.210   1.486  0.3989 -0.4227  1.0114
17885SOL     OW56192   9.789   9.771   3.914  0.6598  0.6777 -0.5040
17885SOL    HW156193   9.851   9.769   3.841 -0.9926  0.5254 -1.9279
17885SOL    HW256194   9.728   9.700   3.896  0.0914  0.7990  0.9000
17886SOL     OW56195   2.598   4.692   7.550  0.2258 -0.2996 -1.0066
17886SOL    HW156196   2.590   4.675   7.644 -1.6990 -0.1835 -1.1239
17886SOL    HW256197   2.629   4.782   7.545  0.8704 -0.4921 -0.4692
17887SOL     OW56198   8.462   5.850   6.310 -0.0848 -0.7333  0.1500
17887SOL    HW156199   8.378   5.803   6.315 -1.7424  1.8524 -2.2590
17887SOL    HW256200   8.500   5.822   6.227  0.0254  0.3799 -0.1752
17888SOL     OW56201   7.319   5.097   4.223  0.1675  0.1673 -0.3777
17888SOL    HW156202   7.410   5.126   4.226  0.3676 -0.5213  0.6021
17888SOL    HW256203   7.314   5.028   4.289 -0.9673 -0.0863 -0.7176
17889SOL     OW56204   3.274   5.603   7.764  0.0852  0.0621 -0.1333
17889SOL    HW156205   3.188   5.644   7.771 -0.2403 -0.8204  1.3848
17889SOL    HW256206   3.279   5.544   7.840  1.5917 -0.7033 -0.7884
17890SOL     OW56207   1.734   2.862   6.045 -0.5044  0.3924 -0.1048
17890SOL    HW156208   1.760   2.781   6.001 -2.2672  0.3100 -1.0208
17890SOL    HW256209   1.781   2.931   5.998  1.1855 -0.0700  0.8214
17891SOL     OW56210   9.903   1.037   2.561  1.1096 -0.6019 -0.0653
17891SOL    HW156211   9.962   0.999   2.496  0.1809 -0.0585 -1.2458
17891SOL    HW256212   9.822   0.987   2.551  0.8963 -0.3666  0.5145
17892SOL     OW56213   7.045   0.957   7.624 -0.2251  0.4541  0.6400
17892SOL    HW156214   7.130   0.994   7.644 -0.2207 -0.0538  1.6121
17892SOL    HW256215   7.004   0.943   7.710  0.0588 -2.4296  0.3489
17893SOL     OW56216   9.054   7.321   7.603  0.0710 -0.3608  0.1405
17893SOL    HW156217   8.986   7.386   7.585 -1.5021 -1.7198  0.9653
17893SOL    HW256218   9.016   7.238   7.574  0.8862 -1.3133  1.7314
17894SOL     OW56219   2.421   4.511   3.757 -0.5831 -0.6858 -0.5500
17894SOL    HW156220   2.425   4.582   3.693  2.2835  0.7208  1.0643
17894SOL    HW256221   2.396   4.553   3.838 -3.7119 -2.3824 -0.5645
17895SOL     OW56222   5.115  10.149   8.778  0.2811  0.5058 -0.0435
17895SOL    HW156223   5.138  10.242   8.782  0.1014  0.6309 -1.6263
17895SOL    HW256224   5.199  10.103   8.771  0.2754  0.7356 -2.0066
17896SOL     OW56225   9.366   7.165   1.444  0.0277  0.3519  0.0659
17896SOL    HW156226   9.372   7.146   1.350 -0.3290 -0.4902  0.2089
17896SOL    HW256227   9.456   7.182   1.471  0.2223 -0.1016 -0.2838
17897SOL     OW56228   6.776   6.445   1.298  0.3212 -0.4974 -0.2922
17897SOL    HW156229   6.836   6.519   1.288  0.4058 -0.1370  2.4267
17897SOL    HW256230   6.692   6.485   1.322  0.1738 -1.2059  0.4267
17898SOL     OW56231   3.970   0.201   2.967  0.8082 -0.4419  0.4401
17898SOL    HW156232   3.927   0.172   3.048  1.2733 -2.2827  0.0541
17898SOL    HW256233   4.033   0.132   2.948  0.7234 -0.0135 -1.4758
17899SOL     OW56234   6.328   7.318   8.349  0.3605  0.0509  0.6223
17899SOL    HW156235   6.333   7.356   8.262  1.3096  0.5531  0.9008
17899SOL    HW256236   6.234   7.310   8.366  0.1709  0.6075 -0.1543
17900SOL     OW56237   7.380   6.876   8.864 -0.3768 -1.1805 -0.1067
17900SOL    HW156238   7.424   6.792   8.853  2.9795  0.2466  1.6123
17900SOL    HW256239   7.428   6.936   8.806 -0.9872  0.1199  0.6979
17901SOL     OW56240   6.109   2.284   8.410  0.2762  0.1245 -0.0362
17901SOL    HW156241   6.186   2.340   8.412  0.8589 -0.7000  2.2963
17901SOL    HW256242   6.038   2.338   8.445  0.3980  0.0114  0.3799
17902SOL     OW56243   0.870   0.194   5.227 -0.3544  0.0920 -0.1772
17902SOL    HW156244   0.948   0.169   5.274 -0.7754 -1.8115 -0.4532
17902SOL    HW256245   0.902   0.235   5.146  0.3761 -2.1869 -1.0707
17903SOL     OW56246   4.773   6.124   4.752  0.4403  0.5021 -0.2962
17903SOL    HW156247   4.691   6.100   4.710 -0.2947 -0.7920  1.7782
17903SOL    HW256248   4.778   6.219   4.743  0.0155  0.3234 -2.6974
17904SOL     OW56249   6.167   1.507   6.176  0.8303 -0.3478 -0.2469
17904SOL    HW156250   6.183   1.596   6.207  0.1142 -0.0491 -0.6922
17904SOL    HW256251   6.140   1.459   6.254  1.0125 -0.1140 -0.0384
17905SOL     OW56252   6.840   5.139   6.199 -0.6420  0.2459  0.1445
17905SOL    HW156253   6.776   5.204   6.229 -1.0685 -0.0121 -0.1943
17905SOL    HW256254   6.922   5.164   6.241 -0.5132  1.7174 -0.9513
17906SOL     OW56255   9.489   3.501   0.531  0.1178  0.1951 -0.9567
17906SOL    HW156256   9.529   3.542   0.608 -1.5551  1.3680 -0.6928
17906SOL    HW256257   9.514   3.409   0.538 -0.6366  0.1285  1.4304
17907SOL     OW56258   9.703   8.954   5.815 -0.3765 -0.0047 -0.2868
17907SOL    HW156259   9.655   8.996   5.743  3.6187  3.5331 -1.1140
17907SOL    HW256260   9.743   8.877   5.775  1.0846  1.4581 -1.7575
17908SOL     OW56261   5.456   7.817   5.453 -0.3984 -0.1150  0.5474
17908SOL    HW156262   5.380   7.839   5.507  0.2947  1.9349  0.6941
17908SOL    HW256263   5.448   7.872   5.375  0.1103 -1.0343 -0.1747
17909SOL     OW56264   3.841   0.652   7.016  0.0706 -0.2567  0.0802
17909SOL    HW156265   3.935   0.649   7.002  0.6124 -0.2766  3.3943
17909SOL    HW256266   3.830   0.688   7.104 -3.1266  2.5261 -1.3110
17910SOL     OW56267   2.696   7.438   0.556 -0.1605 -0.0842 -0.0225
17910SOL    HW156268   2.669   7.347   0.548  2.7529 -0.7188 -4.1653
17910SOL    HW256269   2.789   7.434   0.580 -0.2551  1.8354  0.7938
17911SOL     OW56270   2.344   3.769   0.752  0.3217 -0.1111 -0.1926
17911SOL    HW156271   2.335   3.776   0.657  0.4559  0.4159 -0.1701
17911SOL    HW256272   2.435   3.741   0.765  0.8636  1.5715 -0.1640
17912SOL     OW56273   3.943   6.354   4.693 -0.0277  0.1248 -0.8187
17912SOL    HW156274   3.994   6.426   4.730 -1.3260  1.2882 -1.2496
17912SOL    HW256275   3.993   6.275   4.715  0.4039  0.9855  1.3816
17913SOL     OW56276   2.842   0.212   9.265  0.3618 -0.1665  0.5427
17913SOL    HW156277   2.854   0.117   9.266  0.2970 -0.2424 -2.0755
17913SOL    HW256278   2.900   0.243   9.195 -2.4545  1.2526 -1.2543
17914SOL     OW56279   1.159   1.222   9.108  0.1831  0.0194 -0.0559
17914SOL    HW156280   1.098   1.270   9.051 -0.4536 -0.4542  0.2243
17914SOL    HW256281   1.104   1.190   9.180  1.2494  1.9032  1.6474
17915SOL     OW56282   0.985   0.921   5.603 -0.6945  0.3583 -0.3595
17915SOL    HW156283   0.978   0.970   5.685 -1.1687  0.7082 -0.6069
17915SOL    HW256284   0.896   0.889   5.587 -0.9702  1.7206 -1.6240
17916SOL     OW56285   6.650   6.292   8.254  0.4352  0.2556 -0.1428
17916SOL    HW156286   6.696   6.291   8.338 -0.3670 -0.0560  0.3073
17916SOL    HW256287   6.702   6.235   8.197  1.4203  1.1111 -0.0977
17917SOL     OW56288   8.840   6.496   7.302  0.6726 -0.6343 -0.2629
17917SOL    HW156289   8.923   6.540   7.281  0.1588 -0.6390 -2.3943
17917SOL    HW256290   8.773   6.552   7.263 -0.2346 -1.3960  0.1991
17918SOL     OW56291   9.950  10.100   6.390  0.1484  0.1310 -0.5209
17918SOL    HW156292   9.854  10.094   6.382  0.0072  1.6666 -0.2120
17918SOL    HW256293   9.976  10.155   6.316  0.9173 -1.1297 -1.1959
17919SOL     OW56294   1.751   8.062   4.142 -0.1140  0.4910 -0.0596
17919SOL    HW156295   1.663   8.078   4.108 -0.0741 -0.7178 -0.7932
17919SOL    HW256296   1.752   7.968   4.162  1.1093  0.4217 -0.3772
17920SOL     OW56297   1.948   0.760   1.467  0.0326  0.4329 -0.0358
17920SOL    HW156298   2.021   0.708   1.502 -1.3821 -1.4953  0.1425
17920SOL    HW256299   1.881   0.696   1.445 -1.9995  2.2192  0.6867
17921SOL     OW56300   8.124   8.121   7.291 -0.8762 -0.6286  0.0058
17921SOL    HW156301   8.125   8.051   7.226  1.5912 -2.2103  1.6338
17921SOL    HW256302   8.103   8.077   7.373  1.3882  0.3517  1.1716
17922SOL     OW56303   9.049   2.612   7.192  0.5562 -0.0474  0.1761
17922SOL    HW156304   9.117   2.582   7.253  1.3903  1.8017  0.1762
17922SOL    HW256305   9.056   2.707   7.194 -1.8768  0.1490 -0.0381
17923SOL     OW56306   9.743   2.211   5.410  0.0997 -0.5483  0.1872
17923SOL    HW156307   9.661   2.170   5.438 -0.5949  0.0772 -0.9383
17923SOL    HW256308   9.724   2.251   5.326  1.3760  0.2016  0.2279
17924SOL     OW56309   4.937   2.012   2.497 -0.7572 -0.5445  0.2116
17924SOL    HW156310   4.907   2.069   2.568  0.5614  1.0621 -0.4841
17924SOL    HW256311   5.011   2.059   2.458  0.1580 -2.5862 -0.6001
17925SOL     OW56312   7.301   5.396   7.688 -0.3759  0.2930 -0.4063
17925SOL    HW156313   7.310   5.489   7.707  1.9917  0.7591 -3.4381
17925SOL    HW256314   7.212   5.387   7.653 -1.6574  0.8334  2.4993
17926SOL     OW56315   0.787   1.947   6.834  0.3499  0.2191 -0.0539
17926SOL    HW156316   0.804   1.855   6.814 -1.2387  0.0800 -0.8582
17926SOL    HW256317   0.870   1.991   6.818  0.8241 -0.9157 -0.7342
17927SOL     OW56318   2.029  10.009   2.300  0.0910 -0.0378  0.0494
17927SOL    HW156319   1.987  10.023   2.384  0.5576 -0.1001  0.2945
17927SOL    HW256320   2.082  10.088   2.287 -1.8310  1.0897 -1.3073
17928SOL     OW56321   6.546   4.817   1.440 -0.0391  0.0647 -0.1877
17928SOL    HW156322   6.589   4.819   1.355 -0.6660 -1.0143 -0.5359
17928SOL    HW256323   6.465   4.867   1.428  0.5318  1.0885  0.1529
17929SOL     OW56324   7.554   1.867   4.604  0.1536 -0.2996 -0.2295
17929SOL    HW156325   7.535   1.773   4.602 -0.8964 -0.1235  0.8441
17929SOL    HW256326   7.611   1.878   4.680  0.7492 -0.1446 -0.6952
17930SOL     OW56327   6.102   1.849   8.435 -0.8850  0.3299  0.0044
17930SOL    HW156328   6.069   1.831   8.347 -1.3198 -1.1104  0.4652
17930SOL    HW256329   6.040   1.912   8.472 -2.2650 -1.1867  0.2952
17931SOL     OW56330   4.029   5.284   1.220 -0.0347  0.2090 -0.3216
17931SOL    HW156331   4.021   5.189   1.217  0.0233  0.1938 -0.0695
17931SOL    HW256332   4.015   5.306   1.312 -1.3084  0.5591 -0.5810
17932SOL     OW56333   6.885   5.941   4.996  0.1707  0.6173  0.4933
17932SOL    HW156334   6.905   5.900   4.911 -3.4461 -2.3843  0.9515
17932SOL    HW256335   6.876   6.034   4.976  2.7147  0.4413 -1.7581
17933SOL     OW56336   1.021   1.238   8.584 -0.4064  0.0533 -0.2187
17933SOL    HW156337   1.027   1.172   8.514  3.3387  0.4542 -0.3348
17933SOL    HW256338   0.950   1.296   8.555 -1.1710 -1.6933 -2.0140
17934SOL     OW56339   1.905   8.133   9.508 -0.4130 -0.4191  0.0834
17934SOL    HW156340   1.816   8.153   9.478 -0.4505 -0.9715 -0.1678
17934SOL    HW256341   1.922   8.044   9.478  0.7447  0.1670 -1.0335
17935SOL     OW56342   4.364   8.350   2.565 -0.1909 -0.7015 -0.7563
17935SOL    HW156343   4.410   8.271   2.538  1.5750 -0.2939  0.9049
17935SOL    HW256344   4.319   8.325   2.646  1.0218  0.1623  0.2144
17936SOL     OW56345   5.331  10.141   2.067  0.4668 -0.1742 -0.2719
17936SOL    HW156346   5.335  10.228   2.106  0.4206 -0.3693  0.1676
17936SOL    HW256347   5.358  10.081   2.137 -2.3955 -0.7935  0.3610
17937SOL     OW56348   6.142   0.254   3.325  0.1594 -0.0309 -0.3600
17937SOL    HW156349   6.060   0.261   3.276 -0.4363 -1.6089  0.4022
17937SOL    HW256350   6.209   0.238   3.258 -0.2234  0.6458 -0.9163
17938SOL     OW56351   1.654   2.524   4.104  0.1691  0.0017 -0.0315
17938SOL    HW156352   1.658   2.510   4.199  0.4729  0.0007 -0.0440
17938SOL    HW256353   1.562   2.511   4.082  0.6911 -3.8051 -0.3043
17939SOL     OW56354   5.226   0.891   2.571 -0.8929  0.1224 -0.4646
17939SOL    HW156355   5.308   0.843   2.581 -1.2573 -0.2619  0.6890
17939SOL    HW256356   5.229   0.958   2.639 -1.1002  0.7317 -1.0519
17940SOL     OW56357   0.437   2.305   7.874  0.1936  0.7394  0.4594
17940SOL    HW156358   0.522   2.318   7.832 -0.6245  1.8674 -0.8717
17940SOL    HW256359   0.445   2.221   7.918  3.0752  2.2180  2.9688
17941SOL     OW56360   8.839   5.456   6.233  0.1178  0.2419 -0.6745
17941SOL    HW156361   8.843   5.529   6.294 -0.7391 -0.4524  0.2245
17941SOL    HW256362   8.924   5.413   6.241 -0.5771 -0.8224  1.2616
17942SOL     OW56363   2.865   6.943   8.651  0.0560  0.0898  0.0181
17942SOL    HW156364   2.899   6.977   8.568  2.7419 -2.2007  0.0807
17942SOL    HW256365   2.883   7.013   8.715  1.6936  0.2443 -0.5911
17943SOL     OW56366   0.777   1.550   0.094 -0.3771  0.2761  1.0626
17943SOL    HW156367   0.715   1.529   0.025 -0.3149 -1.2829  1.4510
17943SOL    HW256368   0.802   1.641   0.078  1.6789 -0.8399 -2.5475
17944SOL     OW56369   4.508   7.595   0.993  0.1873  0.1955 -0.7623
17944SOL    HW156370   4.458   7.674   1.015  0.4822  0.3003 -0.4679
17944SOL    HW256371   4.462   7.559   0.917  0.8457  1.3743 -1.7423
17945SOL     OW56372   2.549  10.104   0.638 -0.4115  0.5883 -0.3186
17945SOL    HW156373   2.457  10.081   0.650 -0.5974  1.4535  0.0089
17945SOL    HW256374   2.561  10.106   0.543 -0.7892  0.6760 -0.3686
17946SOL     OW56375   8.050   1.290   8.210 -0.3893 -0.4788  0.1487
17946SOL    HW156376   8.013   1.255   8.292  2.1986 -1.1770  1.0615
17946SOL    HW256377   8.145   1.279   8.220  0.0752  1.0963 -2.2038
17947SOL     OW56378   3.293   8.491   6.871  0.3686  0.8921  0.4229
17947SOL    HW156379   3.297   8.439   6.951  0.0564 -0.5354 -0.4735
17947SOL    HW256380   3.381   8.486   6.835 -0.1100 -0.4843 -0.5730
17948SOL     OW56381   2.865   4.177   4.801  0.2076 -0.1901 -0.2200
17948SOL    HW156382   2.958   4.176   4.826  0.7222  0.2403 -2.0339
17948SOL    HW256383   2.823   4.235   4.865  1.7997  2.3568 -1.4078
17949SOL     OW56384   7.545   8.748   2.509  0.0463  0.7723  0.0802
17949SOL    HW156385   7.641   8.744   2.510 -0.0039 -0.5001  1.3642
17949SOL    HW256386   7.518   8.687   2.578 -1.7088  0.5500 -0.7861
17950SOL     OW56387   4.116   4.757   2.494  0.2112  0.1672  0.0658
17950SOL    HW156388   4.093   4.759   2.587  2.0624  1.3784  0.5235
17950SOL    HW256389   4.106   4.665   2.469 -0.7225 -0.0917  1.3482
17951SOL     OW56390   4.480   7.502   1.273 -0.1802 -0.1681  0.2317
17951SOL    HW156391   4.406   7.448   1.248 -1.9029  2.0791  0.3293
17951SOL    HW256392   4.524   7.523   1.191 -0.8207  0.1363 -0.0323
17952SOL     OW56393   8.466   4.346   0.627  0.5998  0.0474  0.4694
17952SOL    HW156394   8.533   4.286   0.595  1.0957  0.6887  0.2940
17952SOL    HW256395   8.494   4.432   0.596 -0.9723  0.1657 -0.7198
17953SOL     OW56396   2.693   6.544   5.933  0.4318  0.8705  0.1221
17953SOL    HW156397   2.719   6.631   5.960  0.3493  1.0302 -0.3115
17953SOL    HW256398   2.598   6.549   5.924  0.1682  0.1512  2.2199
17954SOL     OW56399   7.677   4.354   0.261  0.5921 -0.2069  0.1293
17954SOL    HW156400   7.599   4.386   0.215  1.2032  0.5150 -0.4315
17954SOL    HW256401   7.735   4.324   0.191  0.8429 -0.6791  0.5389
17955SOL     OW56402   7.288   0.520   7.889  0.4716  0.2062  0.1410
17955SOL    HW156403   7.239   0.560   7.817  1.9691  3.1756  0.7119
17955SOL    HW256404   7.227   0.522   7.963  1.2195  3.6205  0.7661
17956SOL     OW56405   5.693   0.669   4.281 -0.3132  0.0569  0.3494
17956SOL    HW156406   5.645   0.689   4.361  0.2183  0.9962  0.4448
17956SOL    HW256407   5.782   0.701   4.298  0.4174 -1.8523  0.2670
17957SOL     OW56408   3.749   3.147   1.907  0.0893  0.5068 -0.4742
17957SOL    HW156409   3.675   3.087   1.916  0.8257 -0.0299  2.5802
17957SOL    HW256410   3.826   3.090   1.906  0.7361  1.3204  1.3588
17958SOL     OW56411   3.286   9.870   1.831 -0.8819  0.1520  0.4460
17958SOL    HW156412   3.317   9.779   1.840 -2.1976 -0.2981  0.5254
17958SOL    HW256413   3.345   9.921   1.887  0.9637 -0.3967 -0.9430
17959SOL     OW56414   0.778   7.580   7.270  0.0961 -0.2502 -0.2449
17959SOL    HW156415   0.872   7.568   7.282  0.4672 -0.7756 -3.3450
17959SOL    HW256416   0.738   7.512   7.325  1.5422 -0.9016  0.0264
17960SOL     OW56417   7.235   2.874   6.640  0.7120  0.1351  0.6845
17960SOL    HW156418   7.293   2.799   6.629  0.7488  0.2974 -0.2834
17960SOL    HW256419   7.291   2.942   6.678  1.1799  0.3017 -0.2818
17961SOL     OW56420   9.428   3.006   8.441  0.4324  0.6753 -0.2713
17961SOL    HW156421   9.496   2.938   8.448 -0.4816 -0.3213 -0.9128
17961SOL    HW256422   9.366   2.971   8.377  0.1323  2.2872 -0.8745
17962SOL     OW56423   0.493   5.936   5.513  0.3684  0.5399  0.2540
17962SOL    HW156424   0.585   5.910   5.515  0.2999  0.2984  0.2666
17962SOL    HW256425   0.449   5.864   5.469  0.2871  0.9743 -0.3743
17963SOL     OW56426   8.679   6.559   5.703  0.2659 -0.5989 -0.0805
17963SOL    HW156427   8.721   6.589   5.784  0.7055  0.4099 -0.6700
17963SOL    HW256428   8.639   6.638   5.667 -4.0922 -1.9292  1.5910
17964SOL     OW56429   7.073   0.143   2.993  0.0773 -0.0134  0.5416
17964SOL    HW156430   7.007   0.077   2.971  1.1749 -0.8082 -0.4063
17964SOL    HW256431   7.052   0.169   3.083 -1.6382 -0.1121  0.1804
17965SOL     OW56432   1.986   7.760   6.974  0.4527 -0.0057  0.2751
17965SOL    HW156433   2.022   7.767   7.063  2.0379  0.0904 -0.3519
17965SOL    HW256434   1.981   7.850   6.943 -2.2031  0.1628  1.0391
17966SOL     OW56435   4.842   4.307   6.920  0.2614 -1.0331 -0.3416
17966SOL    HW156436   4.756   4.289   6.882  0.3359 -0.4337 -0.8135
17966SOL    HW256437   4.868   4.391   6.881  0.4408 -0.5157  0.8632
17967SOL     OW56438   9.779  10.190   2.902 -0.1209 -0.3084  0.1783
17967SOL    HW156439   9.703  10.137   2.924  0.6494 -0.3884  2.8479
17967SOL    HW256440   9.744  10.262   2.850 -1.7295 -1.3198 -0.1599
17968SOL     OW56441   8.086   5.590   9.440  0.1857  0.2744  0.5374
17968SOL    HW156442   8.159   5.585   9.502  0.2915 -0.2977  0.3727
17968SOL    HW256443   8.044   5.504   9.446  0.2940  0.1579 -0.3035
17969SOL     OW56444   7.518   4.213   9.706  0.2869  0.3772 -0.3400
17969SOL    HW156445   7.588   4.277   9.716 -1.3223  2.0729  0.2846
17969SOL    HW256446   7.482   4.202   9.794  0.6615 -1.5484 -0.4026
17970SOL     OW56447   1.935   8.655   7.477 -0.5330  0.1520 -0.1986
17970SOL    HW156448   1.911   8.631   7.567  0.3621  1.3216  0.3665
17970SOL    HW256449   1.934   8.572   7.429  0.0712 -0.6412  1.1360
17971SOL     OW56450   1.759   6.918   4.135 -0.3455 -0.7748 -0.8026
17971SOL    HW156451   1.826   6.986   4.146  0.5116 -1.5790 -0.9378
17971SOL    HW256452   1.796   6.860   4.068 -1.7305 -0.5588 -1.7862
17972SOL     OW56453   6.035   0.632   8.159  0.0140 -0.1110 -0.2350
17972SOL    HW156454   6.118   0.675   8.179 -2.1132  3.7057  0.8264
17972SOL    HW256455   5.996   0.686   8.090 -2.9798 -0.0069  1.4514
17973SOL     OW56456   1.232   4.782   2.028  0.2657  0.2333 -0.7282
17973SOL    HW156457   1.181   4.853   1.990 -2.2597 -0.6382  0.9148
17973SOL    HW256458   1.172   4.707   2.029  1.4063 -0.7055  1.6063
17974SOL     OW56459   2.479   5.336   8.440 -0.6214 -0.1630 -0.3258
17974SOL    HW156460   2.513   5.424   8.425 -2.6790  0.7690  0.2843
17974SOL    HW256461   2.387   5.341   8.415 -0.2493 -2.7687 -2.4531
17975SOL     OW56462   6.513   4.143   9.044 -0.3930 -0.0647 -0.0127
17975SOL    HW156463   6.565   4.211   9.002 -0.5853  0.6571  0.9000
17975SOL    HW256464   6.498   4.078   8.976 -1.4501  1.5048 -1.3144
17976SOL     OW56465   6.216   0.708   7.785  0.4786  0.0897 -0.3336
17976SOL    HW156466   6.229   0.736   7.876  0.6417 -1.7074  0.2275
17976SOL    HW256467   6.286   0.752   7.736  1.0444  0.2580  0.6006
17977SOL     OW56468   4.593   6.515   0.296  0.1598 -0.4938 -0.1008
17977SOL    HW156469   4.581   6.609   0.283 -0.7938 -0.7156 -0.9140
17977SOL    HW256470   4.529   6.475   0.237  2.4561 -1.7000 -1.8582
17978SOL     OW56471   0.777   0.969   5.956 -0.2016  0.8391  0.3411
17978SOL    HW156472   0.824   0.892   5.988  0.0155  0.3812 -1.0507
17978SOL    HW256473   0.841   1.040   5.961 -0.8211  1.2585  2.9561
17979SOL     OW56474   9.091   0.547   2.686 -0.0063 -0.0952  0.0523
17979SOL    HW156475   9.163   0.531   2.624  0.7653 -0.0248  0.9143
17979SOL    HW256476   9.104   0.637   2.715 -0.6719  0.0417 -0.0808
17980SOL     OW56477   4.156   9.361   3.137  0.4934 -0.1472 -0.0865
17980SOL    HW156478   4.093   9.410   3.085 -0.6727  2.2415  3.4172
17980SOL    HW256479   4.109   9.281   3.162  0.2177 -0.1848 -0.7204
17981SOL     OW56480   2.454   8.665   0.264 -0.2752 -0.6702  0.0534
17981SOL    HW156481   2.546   8.654   0.288 -0.0437  0.8830 -0.0709
17981SOL    HW256482   2.405   8.628   0.338  0.4367 -0.4023  0.6649
17982SOL     OW56483   7.985   7.890   7.993  0.2655 -0.0893 -0.4003
17982SOL    HW156484   7.894   7.917   7.995  0.4726  0.5529  1.2842
17982SOL    HW256485   8.029   7.954   7.937 -0.1664  0.0828 -0.5402
17983SOL     OW56486   0.047   0.223   6.456  0.7589 -0.2532 -0.8465
17983SOL    HW156487  -0.013   0.170   6.507 -1.5757  2.8886 -0.1584
17983SOL    HW256488   0.034   0.193   6.366  0.2969 -1.5693 -0.3537
17984SOL     OW56489   9.668   7.212   7.439 -0.1639 -0.0028 -0.3775
17984SOL    HW156490   9.701   7.285   7.386 -0.7515 -0.0566 -0.8256
17984SOL    HW256491   9.641   7.252   7.522  0.9156  0.0574 -0.0495
17985SOL     OW56492   8.236   7.834   9.144 -0.4272  0.2265 -0.4218
17985SOL    HW156493   8.245   7.783   9.225  0.7973  2.0102  0.5870
17985SOL    HW256494   8.321   7.827   9.102 -0.2428  1.4516 -0.2564
17986SOL     OW56495   1.484   7.226   2.255  0.3905  0.3620  0.3091
17986SOL    HW156496   1.393   7.232   2.284  0.6789 -1.4621  1.6766
17986SOL    HW256497   1.509   7.317   2.238 -1.4621  0.9541  0.6041
17987SOL     OW56498   5.654   6.036   5.165 -0.0903  0.4672  0.5197
17987SOL    HW156499   5.615   6.122   5.177 -0.7012  0.1844  0.5895
17987SOL    HW256500   5.749   6.051   5.168 -0.1453  1.5090 -1.9119
17988SOL     OW56501   5.116   5.904   8.360 -0.0762 -0.3680 -0.1221
17988SOL    HW156502   5.114   5.979   8.420  1.5098  0.1341 -0.6800
17988SOL    HW256503   5.095   5.829   8.414 -0.9887  0.3762  0.5887
17989SOL     OW56504   2.530   2.461   4.149  0.4572 -0.2352  0.4156
17989SOL    HW156505   2.623   2.438   4.140  0.4776 -0.4003  0.9622
17989SOL    HW256506   2.528   2.556   4.146  0.5486 -0.2629 -0.4280
17990SOL     OW56507   5.008   0.457   1.987  0.3116  0.0539  0.1653
17990SOL    HW156508   5.029   0.366   2.008 -0.4008 -0.4325 -1.1631
17990SOL    HW256509   5.076   0.483   1.924  1.0151  0.7269  1.1776
17991SOL     OW56510   5.849   7.206   4.242  0.0732 -0.1971 -0.0222
17991SOL    HW156511   5.789   7.218   4.169 -1.2276  1.0926  1.2425
17991SOL    HW256512   5.865   7.111   4.244 -0.4887 -0.3368 -1.4650
17992SOL     OW56513   4.739   9.194   7.245 -0.1462  0.1515 -0.9810
17992SOL    HW156514   4.674   9.142   7.199 -0.0039  0.1916 -1.2255
17992SOL    HW256515   4.687   9.259   7.294 -0.2139  1.1571 -2.3703
17993SOL     OW56516   0.499   2.051   9.648 -0.0774  0.8603 -0.2492
17993SOL    HW156517   0.428   2.039   9.711  0.2387  1.6224  0.2698
17993SOL    HW256518   0.473   2.000   9.571 -0.7686  0.4360  0.2606
17994SOL     OW56519   6.377   7.142   3.850 -0.2922 -0.5016  0.6592
17994SOL    HW156520   6.412   7.091   3.923 -0.3255 -1.3437  0.0896
17994SOL    HW256521   6.369   7.231   3.885  2.4501 -0.2677  0.7945
17995SOL     OW56522   7.048   5.215   9.147  0.6832  0.2732 -0.7246
17995SOL    HW156523   6.968   5.242   9.101  1.3333 -1.2816 -2.8373
17995SOL    HW256524   7.096   5.297   9.160 -1.9118  1.4432  1.9421
17996SOL     OW56525   1.552   3.712   9.327  0.3937 -0.3574 -1.0726
17996SOL    HW156526   1.516   3.766   9.397  2.4623 -1.9720  1.3355
17996SOL    HW256527   1.545   3.766   9.248  1.7765  3.1614  1.1268
17997SOL     OW56528   0.106   4.315   2.675  0.3437 -0.1581  0.3362
17997SOL    HW156529   0.051   4.385   2.639  1.3650  0.8209  0.6327
17997SOL    HW256530   0.044   4.249   2.706 -0.5646 -0.7890 -2.7216
17998SOL     OW56531   6.095   6.941   7.496 -0.0929 -0.6125 -0.0072
17998SOL    HW156532   6.042   6.869   7.461 -0.4779 -0.5540  0.4470
17998SOL    HW256533   6.125   6.989   7.419  0.4341 -1.4480 -0.3314
17999SOL     OW56534   4.767   1.825   1.454 -0.5108  0.5773 -0.3594
17999SOL    HW156535   4.779   1.744   1.504  0.9066  1.0736  0.1186
17999SOL    HW256536   4.815   1.810   1.373  1.0483  1.5002  0.3724
18000SOL     OW56537   3.192   7.310  10.197  0.5074  0.4085  0.0046
18000SOL    HW156538   3.179   7.263  10.279  3.6467  0.1224  0.3930
18000SOL    HW256539   3.259   7.376  10.217  0.7557  0.8585 -2.1256
18001SOL     OW56540   8.367   2.540   3.160 -0.0550  0.0366 -0.1332
18001SOL    HW156541   8.458   2.522   3.136  0.2294  1.2406  0.0064
18001SOL    HW256542   8.334   2.595   3.089 -0.2830  0.6632  0.4552
18002SOL     OW56543   7.914   1.052   6.437 -0.2498 -0.0160 -0.0308
18002SOL    HW156544   7.895   1.120   6.500  0.3568  0.2984 -0.1784
18002SOL    HW256545   7.872   0.973   6.472 -0.4924  0.3098  0.4098
18003SOL     OW56546  10.008   9.710   7.396 -0.2813 -0.4825 -0.1588
18003SOL    HW156547  10.088   9.707   7.450 -0.1559  1.1323 -0.2373
18003SOL    HW256548   9.944   9.754   7.452 -0.3662  0.5443 -1.0718
18004SOL     OW56549   3.863   1.480   7.818 -0.1874 -0.0364  0.7284
18004SOL    HW156550   3.846   1.386   7.813  0.3642 -0.2761  2.7970
18004SOL    HW256551   3.955   1.487   7.844 -0.3700  1.0600  1.1240
18005SOL     OW56552   1.498  10.087   1.031  0.1179  0.0170 -0.0515
18005SOL    HW156553   1.492  10.182   1.038 -0.4609 -0.0185 -0.0984
18005SOL    HW256554   1.566  10.072   0.966  1.3651  0.3869  1.1286
18006SOL     OW56555   9.496   0.753   8.571  0.4565  0.0355 -0.4097
18006SOL    HW156556   9.492   0.659   8.550 -0.4630 -0.0823  0.2761
18006SOL    HW256557   9.519   0.756   8.663 -0.6947  0.4643 -0.1285
18007SOL     OW56558   7.179   4.816   6.757 -0.1374 -0.0257 -0.5119
18007SOL    HW156559   7.198   4.859   6.674  1.2643 -1.1600 -0.7955
18007SOL    HW256560   7.258   4.765   6.777 -0.4657  0.1996  1.4872
18008SOL     OW56561   7.449   9.556   0.884 -0.5537  0.2294  0.1686
18008SOL    HW156562   7.359   9.531   0.904 -0.7821  0.7347 -0.1970
18008SOL    HW256563   7.496   9.547   0.967 -0.2832 -2.8002 -0.2566
18009SOL     OW56564   7.896   6.368   3.279  0.6512 -0.0833  0.0239
18009SOL    HW156565   7.977   6.372   3.329  0.9093 -0.2118 -0.3807
18009SOL    HW256566   7.842   6.303   3.326  0.0913  1.2760  1.2847
18010SOL     OW56567   3.222   1.874   0.772 -0.0438  0.6285  0.6544
18010SOL    HW156568   3.166   1.802   0.800 -0.5756  1.0120  0.5959
18010SOL    HW256569   3.272   1.898   0.849  1.1246 -0.6904  0.3277
18011SOL     OW56570   6.754   5.558   5.896 -0.1861  0.0285 -0.1640
18011SOL    HW156571   6.667   5.529   5.921 -0.0233 -1.3316 -1.1137
18011SOL    HW256572   6.742   5.647   5.863 -1.2509 -0.2593 -0.5461
18012SOL     OW56573   0.376   3.376   3.365  0.0589 -0.4419 -0.2864
18012SOL    HW156574   0.346   3.400   3.278 -0.6232  1.6864  0.4999
18012SOL    HW256575   0.300   3.337   3.407  0.1779 -0.7945 -0.3993
18013SOL     OW56576   0.265   4.927   4.190  0.4776 -0.1541  0.4081
18013SOL    HW156577   0.297   4.883   4.111 -0.5496 -0.4937  0.1638
18013SOL    HW256578   0.257   5.019   4.165 -2.1677 -0.6254 -0.6864
18014SOL     OW56579   0.647   2.389   3.197 -0.3038 -0.0426 -0.2937
18014SOL    HW156580   0.577   2.344   3.244 -1.0710  1.0499 -0.3798
18014SOL    HW256581   0.612   2.404   3.110  0.1691  0.2039 -0.4446
18015SOL     OW56582   9.533   6.262   5.028 -0.1220  0.4310  0.5451
18015SOL    HW156583   9.559   6.281   5.118 -1.8395  1.6950  0.7993
18015SOL    HW256584   9.471   6.190   5.035  0.1221  0.2013  0.3319
18016SOL     OW56585   3.657   5.914   9.438  0.7357 -0.9970  0.0638
18016SOL    HW156586   3.737   5.887   9.393 -1.0358 -3.9774 -1.4863
18016SOL    HW256587   3.647   5.851   9.509  0.4272  0.1751  1.0834
18017SOL     OW56588   8.778   7.008   9.270 -0.3319 -0.0335 -0.2089
18017SOL    HW156589   8.759   6.960   9.350 -0.1605  0.5371  0.1790
18017SOL    HW256590   8.836   7.078   9.298  0.5086 -0.4109 -0.9989
18018SOL     OW56591   5.645   7.963   3.722 -0.4822 -0.7186 -0.1803
18018SOL    HW156592   5.731   8.004   3.718  1.3305 -4.1454  1.6103
18018SOL    HW256593   5.644   7.900   3.649 -2.2991  0.6906 -1.4339
18019SOL     OW56594   3.545   1.633   0.797 -0.0110  0.2002 -0.4908
18019SOL    HW156595   3.513   1.624   0.707 -0.5701  0.1381 -0.2851
18019SOL    HW256596   3.639   1.615   0.790  0.1184  1.1329 -1.2166
18020SOL     OW56597   0.480   0.991   3.140  0.1666  0.1451  0.4936
18020SOL    HW156598   0.574   0.982   3.156  0.3338  0.7526 -0.1216
18020SOL    HW256599   0.474   1.038   3.057 -0.6921 -1.5471 -0.4190
18021SOL     OW56600   8.305   4.982   0.253  0.6554  0.1099  0.3874
18021SOL    HW156601   8.259   4.913   0.301  0.8999  0.1893  0.7473
18021SOL    HW256602   8.329   4.943   0.170  1.4551 -0.4899  0.8895
18022SOL     OW56603   5.658   2.598   1.740  0.1236  0.4735 -0.7140
18022SOL    HW156604   5.616   2.665   1.796  1.1219 -0.0471  0.6815
18022SOL    HW256605   5.752   2.612   1.753  0.4105  1.3915 -3.5527
18023SOL     OW56606   2.068   6.972   9.665  0.4447 -0.1806 -0.2133
18023SOL    HW156607   2.025   6.928   9.738  1.3359 -0.9767 -0.1486
18023SOL    HW256608   1.998   7.019   9.620  0.1134  1.4874  1.9891
18024SOL     OW56609   0.698   3.843   0.399  0.2136  0.2261  0.0191
18024SOL    HW156610   0.783   3.859   0.357  0.8294 -1.1253  0.7133
18024SOL    HW256611   0.662   3.768   0.351  0.0532 -0.0966  0.6462
18025SOL     OW56612   3.959   9.174   1.223  0.3188  0.6933 -0.4118
18025SOL    HW156613   3.968   9.146   1.315 -1.2107 -1.3310 -0.8574
18025SOL    HW256614   3.923   9.263   1.229 -1.5951 -0.1296  0.9465
18026SOL     OW56615   2.608   7.759   7.853  0.1584 -0.1963 -0.1978
18026SOL    HW156616   2.530   7.813   7.842  1.0379  0.9021 -1.1673
18026SOL    HW256617   2.594   7.712   7.935 -2.1386 -1.0578 -1.0311
18027SOL     OW56618   1.970  10.011   3.145 -0.2394  0.1469 -0.0113
18027SOL    HW156619   1.885  10.028   3.105 -0.7136 -0.6718  0.6186
18027SOL    HW256620   1.971   9.916   3.159  0.5063  0.2337  0.5852
18028SOL     OW56621   4.460   2.287   1.831 -0.9962 -0.4703  0.0151
18028SOL    HW156622   4.461   2.193   1.850 -2.0363 -0.9911 -2.3395
18028SOL    HW256623   4.507   2.295   1.748 -1.0138  1.0760  0.1395
18029SOL     OW56624   8.980  10.189   5.867  0.4278  0.6540 -0.3359
18029SOL    HW156625   9.045  10.258   5.880 -0.5528  1.8053 -1.4408
18029SOL    HW256626   8.945  10.205   5.779 -0.4952 -0.6789 -0.2280
18030SOL     OW56627   7.436   5.728   0.616 -0.2130 -0.3163  0.2778
18030SOL    HW156628   7.496   5.706   0.688  3.1222  1.3781 -1.8531
18030SOL    HW256629   7.357   5.760   0.659  2.3745  2.3931  3.2433
18031SOL     OW56630   7.389   0.105   5.811 -0.2948 -0.2463  0.0801
18031SOL    HW156631   7.373   0.068   5.898  2.0019 -0.9976  0.2062
18031SOL    HW256632   7.317   0.167   5.798 -1.5562 -1.2838  1.8420
18032SOL     OW56633   0.924   3.450   6.362 -0.0109 -0.1485  0.3495
18032SOL    HW156634   0.836   3.413   6.368 -0.6807  1.3995  0.2234
18032SOL    HW256635   0.952   3.431   6.272 -0.4361 -0.1357  0.2138
18033SOL     OW56636   9.040   2.910   8.384 -0.1914  0.3786  0.7954
18033SOL    HW156637   9.105   2.864   8.436  1.2899  1.7747  0.2263
18033SOL    HW256638   9.079   2.916   8.296 -1.3830  0.6299  0.2656
18034SOL     OW56639   0.391   5.395   7.488  0.5714 -0.3183 -0.4025
18034SOL    HW156640   0.429   5.414   7.403  0.1184 -0.7681 -0.7068
18034SOL    HW256641   0.297   5.397   7.474  0.4950 -1.6988 -0.2105
18035SOL     OW56642   3.846   8.660   0.510  0.5057 -0.3699 -0.2635
18035SOL    HW156643   3.938   8.675   0.486 -0.0231  2.0815 -0.9042
18035SOL    HW256644   3.845   8.664   0.605  0.7943  1.4508 -0.3204
18036SOL     OW56645   5.992   1.620   4.785 -0.9322  0.1132  0.5509
18036SOL    HW156646   6.083   1.648   4.778 -0.3905 -1.6340  0.2229
18036SOL    HW256647   5.951   1.652   4.705 -0.3333 -0.0318  0.1815
18037SOL     OW56648   0.224   6.857   5.634 -0.6732  0.4558  0.3371
18037SOL    HW156649   0.260   6.941   5.605  0.3733  0.2794  1.1299
18037SOL    HW256650   0.286   6.791   5.602 -1.9411 -0.1104 -1.0508
18038SOL     OW56651   1.510   7.391   7.574 -0.1038 -0.0057  0.0786
18038SOL    HW156652   1.592   7.343   7.584 -1.1606 -1.6318  1.0809
18038SOL    HW256653   1.468   7.352   7.497 -0.2897  0.3299  0.0065
18039SOL     OW56654   7.172   0.102   6.175 -0.1274  0.0134 -0.2528
18039SOL    HW156655   7.260   0.070   6.156 -0.0981  0.3996 -0.7745
18039SOL    HW256656   7.118   0.022   6.181  0.4467 -0.2748  1.0676
18040SOL     OW56657   2.412   9.657   5.882 -0.2510  0.5689 -0.3311
18040SOL    HW156658   2.410   9.642   5.788 -0.4985  1.3609 -0.4523
18040SOL    HW256659   2.430   9.750   5.892  1.5311  0.1808  0.4187
18041SOL     OW56660   5.384   7.716   4.025 -0.0034 -0.3344  0.2480
18041SOL    HW156661   5.410   7.712   4.117 -0.7028 -1.0948  0.4177
18041SOL    HW256662   5.457   7.676   3.977  0.4016  0.1445  0.4570
18042SOL     OW56663   4.340   8.568   0.671 -0.4253 -0.1127 -1.0593
18042SOL    HW156664   4.339   8.558   0.767  0.2582 -0.9092 -1.1275
18042SOL    HW256665   4.256   8.607   0.650 -0.1927  0.9908 -0.0254
18043SOL     OW56666   7.183   2.563   0.947 -0.3331  0.1507 -0.4461
18043SOL    HW156667   7.126   2.522   0.882 -1.4827 -0.3227  0.8293
18043SOL    HW256668   7.146   2.651   0.958  0.9203  0.8645 -1.6947
18044SOL     OW56669   2.665   7.709   9.550 -0.3197 -0.1998  0.5140
18044SOL    HW156670   2.639   7.758   9.472  0.3987  2.0071  1.6164
18044SOL    HW256671   2.594   7.646   9.563 -0.8991  0.0316 -1.3806
18045SOL     OW56672   7.936   8.489   8.407 -0.2245  0.7799  0.1115
18045SOL    HW156673   7.956   8.553   8.475 -0.1152 -1.0300  1.8334
18045SOL    HW256674   7.968   8.529   8.326  2.5032  1.6631  1.5627
18046SOL     OW56675   6.074   8.718   6.246 -0.6803  0.0377 -0.0556
18046SOL    HW156676   5.981   8.705   6.261 -0.5343  1.1814  2.1685
18046SOL    HW256677   6.098   8.788   6.307  1.6870 -0.4634 -0.3567
18047SOL     OW56678   9.461   8.229   5.747  0.1801  0.5236  0.8917
18047SOL    HW156679   9.390   8.293   5.748 -0.9304 -0.6036 -1.1989
18047SOL    HW256680   9.530   8.268   5.800 -1.3716  2.3894  1.5766
18048SOL     OW56681   4.531   6.092   4.594 -0.1473  0.6151 -0.1186
18048SOL    HW156682   4.464   6.040   4.548  0.0834  0.0672  0.1524
18048SOL    HW256683   4.491   6.178   4.606 -1.3313 -0.1082  1.2412
18049SOL     OW56684   6.677   2.430   1.443 -0.1833  0.3396  0.0757
18049SOL    HW156685   6.654   2.362   1.380  1.7061  0.4579 -0.7759
18049SOL    HW256686   6.675   2.511   1.391  0.4307  0.5617  0.3991
18050SOL     OW56687   4.490   2.340   9.912 -0.4158 -0.1293 -0.8016
18050SOL    HW156688   4.491   2.315   9.820 -0.9767 -0.0378 -0.8358
18050SOL    HW256689   4.581   2.362   9.932 -0.4364  0.6754 -1.5588
18051SOL     OW56690   8.206   0.442   0.629  0.1279  0.6606 -0.8554
18051SOL    HW156691   8.288   0.483   0.600  1.4910  0.1019  2.0589
18051SOL    HW256692   8.218   0.349   0.613  1.9540  0.0003  3.6302
18052SOL     OW56693   8.230   7.157   4.128 -0.3816  0.0997 -0.1092
18052SOL    HW156694   8.248   7.114   4.044  0.1692  1.0459 -0.4927
18052SOL    HW256695   8.135   7.169   4.129 -0.5994 -1.6455  0.2764
18053SOL     OW56696   7.506   6.085   6.753  0.4041 -0.2266 -0.3476
18053SOL    HW156697   7.552   6.152   6.804  1.4356 -1.9653  1.0746
18053SOL    HW256698   7.414   6.109   6.758  0.4716 -0.4582  2.5141
18054SOL     OW56699   8.875   0.981   7.495  0.5235  0.2709 -0.1716
18054SOL    HW156700   8.876   0.978   7.399 -1.9592 -0.7262 -0.1956
18054SOL    HW256701   8.869   1.075   7.515  1.8088  0.5443 -0.9445
18055SOL     OW56702   7.650   3.102   8.294  0.1464 -0.0065  0.2315
18055SOL    HW156703   7.657   3.007   8.298 -1.3060 -0.1786 -0.8132
18055SOL    HW256704   7.597   3.126   8.371 -0.0587 -0.1069  0.1214
18056SOL     OW56705   0.810   5.576   2.101 -0.5962 -0.3816  0.3097
18056SOL    HW156706   0.842   5.661   2.132  3.0921 -1.2553 -0.7587
18056SOL    HW256707   0.833   5.515   2.171 -1.4826 -0.7917  0.2452
18057SOL     OW56708   5.579   7.030   6.615  0.9024 -0.0388 -0.2956
18057SOL    HW156709   5.582   7.095   6.686  0.0960  0.4934 -0.7470
18057SOL    HW256710   5.492   6.991   6.622  1.5081 -1.3611  0.2107
18058SOL     OW56711   1.591   4.469   3.025  0.2181  0.3460  0.0213
18058SOL    HW156712   1.679   4.477   2.988 -0.1822  0.4829 -0.9019
18058SOL    HW256713   1.604   4.419   3.106  1.4535  2.2338  1.0263
18059SOL     OW56714   4.608   4.881   8.590  0.4747 -0.6610  0.1237
18059SOL    HW156715   4.545   4.828   8.640 -0.5699  0.1312 -0.3304
18059SOL    HW256716   4.569   4.968   8.588  0.1996 -0.8049 -2.5386
18060SOL     OW56717   2.252   4.022   6.566 -0.3416 -0.1328 -0.4306
18060SOL    HW156718   2.213   4.105   6.539 -2.4642 -1.0122 -0.2274
18060SOL    HW256719   2.303   3.994   6.490 -0.2242  0.9962 -0.7750
18061SOL     OW56720   3.317   8.687   1.527  0.2472  0.1684  0.1039
18061SOL    HW156721   3.341   8.693   1.619  0.2633 -0.3359  0.1348
18061SOL    HW256722   3.400   8.676   1.481 -0.0202 -4.2483  0.4367
18062SOL     OW56723   8.530   5.837  10.121  0.0389 -0.0483  0.2324
18062SOL    HW156724   8.621   5.814  10.137  0.1529  0.2448  0.0173
18062SOL    HW256725   8.484   5.807  10.199  0.5206  0.9382  0.9151
18063SOL     OW56726   6.010   2.744   8.831 -0.2941 -0.0556  0.0324
18063SOL    HW156727   6.006   2.652   8.804 -0.0662  0.1422 -0.7065
18063SOL    HW256728   5.967   2.746   8.916 -0.6148 -0.7879 -0.1041
18064SOL     OW56729   3.589   6.010   1.829 -0.0035 -0.1057 -0.5320
18064SOL    HW156730   3.520   6.047   1.774 -0.0951  0.2576 -0.1797
18064SOL    HW256731   3.653   6.081   1.839 -1.3602  0.8377  2.1652
18065SOL     OW56732   8.794   7.537   1.749  0.4854 -0.0623  0.0815
18065SOL    HW156733   8.839   7.486   1.681 -0.2332 -0.5595 -0.0333
18065SOL    HW256734   8.796   7.627   1.717  1.7851 -0.0067  0.2952
18066SOL     OW56735   6.571   1.913   8.158 -0.3194 -0.1467  0.4082
18066SOL    HW156736   6.489   1.912   8.110 -0.4988  2.1783  0.6247
18066SOL    HW256737   6.638   1.891   8.093 -0.7513  1.2140 -0.5034
18067SOL     OW56738   9.079   6.272   8.018  0.2449  0.0267  0.5702
18067SOL    HW156739   9.152   6.285   7.958 -0.8471  0.6987 -0.6354
18067SOL    HW256740   9.071   6.355   8.065 -0.2926  0.2614  0.0729
18068SOL     OW56741   9.553   6.167   6.334 -0.5960  0.5408 -0.3689
18068SOL    HW156742   9.642   6.137   6.314 -1.1012 -0.5799 -0.9622
18068SOL    HW256743   9.563   6.220   6.413  0.3286 -1.0809  0.6239
18069SOL     OW56744   1.060   0.835   9.058  0.1129  0.0153  0.0974
18069SOL    HW156745   0.989   0.898   9.056  0.5223  0.5218  0.9321
18069SOL    HW256746   1.108   0.849   8.977  1.2173  1.9823  1.0556
18070SOL     OW56747   6.613   9.350   2.008  0.5674 -0.0276  0.4395
18070SOL    HW156748   6.527   9.379   1.978  0.6104  1.0285  1.3465
18070SOL    HW256749   6.659   9.326   1.927 -0.1151  0.6523 -0.1589
18071SOL     OW56750   2.695   9.343   5.217  0.4120 -0.1644 -0.4121
18071SOL    HW156751   2.609   9.376   5.191 -0.0610 -0.9542  0.1601
18071SOL    HW256752   2.697   9.353   5.312  0.7013 -0.7657 -0.3575
18072SOL     OW56753   7.619   0.056   9.284  0.3163 -0.5104  0.0414
18072SOL    HW156754   7.598   0.120   9.216  0.4401 -0.1437  0.3463
18072SOL    HW256755   7.560   0.078   9.356  1.0543 -0.1039  0.5276
18073SOL     OW56756   7.089   6.155   2.585 -0.2396  0.3985 -0.3494
18073SOL    HW156757   7.109   6.224   2.648  3.3766 -0.3231 -0.6143
18073SOL    HW256758   7.105   6.073   2.633  2.6606 -0.1547 -2.1713
18074SOL     OW56759   1.148   5.879   9.835  0.7412  0.8629  0.1524
18074SOL    HW156760   1.102   5.961   9.816 -1.0393  0.1576  1.2967
18074SOL    HW256761   1.079   5.812   9.834  2.3526 -0.8361 -1.9654
18075SOL     OW56762   2.916   9.308   1.805  0.4081 -0.2689  0.2975
18075SOL    HW156763   2.978   9.244   1.773  1.5452  0.5904  0.7407
18075SOL    HW256764   2.965   9.360   1.868 -0.0571  1.9248 -1.0649
18076SOL     OW56765   0.018   0.008   4.082  0.2239 -0.2307 -0.1584
18076SOL    HW156766  -0.031   0.053   4.013 -0.0716 -0.9396 -0.4120
18076SOL    HW256767  -0.027   0.032   4.163  1.0941  1.3155 -0.1051
18077SOL     OW56768   7.004   9.281   7.813 -0.1132 -0.4872 -0.2573
18077SOL    HW156769   7.040   9.347   7.755 -0.8278 -0.3537 -0.5514
18077SOL    HW256770   6.986   9.327   7.895  1.9634 -0.9204  0.4790
18078SOL     OW56771   2.918   5.540   2.483  0.2804 -0.7622  0.6346
18078SOL    HW156772   2.866   5.526   2.403 -0.3489  2.1871  0.4864
18078SOL    HW256773   2.904   5.460   2.534 -1.8745 -1.3500 -0.7884
18079SOL     OW56774   8.916   8.134   5.902  0.2631  0.0992 -0.1179
18079SOL    HW156775   8.855   8.092   5.961 -1.2679  0.6547 -1.2745
18079SOL    HW256776   8.863   8.162   5.827  2.0091  0.0846 -1.4166
18080SOL     OW56777   9.959   6.161   4.649  0.1619  0.1473  0.5868
18080SOL    HW156778   9.935   6.156   4.556  1.4745  0.1586  0.2295
18080SOL    HW256779   9.880   6.192   4.693 -1.1942 -2.0691 -0.2077
18081SOL     OW56780   1.483   6.503   8.937 -0.5838 -0.0128  0.1924
18081SOL    HW156781   1.407   6.554   8.963 -0.9562 -0.3735 -0.1992
18081SOL    HW256782   1.532   6.491   9.019 -0.2906  1.2851  0.2318
18082SOL     OW56783   3.928  10.171   7.109 -1.0470 -0.1863 -0.0067
18082SOL    HW156784   3.911  10.092   7.058 -1.9867 -0.2450  0.3816
18082SOL    HW256785   4.023  10.179   7.111 -0.9696 -0.9240 -0.6314
18083SOL     OW56786   5.660   9.503   4.275 -0.4207  0.2792 -0.1196
18083SOL    HW156787   5.668   9.443   4.201  1.4502  0.6683 -0.2692
18083SOL    HW256788   5.593   9.464   4.331  1.0355 -2.2045 -0.0020
18084SOL     OW56789   0.330   3.167   0.904 -0.1222  0.0963  0.0584
18084SOL    HW156790   0.363   3.159   0.814  0.5946  0.0394  0.3236
18084SOL    HW256791   0.241   3.199   0.894 -0.0217  0.1575 -0.6741
18085SOL     OW56792   3.904   6.120   7.047  0.4377  0.1616 -0.9524
18085SOL    HW156793   3.896   6.150   6.956  0.2580 -0.2143 -1.0627
18085SOL    HW256794   3.918   6.025   7.039  0.9259  0.2023 -0.6094
18086SOL     OW56795   7.300   3.451   6.255 -0.2202 -0.0206 -0.0161
18086SOL    HW156796   7.309   3.542   6.286 -0.2853 -0.5447  1.5903
18086SOL    HW256797   7.273   3.402   6.333 -0.2146 -1.4171 -0.8829
18087SOL     OW56798   3.516   4.083   7.063 -0.3768  0.4596  0.6479
18087SOL    HW156799   3.600   4.038   7.053 -1.0642 -0.8151  0.5900
18087SOL    HW256800   3.540   4.173   7.086  0.9860 -0.1340  1.6142
18088SOL     OW56801   3.607   8.286   3.008 -0.5175  0.5889  0.4101
18088SOL    HW156802   3.572   8.369   2.976  0.0726  0.7836  0.2626
18088SOL    HW256803   3.672   8.311   3.073  0.6163  0.2823 -0.5868
18089SOL     OW56804   8.558   6.377   7.091 -0.4800 -0.1367  0.2142
18089SOL    HW156805   8.561   6.370   7.186 -0.2236  1.2399  0.3127
18089SOL    HW256806   8.484   6.435   7.073 -0.8169 -0.7626 -0.4516
18090SOL     OW56807   0.129   3.657   1.127 -0.3046 -0.1437  0.5346
18090SOL    HW156808   0.099   3.723   1.189  1.2451  0.1061  1.0308
18090SOL    HW256809   0.049   3.613   1.098 -1.1780  0.7770  1.5278
18091SOL     OW56810  10.049   2.334   9.134 -0.3987 -0.1005 -0.3300
18091SOL    HW156811  10.023   2.242   9.136  0.2213 -0.2592  1.3948
18091SOL    HW256812  10.108   2.344   9.209 -1.6512  2.0555  0.4144
18092SOL     OW56813   5.376   3.652   4.262 -0.2775  0.1470  0.2816
18092SOL    HW156814   5.423   3.735   4.273 -0.7827  0.3169  1.2722
18092SOL    HW256815   5.340   3.655   4.174 -0.8992  1.2956  0.5714
18093SOL     OW56816   9.155   8.867   6.296  0.0565  0.3816  0.2482
18093SOL    HW156817   9.092   8.862   6.368 -1.1611 -0.4048 -0.8458
18093SOL    HW256818   9.119   8.932   6.236  0.8522  0.7377  0.1495
18094SOL     OW56819   1.679   5.422   2.530  0.2778  0.9642 -0.0616
18094SOL    HW156820   1.598   5.390   2.491  1.6400  0.1402 -2.3705
18094SOL    HW256821   1.714   5.347   2.578  1.7653 -0.0982 -2.6550
18095SOL     OW56822   4.091   6.392   6.955 -0.1697 -0.4787 -0.1170
18095SOL    HW156823   4.163   6.353   7.005 -0.7946 -2.3338 -0.6044
18095SOL    HW256824   4.050   6.455   7.015  1.0168 -0.4028  0.6154
18096SOL     OW56825   4.630   8.710   9.681 -0.0328  0.1733 -0.6041
18096SOL    HW156826   4.723   8.725   9.666 -0.3737  0.9753 -1.9024
18096SOL    HW256827   4.585   8.771   9.623 -1.3806 -0.6483 -0.4494
18097SOL     OW56828   1.806   0.128   1.126 -0.4824  0.6938 -0.0879
18097SOL    HW156829   1.895   0.157   1.149 -0.0490  0.1549 -1.0298
18097SOL    HW256830   1.820   0.047   1.075 -1.3146  2.5473 -3.4001
18098SOL     OW56831   5.903   6.267   0.267 -0.5552  0.7171 -0.3890
18098SOL    HW156832   5.994   6.291   0.286 -0.6486  0.9347 -0.2174
18098SOL    HW256833   5.907   6.225   0.181  0.2950 -2.8792  1.3190
18099SOL     OW56834   7.141   2.955   7.553 -0.4382  0.1385 -0.0497
18099SOL    HW156835   7.199   3.031   7.546  0.4822 -0.6228 -0.6608
18099SOL    HW256836   7.194   2.881   7.525 -1.9666 -0.4360 -1.4623
18100SOL     OW56837   6.747   1.599   6.958 -0.4692 -0.0930  0.3369
18100SOL    HW156838   6.827   1.626   7.003  0.2686  1.0690 -1.5869
18100SOL    HW256839   6.730   1.670   6.896 -1.3342 -1.6888 -1.3113
18101SOL     OW56840   6.184   7.872   2.236  0.0818  0.1250  0.3907
18101SOL    HW156841   6.154   7.795   2.285 -0.5401 -0.0487 -0.2490
18101SOL    HW256842   6.105   7.926   2.228 -0.5083 -1.0881 -2.7299
18102SOL     OW56843   2.820   8.466   0.744  0.1768  0.3031  0.0069
18102SOL    HW156844   2.840   8.404   0.674 -0.6800 -0.9654  0.8858
18102SOL    HW256845   2.899   8.468   0.798  0.3914  0.3887 -0.3017
18103SOL     OW56846   0.480   6.736   4.489  0.0833  0.3816  0.3972
18103SOL    HW156847   0.504   6.739   4.582 -0.4417 -0.3812  0.5659
18103SOL    HW256848   0.534   6.666   4.452  1.6300  1.8987 -0.2882
18104SOL     OW56849   4.865   0.436   5.961 -0.5973  0.1598  0.0870
18104SOL    HW156850   4.773   0.420   5.979 -0.9573 -0.2969 -2.0688
18104SOL    HW256851   4.884   0.382   5.884  1.3580  0.5762  0.2519
18105SOL     OW56852   4.152   2.038   6.824  0.4782 -0.2588  0.5760
18105SOL    HW156853   4.238   1.999   6.817  1.2308  1.2285  1.1755
18105SOL    HW256854   4.144   2.096   6.748 -0.4155 -1.1754 -0.0395
18106SOL     OW56855   0.137   6.968   8.208 -0.0833  0.7679 -0.4592
18106SOL    HW156856   0.079   6.994   8.137 -2.2426 -0.5046  0.7807
18106SOL    HW256857   0.138   6.872   8.203 -0.7986  0.6262  1.5989
18107SOL     OW56858   1.268   0.582   3.118  0.1393 -0.7652 -0.2119
18107SOL    HW156859   1.243   0.578   3.210  2.0032 -1.9094  0.2760
18107SOL    HW256860   1.209   0.521   3.074 -0.6957 -0.2823  0.2270
18108SOL     OW56861   4.648   9.288   7.869  0.2053  0.1316 -0.0389
18108SOL    HW156862   4.614   9.358   7.924 -1.5283 -1.3031  0.7470
18108SOL    HW256863   4.645   9.210   7.924 -0.2913 -1.0746 -1.7323
18109SOL     OW56864   3.492   4.329   6.153 -0.4391 -0.0022  0.4029
18109SOL    HW156865   3.405   4.366   6.169 -0.0346  1.2762 -0.2077
18109SOL    HW256866   3.480   4.235   6.160 -2.3858  0.0006 -2.0821
18110SOL     OW56867   9.624   3.436  10.055  0.2097  0.3203 -0.0858
18110SOL    HW156868   9.582   3.422  10.140  0.9238 -1.4172  0.0099
18110SOL    HW256869   9.587   3.518  10.023 -1.8029 -0.1807  0.8623
18111SOL     OW56870   7.409   1.475   2.477  0.4373 -0.1017  0.1092
18111SOL    HW156871   7.438   1.391   2.512  1.0848  0.8378  1.8785
18111SOL    HW256872   7.483   1.507   2.425  0.4459 -0.2855  0.0072
18112SOL     OW56873   0.815   9.915   2.763  0.6771  0.5827 -0.0886
18112SOL    HW156874   0.877   9.848   2.733  0.6437  0.2964  0.4780
18112SOL    HW256875   0.815   9.981   2.693  0.3329 -0.2517 -0.8749
18113SOL     OW56876   5.564   3.152   2.919  0.4054  0.9284  0.4075
18113SOL    HW156877   5.658   3.136   2.921  0.1546 -0.4601  1.9280
18113SOL    HW256878   5.549   3.201   2.838  2.1224 -0.8242 -0.9979
18114SOL     OW56879   2.002   8.226   6.456  0.4470  0.0299  0.1236
18114SOL    HW156880   2.059   8.256   6.385  0.0410 -1.1559 -0.7223
18114SOL    HW256881   1.976   8.306   6.501 -1.4252  1.0886 -2.6868
18115SOL     OW56882   5.264   1.868   2.258 -0.1533  0.3977 -0.0504
18115SOL    HW156883   5.259   1.935   2.326  2.2899  1.0133 -0.4179
18115SOL    HW256884   5.253   1.917   2.176  1.4480  0.3484 -0.3096
18116SOL     OW56885   2.784   5.485   2.255  0.1162 -0.2796 -0.4677
18116SOL    HW156886   2.760   5.565   2.209  1.5328  0.1416 -0.4839
18116SOL    HW256887   2.702   5.435   2.260 -0.3692  0.3108 -2.1520
18117SOL     OW56888   9.480   3.757   0.330 -0.8289  0.2147  0.0508
18117SOL    HW156889   9.414   3.688   0.333 -1.6726  1.0134 -0.0448
18117SOL    HW256890   9.458   3.809   0.253 -0.2875  0.6790  0.2019
18118SOL     OW56891   7.960   5.529   9.797 -0.0487  0.3750  0.0835
18118SOL    HW156892   7.922   5.546   9.710 -0.3004 -1.2592 -0.1339
18118SOL    HW256893   7.971   5.434   9.800  0.5997  0.4938  1.5850
18119SOL     OW56894   1.072   1.005   6.818  0.1277  0.3507  0.0798
18119SOL    HW156895   1.147   0.979   6.765 -0.1184  1.0958 -0.6450
18119SOL    HW256896   0.995   0.987   6.763 -0.4828 -3.3534  1.9786
18120SOL     OW56897   4.419   1.165   2.692  0.1526  0.1975 -0.0797
18120SOL    HW156898   4.430   1.093   2.754 -1.2395 -1.4280 -1.6707
18120SOL    HW256899   4.418   1.244   2.747  1.8596 -0.9602  1.6737
18121SOL     OW56900   4.093   6.708   8.613 -0.2655 -0.2904  0.2059
18121SOL    HW156901   4.027   6.756   8.663 -1.1734 -1.7793  0.4586
18121SOL    HW256902   4.051   6.687   8.530  0.2675 -0.3098 -0.0660
18122SOL     OW56903   2.241   2.599   9.689  0.7223 -0.0212 -0.2124
18122SOL    HW156904   2.176   2.668   9.670 -1.5341 -1.5844  1.6636
18122SOL    HW256905   2.324   2.646   9.695 -0.6005  2.3943 -0.1307
18123SOL     OW56906   3.559   4.547   0.803 -0.0123  0.1543  0.0801
18123SOL    HW156907   3.628   4.544   0.870 -0.4638 -1.4951  0.4787
18123SOL    HW256908   3.480   4.520   0.850 -0.6650  0.6742 -0.7212
18124SOL     OW56909   4.480   9.751   4.355  0.6821 -0.4699 -0.5066
18124SOL    HW156910   4.570   9.736   4.382  0.9359  1.3842 -0.2722
18124SOL    HW256911   4.482   9.835   4.309 -0.9979 -0.1729 -0.0793
18125SOL     OW56912   4.902   6.437   8.168 -0.1916 -0.5930  0.0197
18125SOL    HW156913   4.935   6.400   8.250 -1.3565 -1.5834  0.0663
18125SOL    HW256914   4.977   6.482   8.129  0.1534  0.5873  2.0198
18126SOL     OW56915   6.196   4.313   9.742  0.4196 -0.2746 -0.2241
18126SOL    HW156916   6.207   4.405   9.719 -1.0093 -0.5703 -2.1970
18126SOL    HW256917   6.258   4.267   9.684  2.7717 -0.4264  2.3063
18127SOL     OW56918   9.871   7.931   1.429  0.3355  0.0939 -0.7322
18127SOL    HW156919   9.908   7.864   1.486  0.2418 -0.6297 -1.5182
18127SOL    HW256920   9.912   7.917   1.344 -0.6736  0.1784 -1.2477
18128SOL     OW56921  10.050   1.568   8.481 -0.2333 -0.0666  0.8778
18128SOL    HW156922  10.143   1.586   8.467 -0.4887  1.0037  0.5106
18128SOL    HW256923  10.022   1.636   8.542 -0.9187 -0.0194  0.5049
18129SOL     OW56924   1.527   0.300   0.659 -0.1677 -0.0356 -0.0819
18129SOL    HW156925   1.509   0.310   0.566  3.0700  0.6751 -0.6772
18129SOL    HW256926   1.598   0.236   0.664  0.6464  0.9518  1.7630
18130SOL     OW56927   3.899   1.243   3.701 -0.2482 -0.1255 -0.4299
18130SOL    HW156928   3.960   1.228   3.774  1.4977 -0.5685 -1.9292
18130SOL    HW256929   3.919   1.333   3.673 -0.6510 -0.0891 -0.5931
18131SOL     OW56930   9.528   5.106   9.195 -0.6687  0.2346 -0.2607
18131SOL    HW156931   9.443   5.094   9.153 -1.4002 -0.8133  1.4660
18131SOL    HW256932   9.545   5.024   9.240  1.7990  0.0315 -1.4572
18132SOL     OW56933   6.908   7.311   1.480 -0.0958  0.0061  0.4528
18132SOL    HW156934   6.837   7.253   1.509 -0.5490  0.4875  0.3221
18132SOL    HW256935   6.988   7.261   1.497 -0.6197 -3.0101 -4.8665
18133SOL     OW56936   0.403   3.554   1.060  0.0866 -0.3686 -0.3009
18133SOL    HW156937   0.453   3.582   1.136 -1.5359 -0.8026  0.9447
18133SOL    HW256938   0.318   3.596   1.070 -0.7743 -1.9295 -0.8660
18134SOL     OW56939   0.601   7.850   3.717  0.4894 -0.4902 -0.0900
18134SOL    HW156940   0.593   7.775   3.657  1.1524  0.7446 -1.7910
18134SOL    HW256941   0.692   7.846   3.747  0.8610  0.2361 -1.0640
18135SOL     OW56942   5.825   6.723   4.917 -0.4628 -0.4975 -0.4202
18135SOL    HW156943   5.775   6.642   4.913 -0.9094 -0.3619  1.7851
18135SOL    HW256944   5.785   6.779   4.850 -0.8676 -1.6737 -1.1838
18136SOL     OW56945   2.543   3.385   7.610 -0.1533 -0.5220  0.1727
18136SOL    HW156946   2.472   3.324   7.630 -1.0955  0.3184 -0.5709
18136SOL    HW256947   2.511   3.470   7.642  0.2161 -0.0137 -0.7736
18137SOL     OW56948   3.337   0.016   4.889  0.3288  0.0446 -0.5890
18137SOL    HW156949   3.290  -0.011   4.968  0.4246  0.5708 -0.3465
18137SOL    HW256950   3.275   0.004   4.818  0.3215 -0.6695 -0.4703
18138SOL     OW56951   9.714   8.911   8.628  0.3560 -0.4609 -0.2127
18138SOL    HW156952   9.629   8.873   8.609  0.1330  0.6047 -1.4399
18138SOL    HW256953   9.724   8.903   8.723 -1.3476 -0.1132  0.0087
18139SOL     OW56954   5.198   0.801   2.295  0.2326 -0.3499 -0.3318
18139SOL    HW156955   5.272   0.847   2.255 -1.0562  2.0439 -0.0308
18139SOL    HW256956   5.195   0.834   2.385 -2.0410  0.6172 -0.7435
18140SOL     OW56957   6.344   7.265   0.209 -0.0919 -0.1910  0.1209
18140SOL    HW156958   6.263   7.242   0.256 -0.9026  2.3546  0.0631
18140SOL    HW256959   6.326   7.244   0.118 -0.6002  0.1467  0.1437
18141SOL     OW56960   8.608   2.737   2.391  0.2692 -0.2348 -0.1763
18141SOL    HW156961   8.634   2.808   2.332 -0.4122 -0.1351 -0.3580
18141SOL    HW256962   8.524   2.707   2.356  0.0200 -0.3893  0.5600
18142SOL     OW56963   8.209   5.940   8.075  0.1486  0.1960  0.5988
18142SOL    HW156964   8.132   5.885   8.087 -1.0022  1.7678  0.6381
18142SOL    HW256965   8.281   5.878   8.061 -1.3447 -1.2887 -0.8052
18143SOL     OW56966   5.895   2.432   9.688  0.9510  0.4181 -0.2135
18143SOL    HW156967   5.945   2.496   9.738  0.6088  0.5170  0.0003
18143SOL    HW256968   5.948   2.417   9.609  2.2902 -0.9286  0.9016
18144SOL     OW56969   9.173   4.687   1.397 -0.1598  0.3004 -0.1177
18144SOL    HW156970   9.106   4.649   1.341 -0.9501  1.9699 -0.3273
18144SOL    HW256971   9.126   4.752   1.450  0.8887 -0.0627  1.2806
18145SOL     OW56972   1.441   3.695   4.799 -0.4250 -0.6080 -0.5951
18145SOL    HW156973   1.472   3.623   4.744 -1.9511  1.4381 -4.2902
18145SOL    HW256974   1.345   3.686   4.798 -0.6133  1.2231 -0.8195
18146SOL     OW56975   0.867   5.789   0.318  0.5062  0.0929  0.5263
18146SOL    HW156976   0.902   5.812   0.404 -2.4928  1.4879  1.4159
18146SOL    HW256977   0.839   5.872   0.280 -3.6441 -1.1176  0.7037
18147SOL     OW56978   4.466   6.212   8.117 -0.6131  0.2517  0.3598
18147SOL    HW156979   4.383   6.198   8.070  0.9249 -0.4873 -2.2385
18147SOL    HW256980   4.477   6.307   8.118 -1.7135  0.3797  1.1412
18148SOL     OW56981   9.605   1.722   4.478  0.2653 -0.2194  0.4194
18148SOL    HW156982   9.536   1.770   4.431 -1.0086 -1.7879  0.6735
18148SOL    HW256983   9.686   1.752   4.437 -0.6030  1.1398 -0.3444
18149SOL     OW56984   9.954   7.995  10.167  0.4157 -0.6315  0.1233
18149SOL    HW156985   9.943   8.058  10.096  0.8284 -1.7152 -0.9163
18149SOL    HW256986  10.047   8.001  10.190  1.1044 -2.8688 -1.9126
18150SOL     OW56987   5.204   4.940   6.870  0.4952  0.1335  0.2226
18150SOL    HW156988   5.172   4.876   6.807  0.8520  0.2722 -0.1060
18150SOL    HW256989   5.288   4.969   6.833  0.7992  0.0685  0.8663
18151SOL     OW56990   7.324   7.618   6.248 -0.2701 -0.6120 -0.0284
18151SOL    HW156991   7.405   7.655   6.285 -0.1896 -0.3152 -0.5023
18151SOL    HW256992   7.305   7.673   6.172 -1.4399 -0.0876  0.6268
18152SOL     OW56993   5.257   1.288   5.345 -0.8440  0.1427  0.2387
18152SOL    HW156994   5.168   1.266   5.372 -0.3846 -2.2930 -0.1162
18152SOL    HW256995   5.290   1.209   5.302  0.9686  1.5171 -0.9933
18153SOL     OW56996   4.502   3.275   4.349 -0.1415 -0.0399 -0.2349
18153SOL    HW156997   4.483   3.256   4.257  0.5731 -0.2916 -0.3325
18153SOL    HW256998   4.459   3.206   4.398  0.1770 -0.3768 -0.4311
18154SOL     OW56999   5.854   0.445   6.418 -0.4901 -0.5176 -0.4224
18154SOL    HW157000   5.840   0.476   6.507 -1.5908 -0.1090 -0.7256
18154SOL    HW257001   5.827   0.519   6.362 -1.1267 -1.2504 -1.1068
18155SOL     OW57002   2.974   0.970   8.117  0.1993  0.1730 -0.1901
18155SOL    HW157003   3.031   0.924   8.056  0.7213 -1.7540  1.7051
18155SOL    HW257004   3.032   1.028   8.165  0.1749 -0.0156  0.0684
18156SOL     OW57005   3.758   0.746   5.328  0.2575  0.2811  0.8179
18156SOL    HW157006   3.838   0.757   5.276  0.4719  1.7234  1.4151
18156SOL    HW257007   3.746   0.652   5.334  0.7061  0.0747 -1.1290
18157SOL     OW57008   0.105   1.578   1.545 -0.1419 -0.5441  0.3286
18157SOL    HW157009   0.129   1.629   1.622  0.6863 -1.2915  0.5705
18157SOL    HW257010   0.089   1.643   1.477  0.5337  0.0571  0.7427
18158SOL     OW57011   5.353   2.763   9.525 -0.0757  0.2971  0.4496
18158SOL    HW157012   5.364   2.759   9.430  0.1458  0.6762  0.4542
18158SOL    HW257013   5.262   2.789   9.537  0.4047  2.1978  0.2855
18159SOL     OW57014   7.304   9.071   7.969 -0.8372  0.2262 -0.1387
18159SOL    HW157015   7.220   9.080   8.014 -1.1963 -0.1422 -0.7320
18159SOL    HW257016   7.339   9.161   7.967  0.1511 -0.0350  2.6821
18160SOL     OW57017   8.876   9.923   9.375  0.2322 -0.7762  0.1705
18160SOL    HW157018   8.843   9.904   9.463  0.3012  1.3997  0.6916
18160SOL    HW257019   8.951   9.980   9.389 -1.5229  2.0103 -1.3744
18161SOL     OW57020  10.156   1.799   0.956  0.4067 -0.2606 -0.4442
18161SOL    HW157021  10.062   1.807   0.943  0.6736 -0.5847 -2.6154
18161SOL    HW257022  10.188   1.755   0.878  2.4937  0.6169 -0.1156
18162SOL     OW57023   0.969   0.765   0.523 -0.4546 -0.5062 -0.4010
18162SOL    HW157024   1.010   0.815   0.593 -1.3137 -0.7391  0.2729
18162SOL    HW257025   0.940   0.831   0.460  3.1785 -0.4414 -2.1625
18163SOL     OW57026   1.460   1.600   8.894  0.2875  0.4737 -0.5937
18163SOL    HW157027   1.498   1.556   8.818  2.5542 -0.1356  0.8361
18163SOL    HW257028   1.423   1.529   8.947  1.3206  0.5594  0.2703
18164SOL     OW57029   1.655  10.184   8.033 -0.4873 -0.5400  0.2636
18164SOL    HW157030   1.611  10.189   7.949 -1.7526 -0.3630  0.9252
18164SOL    HW257031   1.733  10.238   8.023 -2.1707  1.9182  0.1290
18165SOL     OW57032   3.206   7.969   1.592  0.2314  0.5476 -0.0413
18165SOL    HW157033   3.232   8.056   1.623 -1.4947  1.0047  0.1698
18165SOL    HW257034   3.110   7.973   1.587  0.2151 -0.9391 -1.2367
18166SOL     OW57035   7.637   9.447   3.852  0.3302  0.3250  0.7646
18166SOL    HW157036   7.559   9.460   3.798  0.1126  1.0744  1.2466
18166SOL    HW257037   7.702   9.506   3.816  1.1374 -1.3184 -0.5118
18167SOL     OW57038   0.613   9.359   2.260 -0.4591  0.4217  0.4192
18167SOL    HW157039   0.687   9.316   2.218  0.5734  0.3953  2.2159
18167SOL    HW257040   0.562   9.288   2.299 -0.7801  0.5310  0.2016
18168SOL     OW57041   7.562   1.432   1.418 -0.4253 -0.8145 -0.0563
18168SOL    HW157042   7.481   1.429   1.469 -0.0525  0.5835  0.6374
18168SOL    HW257043   7.568   1.345   1.378 -1.3538 -1.5268  1.2999
18169SOL     OW57044   5.972   8.182   2.683  0.3928 -0.0118 -0.0060
18169SOL    HW157045   5.962   8.266   2.728  0.4444  0.2024 -0.3931
18169SOL    HW257046   5.916   8.189   2.606 -0.3303 -0.6946  0.4613
18170SOL     OW57047   4.183   7.130   5.520  0.3723 -0.0272 -0.7448
18170SOL    HW157048   4.220   7.125   5.609  1.0838  0.0944 -1.0272
18170SOL    HW257049   4.095   7.094   5.529  1.0266 -1.5749 -0.3104
18171SOL     OW57050   0.759   5.679   5.673 -0.2660  0.5423 -0.7018
18171SOL    HW157051   0.718   5.654   5.756  1.6919  0.1016  0.1397
18171SOL    HW257052   0.787   5.596   5.635  0.9484  0.9393 -0.6865
18172SOL     OW57053   7.608   4.157   9.416  0.0228 -0.2972  0.1826
18172SOL    HW157054   7.524   4.185   9.379  0.2137  1.4434  0.9869
18172SOL    HW257055   7.601   4.180   9.509  1.2476 -0.4946  0.3273
18173SOL     OW57056   9.614   8.029   4.382  0.0845 -0.5746 -0.1589
18173SOL    HW157057   9.525   8.010   4.351 -1.3631  1.6217  2.4068
18173SOL    HW257058   9.603   8.103   4.441  3.6590 -0.3152  0.2838
18174SOL     OW57059   9.773   7.673   5.012 -0.3782  0.9504 -0.4474
18174SOL    HW157060   9.751   7.712   5.097 -2.9468 -3.6354  1.1813
18174SOL    HW257061   9.866   7.650   5.020 -0.5147  0.8351  1.0413
18175SOL     OW57062   3.078   6.283   1.187 -0.2579  0.1606  0.1307
18175SOL    HW157063   3.097   6.372   1.218 -1.5641 -0.0134  1.5020
18175SOL    HW257064   3.164   6.243   1.177  0.2988  1.0863  1.0054
18176SOL     OW57065   5.312   6.426   1.864 -0.0213  0.0489  0.7975
18176SOL    HW157066   5.337   6.471   1.784 -5.0319 -0.2025 -1.0496
18176SOL    HW257067   5.269   6.493   1.917 -1.9864 -1.0801  0.6822
18177SOL     OW57068   9.931   2.247   5.601  0.4009  0.4161 -0.8001
18177SOL    HW157069  10.004   2.221   5.545  0.9612 -0.4430  0.3000
18177SOL    HW257070   9.865   2.281   5.541  2.1585  2.2837 -1.7307
18178SOL     OW57071   8.890   9.201   7.344 -0.1435  0.1511 -0.0217
18178SOL    HW157072   8.845   9.119   7.325 -0.8740  0.2737  1.1330
18178SOL    HW257073   8.860   9.262   7.276  1.5008 -0.9192 -1.7390
18179SOL     OW57074   7.691   4.016   8.511 -0.8436  0.4360 -0.5338
18179SOL    HW157075   7.694   4.097   8.562 -2.2708  0.8422 -1.0661
18179SOL    HW257076   7.754   4.029   8.441  0.6082  0.1628  0.6968
18180SOL     OW57077   3.126   6.958   1.408 -0.1556 -0.3289 -0.0594
18180SOL    HW157078   3.196   6.976   1.470 -1.4206 -1.2039  1.6622
18180SOL    HW257079   3.052   7.009   1.440 -0.5564 -0.0611 -1.3810
18181SOL     OW57080   1.613   9.560   7.659  0.7526  0.1483  0.5695
18181SOL    HW157081   1.640   9.470   7.643  2.1180  0.8470 -1.3394
18181SOL    HW257082   1.676   9.613   7.609  0.1602  2.1652  1.8793
18182SOL     OW57083   6.604   4.755   9.221 -0.2405 -0.2150  0.2384
18182SOL    HW157084   6.653   4.753   9.303  0.3565  3.1237  0.0286
18182SOL    HW257085   6.517   4.786   9.247 -0.1360  0.5642 -0.3419
18183SOL     OW57086   9.833   1.277   5.507 -0.7247  0.2390  0.1338
18183SOL    HW157087   9.873   1.363   5.501 -1.1691  0.4683  0.4159
18183SOL    HW257088   9.861   1.231   5.428  0.3454  0.2893  0.4829
18184SOL     OW57089   3.880   5.875   2.546  0.1162 -0.4243  0.4042
18184SOL    HW157090   3.925   5.808   2.495  1.9916  1.6957 -0.8049
18184SOL    HW257091   3.829   5.924   2.481  0.0590  0.3419  1.0144
18185SOL     OW57092   3.594   1.747   5.894 -0.3329  0.5677 -0.6230
18185SOL    HW157093   3.593   1.654   5.917 -1.4954  0.3565 -1.4982
18185SOL    HW257094   3.681   1.761   5.855  0.1114  0.0230  0.1391
18186SOL     OW57095   2.507   3.622   8.859 -0.1133  0.4302 -0.2306
18186SOL    HW157096   2.513   3.714   8.833  0.0914  0.7899  1.0642
18186SOL    HW257097   2.586   3.606   8.910 -1.1716  0.1251  1.3343
18187SOL     OW57098   1.118   0.889   7.062 -0.3540  0.3613 -0.0118
18187SOL    HW157099   1.059   0.921   7.130 -1.3583 -0.9031 -0.2602
18187SOL    HW257100   1.097   0.942   6.985 -1.2845 -0.1519 -0.1305
18188SOL     OW57101   0.068   1.064   2.306  0.9046 -0.3333  0.2424
18188SOL    HW157102   0.023   1.148   2.306 -0.5024 -1.0552  1.9411
18188SOL    HW257103   0.040   1.022   2.224 -1.5485 -0.7583  1.2614
18189SOL     OW57104   2.046   4.165   5.265 -0.5637  0.0814 -0.0492
18189SOL    HW157105   1.991   4.092   5.293 -1.4154  0.3883 -0.8770
18189SOL    HW257106   2.097   4.129   5.192 -0.6471  0.1774 -0.1553
18190SOL     OW57107   6.878   1.474   8.568 -0.0683 -0.1977 -0.2443
18190SOL    HW157108   6.968   1.489   8.596  0.0985  1.1478 -1.4659
18190SOL    HW257109   6.886   1.416   8.492 -0.3913 -1.9631  1.0270
18191SOL     OW57110   9.176   1.207   9.729  0.1008 -0.1819  0.6035
18191SOL    HW157111   9.198   1.285   9.779  2.1848 -0.5787  0.3486
18191SOL    HW257112   9.181   1.135   9.792  1.9033 -0.5740  0.0360
18192SOL     OW57113   4.424   1.619   5.923  0.0274 -0.1385 -0.7211
18192SOL    HW157114   4.388   1.550   5.979 -1.1739  0.3105 -0.9357
18192SOL    HW257115   4.355   1.638   5.860  1.5511 -1.0065 -2.7119
18193SOL     OW57116   4.285   9.614   3.164 -0.5359 -0.1543 -0.3337
18193SOL    HW157117   4.211   9.554   3.160  0.7358 -1.7451 -0.8372
18193SOL    HW257118   4.327   9.596   3.248 -0.0914 -0.0458 -0.5265
18194SOL     OW57119   6.911   0.652   3.525 -0.2300 -0.0869  0.2344
18194SOL    HW157120   7.004   0.644   3.504 -0.3256 -0.6844  0.0134
18194SOL    HW257121   6.896   0.588   3.594 -0.3780  0.3391  0.5936
18195SOL     OW57122   8.037   9.166   6.246 -0.7942 -0.4963 -0.5394
18195SOL    HW157123   8.029   9.195   6.155  0.5014 -2.3874 -1.2909
18195SOL    HW257124   8.083   9.082   6.241  1.6431  0.5900  2.0729
18196SOL     OW57125   6.746   2.183   8.743 -0.2045  0.0905 -0.0743
18196SOL    HW157126   6.705   2.115   8.690 -1.7501  1.1642 -0.3190
18196SOL    HW257127   6.753   2.145   8.830  0.4282 -0.9450 -0.5720
18197SOL     OW57128   2.141   7.448   5.052 -0.6802  0.1266  0.0335
18197SOL    HW157129   2.198   7.521   5.074  1.8887 -2.1777  1.2212
18197SOL    HW257130   2.055   7.474   5.085  0.4125  2.1544  1.3416
18198SOL     OW57131   9.361   7.317   4.892  0.2589 -0.4360 -0.3549
18198SOL    HW157132   9.450   7.316   4.927 -0.1126 -2.2816  0.6093
18198SOL    HW257133   9.308   7.277   4.961 -1.1379 -0.3349 -1.3592
18199SOL     OW57134   7.628   5.386   4.580  0.4945  0.1994 -0.3760
18199SOL    HW157135   7.552   5.411   4.633 -0.4696 -1.1139 -1.1278
18199SOL    HW257136   7.604   5.409   4.490  2.0283  2.1933 -0.3077
18200SOL     OW57137   0.730   2.279   1.665  0.4075 -0.4589 -0.6069
18200SOL    HW157138   0.708   2.372   1.658 -1.9377 -0.9212  0.1772
18200SOL    HW257139   0.801   2.276   1.729 -0.0245  0.7408 -0.0625
18201SOL     OW57140   6.015   9.080   7.885 -0.1031  0.0542 -0.3312
18201SOL    HW157141   6.110   9.083   7.869 -0.1954  0.8312 -0.7355
18201SOL    HW257142   6.000   9.146   7.953  0.0667 -2.1592  1.9385
18202SOL     OW57143   7.472   2.016   0.176 -0.5911  0.2040 -0.1407
18202SOL    HW157144   7.431   2.053   0.254 -1.7143 -0.9176 -0.1939
18202SOL    HW257145   7.420   2.050   0.103 -0.7958 -0.3981 -0.2745
18203SOL     OW57146   8.626   3.474   5.934 -0.1498 -0.3770  0.0506
18203SOL    HW157147   8.577   3.552   5.960 -0.9423 -0.9751  0.3999
18203SOL    HW257148   8.646   3.430   6.017  3.2018  1.1260  0.1161
18204SOL     OW57149   3.636   2.103   2.758  0.7449 -0.5538  0.1222
18204SOL    HW157150   3.564   2.165   2.772  0.2323 -1.0657 -0.2730
18204SOL    HW257151   3.711   2.159   2.736  0.0896 -0.1185 -1.0275
18205SOL     OW57152   8.276  10.041   4.916 -0.8873 -0.7751 -0.7768
18205SOL    HW157153   8.191  10.003   4.939 -1.5619 -0.9581 -3.4356
18205SOL    HW257154   8.295  10.006   4.829  1.1752  0.5058 -0.8591
18206SOL     OW57155   8.902   3.440   6.750  0.0205  0.1747 -0.4716
18206SOL    HW157156   8.840   3.509   6.724  1.1708  1.2545 -0.4401
18206SOL    HW257157   8.865   3.402   6.829 -0.4080  1.0863 -0.2258
18207SOL     OW57158   6.846   1.939   2.687 -0.0970 -0.0782 -0.2050
18207SOL    HW157159   6.910   1.949   2.617 -0.1785  0.9277 -0.1451
18207SOL    HW257160   6.787   2.014   2.676 -1.4097 -1.1291 -0.4104
18208SOL     OW57161   5.067   2.510   3.822 -0.3977 -0.2109  0.0233
18208SOL    HW157162   5.130   2.520   3.750 -1.3905  1.5640 -0.6381
18208SOL    HW257163   5.072   2.593   3.870 -0.5712 -0.9517  1.3238
18209SOL     OW57164   6.961   2.636   7.654  0.3390  0.0299  0.4610
18209SOL    HW157165   6.962   2.558   7.710  1.0573 -1.8388 -2.0680
18209SOL    HW257166   6.894   2.617   7.588  1.0075  1.2665 -0.5775
18210SOL     OW57167   4.786   7.495   4.640  0.5363 -0.2001 -0.1471
18210SOL    HW157168   4.788   7.561   4.570 -1.4406  0.0472 -0.0004
18210SOL    HW257169   4.736   7.422   4.603 -2.5397  0.8536  1.7296
18211SOL     OW57170   7.637   8.453   7.835  0.4724 -0.5654 -0.1821
18211SOL    HW157171   7.608   8.479   7.747  3.1112  0.3552 -0.8189
18211SOL    HW257172   7.622   8.531   7.889  0.9664 -0.3559 -0.3390
18212SOL     OW57173   0.482   3.491   9.550  0.2670 -0.2494 -0.4151
18212SOL    HW157174   0.390   3.465   9.556  0.1728  0.4030  1.3307
18212SOL    HW257175   0.528   3.413   9.519 -0.5728 -1.2248  0.7951
18213SOL     OW57176   5.858   8.473   0.166  0.7174  0.8806 -0.4740
18213SOL    HW157177   5.835   8.473   0.259 -0.5830 -1.4190 -0.7655
18213SOL    HW257178   5.901   8.557   0.153 -1.2803  2.3270  1.6682
18214SOL     OW57179   0.901   7.138   0.732 -0.7387 -0.2563  0.0269
18214SOL    HW157180   0.892   7.074   0.802 -1.0216  1.4559  1.5762
18214SOL    HW257181   0.812   7.151   0.699 -0.7414 -0.3291  0.0055
18215SOL     OW57182   2.521   9.295   3.206 -0.2711 -0.3015  0.0762
18215SOL    HW157183   2.442   9.313   3.257  0.0154  2.2040 -0.2824
18215SOL    HW257184   2.503   9.331   3.119  1.5415  1.0564  0.2219
18216SOL     OW57185   1.280   3.185   6.315 -0.1204  0.0201 -0.1294
18216SOL    HW157186   1.262   3.188   6.221 -2.6290 -0.9391  0.3038
18216SOL    HW257187   1.345   3.115   6.324  1.1336  0.9949 -1.2671
18217SOL     OW57188   9.285   6.268   2.054 -0.0552  0.3854  0.3417
18217SOL    HW157189   9.279   6.286   2.148  0.4453 -1.9739  0.8611
18217SOL    HW257190   9.353   6.327   2.023  0.1160  0.8489  1.5719
18218SOL     OW57191   8.061   5.193   1.458 -0.2041 -0.5225  0.3301
18218SOL    HW157192   8.057   5.276   1.506 -1.2157 -0.9410  0.9799
18218SOL    HW257193   8.071   5.127   1.526  0.6136 -0.9399 -0.1898
18219SOL     OW57194   7.819   4.976   9.472 -0.3141 -0.5207 -0.6323
18219SOL    HW157195   7.880   5.003   9.540 -0.7236  1.9179 -1.1861
18219SOL    HW257196   7.838   4.883   9.457  1.3901 -0.4670  1.1007
18220SOL     OW57197   8.863   2.668   5.405 -0.3612  0.3945 -0.5574
18220SOL    HW157198   8.848   2.641   5.314 -0.2746 -2.3755  0.2040
18220SOL    HW257199   8.799   2.738   5.420 -1.5966 -0.3414 -2.2040
18221SOL     OW57200   1.791   9.969   6.259 -0.4044 -1.0667  0.0792
18221SOL    HW157201   1.782   9.881   6.224 -0.8499 -1.4674  1.1955
18221SOL    HW257202   1.702  10.001   6.269 -0.2390 -0.0267 -1.4264
18222SOL     OW57203   0.026   4.394   6.051 -0.4490 -0.1669 -0.2124
18222SOL    HW157204   0.038   4.469   6.109  2.0595 -0.3768 -0.3727
18222SOL    HW257205  -0.028   4.333   6.101  1.2750 -0.1429  1.7765
18223SOL     OW57206   3.224   2.122   3.431 -0.2426  0.0381 -0.0880
18223SOL    HW157207   3.176   2.081   3.503  0.9119 -0.9319  0.1378
18223SOL    HW257208   3.173   2.200   3.410 -1.4316 -0.4969  0.7452
18224SOL     OW57209   3.816   9.972   4.496  0.4350 -0.1682  0.6311
18224SOL    HW157210   3.821  10.045   4.557  1.2098  2.9097 -2.9663
18224SOL    HW257211   3.906   9.941   4.489  0.5748  0.4120 -0.0737
18225SOL     OW57212   5.983   0.926  10.115  0.4375 -0.2789 -0.5997
18225SOL    HW157213   5.901   0.961  10.081  0.3050 -1.0991 -1.1248
18225SOL    HW257214   6.034   1.004  10.140  0.2305  0.2938 -1.9576
18226SOL     OW57215   8.390   6.581   6.785 -0.0938 -1.0259 -0.1699
18226SOL    HW157216   8.353   6.554   6.869  1.4925 -0.4981  0.7175
18226SOL    HW257217   8.456   6.515   6.766  0.9485 -0.0483 -0.0046
18227SOL     OW57218   2.100   8.025   1.033 -0.7908  0.0138  0.1011
18227SOL    HW157219   2.134   8.098   0.980 -0.8819 -0.0309 -0.0213
18227SOL    HW257220   2.178   7.977   1.061 -0.7472 -0.0311 -0.0946
18228SOL     OW57221   8.876   1.814   6.967  0.2691  0.3230  0.4910
18228SOL    HW157222   8.893   1.737   7.021  1.1985  0.8807  1.0032
18228SOL    HW257223   8.947   1.875   6.989 -0.1999  1.1424 -0.2446
18229SOL     OW57224   7.898   4.729   9.389  0.1439  0.1047  0.9035
18229SOL    HW157225   7.972   4.718   9.448  0.1087 -1.5773  0.6603
18229SOL    HW257226   7.929   4.695   9.305 -0.8629 -0.4905  0.7661
18230SOL     OW57227   0.165   1.187   6.121 -0.2438  0.5935 -0.0241
18230SOL    HW157228   0.153   1.253   6.189  0.5173  1.5571 -0.8205
18230SOL    HW257229   0.260   1.185   6.106 -0.4200  0.4737 -1.1499
18231SOL     OW57230   6.207   4.110   5.509  0.7471  0.2315  0.4836
18231SOL    HW157231   6.291   4.155   5.505  0.8246  0.1533  1.2268
18231SOL    HW257232   6.143   4.179   5.528  0.5587  0.3894 -0.7056
18232SOL     OW57233  10.068   1.878   9.424 -0.0942 -0.3897 -0.2421
18232SOL    HW157234  10.060   1.806   9.362 -1.0464 -0.8193  0.3611
18232SOL    HW257235  10.081   1.836   9.509 -2.1317  0.0960  0.3339
18233SOL     OW57236   8.416   0.005   0.874  0.2484  0.4164  0.0969
18233SOL    HW157237   8.455   0.085   0.910 -1.0930  0.9133  0.4564
18233SOL    HW257238   8.444   0.004   0.783  1.6064  0.4468  0.5043
18234SOL     OW57239  10.141   6.204   6.354  0.0348 -0.1513 -0.1455
18234SOL    HW157240  10.156   6.113   6.379 -1.5941 -0.4176 -0.1168
18234SOL    HW257241  10.169   6.254   6.431 -1.7758 -0.7846  0.9437
18235SOL     OW57242   0.760   4.474   4.991 -0.3088  0.2459  0.1841
18235SOL    HW157243   0.849   4.509   5.000  0.3059 -1.0213 -0.7772
18235SOL    HW257244   0.738   4.441   5.078  0.1372  0.6154  0.4370
18236SOL     OW57245   1.539   9.508   5.771 -0.2144 -0.0113  0.0177
18236SOL    HW157246   1.537   9.454   5.692  0.9266 -0.2895  0.1697
18236SOL    HW257247   1.575   9.592   5.741  2.5142 -0.9024  0.6916
18237SOL     OW57248   3.582   0.255   0.685  0.1176 -0.1209 -0.1511
18237SOL    HW157249   3.624   0.340   0.670  0.8860 -0.4000  0.3920
18237SOL    HW257250   3.558   0.225   0.597  1.4587 -0.1613 -0.5154
18238SOL     OW57251   0.862   5.715   2.345 -0.2955 -0.2285 -0.3189
18238SOL    HW157252   0.919   5.757   2.410  1.2749  0.5223 -2.1350
18238SOL    HW257253   0.811   5.652   2.396  0.4645  0.7598  1.7425
18239SOL     OW57254   3.706  10.041   6.301 -0.4075  0.0596 -0.0097
18239SOL    HW157255   3.627   9.987   6.300 -0.9004  0.7813 -1.5678
18239SOL    HW257256   3.778   9.979   6.286 -0.6886 -0.5477  1.0661
18240SOL     OW57257   5.339   0.976   0.836  0.4671  0.9411 -0.6330
18240SOL    HW157258   5.397   0.899   0.832 -0.5894 -0.0028  1.1880
18240SOL    HW257259   5.251   0.940   0.825 -0.0113  1.9334 -0.0993
18241SOL     OW57260   2.565   3.601   2.284  0.6522 -0.4260 -0.0468
18241SOL    HW157261   2.470   3.602   2.290  0.5614  3.3267 -0.8590
18241SOL    HW257262   2.594   3.548   2.358 -2.0685 -2.4193 -0.3579
18242SOL     OW57263   5.052   4.758   3.706  0.3787 -0.3005  0.2844
18242SOL    HW157264   5.140   4.741   3.740  0.3863 -1.7501 -0.4330
18242SOL    HW257265   5.019   4.672   3.681 -1.3320  0.2129  0.7518
18243SOL     OW57266   1.182   7.522   0.295  0.3991 -0.3862  0.5670
18243SOL    HW157267   1.089   7.508   0.277 -0.1471  2.3173  0.9833
18243SOL    HW257268   1.203   7.461   0.366 -0.7943 -1.7389 -0.2315
18244SOL     OW57269   4.420   2.915   3.756 -0.9105 -0.1131  0.4036
18244SOL    HW157270   4.392   2.901   3.846 -0.7510  0.1325  0.4914
18244SOL    HW257271   4.508   2.952   3.763 -0.7484 -0.4421  0.1394
18245SOL     OW57272   6.079   8.283   8.972 -0.6308  0.2568 -0.2999
18245SOL    HW157273   5.989   8.264   8.944 -0.5208 -1.5110  0.4784
18245SOL    HW257274   6.132   8.267   8.894 -0.9279  0.7706 -0.6108
18246SOL     OW57275   4.674   5.955   0.344  0.0221 -0.3979 -0.3673
18246SOL    HW157276   4.608   5.915   0.402  0.6947 -0.5181  0.3255
18246SOL    HW257277   4.665   5.907   0.262 -0.3523 -0.8248 -0.0854
18247SOL     OW57278   6.553   5.729   0.453  0.5181 -0.3360 -0.4874
18247SOL    HW157279   6.465   5.716   0.417  0.4854  0.3896 -0.6703
18247SOL    HW257280   6.557   5.668   0.527  0.5190 -1.6945 -1.5785
18248SOL     OW57281   9.699   6.517   4.420 -0.5676 -0.4400 -0.3634
18248SOL    HW157282   9.633   6.464   4.376 -0.9760  0.0984 -0.4117
18248SOL    HW257283   9.748   6.559   4.349 -2.0693  1.4531 -0.3319
18249SOL     OW57284   1.148   4.131   0.546  0.0863 -0.3695  0.4772
18249SOL    HW157285   1.202   4.054   0.565 -0.5952 -0.4891  2.0093
18249SOL    HW257286   1.111   4.156   0.631  1.2000  2.3411  0.2199
18250SOL     OW57287   8.746   4.743   2.398  0.2897  0.3773 -0.1649
18250SOL    HW157288   8.660   4.761   2.436  1.3603  1.6928  1.7475
18250SOL    HW257289   8.802   4.723   2.473  2.2664  2.1393 -1.0919
18251SOL     OW57290   1.931   2.742   8.480 -0.1724  0.9631 -0.2734
18251SOL    HW157291   1.971   2.827   8.497  1.4071  0.1766  0.0359
18251SOL    HW257292   1.920   2.702   8.567 -0.2827  0.5748 -0.4626
18252SOL     OW57293   5.958   6.693   0.051 -0.1146 -0.1739  0.2958
18252SOL    HW157294   6.002   6.710  -0.032 -0.7659 -1.7804 -0.4033
18252SOL    HW257295   5.890   6.761   0.057 -0.5734 -0.5268 -0.8630
18253SOL     OW57296   1.514   5.586   4.084  0.6585 -0.6536  0.2113
18253SOL    HW157297   1.572   5.629   4.147 -0.5801  2.1357 -0.4751
18253SOL    HW257298   1.572   5.556   4.015  1.9973 -3.4475  2.4516
18254SOL     OW57299   5.351   2.173   6.865  0.2011 -0.1571 -0.0711
18254SOL    HW157300   5.312   2.096   6.907 -0.2675 -0.2961 -0.7516
18254SOL    HW257301   5.277   2.217   6.824  0.8435 -0.7418 -1.8996
18255SOL     OW57302   5.073   8.472   2.648  0.7107 -0.4652  0.5221
18255SOL    HW157303   5.052   8.383   2.677 -2.2943  0.2822  0.8108
18255SOL    HW257304   5.043   8.476   2.558 -0.4728  0.6753  0.9575
18256SOL     OW57305   3.233   0.595   6.606 -0.0834  0.6931 -0.0356
18256SOL    HW157306   3.159   0.586   6.665 -0.5278  0.4013 -0.6398
18256SOL    HW257307   3.267   0.506   6.595  0.2034  0.7906  0.0366
18257SOL     OW57308   0.526   9.368   3.336 -0.3403 -0.1015  0.0918
18257SOL    HW157309   0.527   9.307   3.263  0.6642 -0.3216  0.2760
18257SOL    HW257310   0.617   9.398   3.343 -0.9848  2.0294 -0.5027
18258SOL     OW57311   7.818  10.179   5.309 -0.7136  0.1436  0.5573
18258SOL    HW157312   7.786  10.119   5.242  0.2963 -0.7105  0.8164
18258SOL    HW257313   7.824  10.263   5.265  2.1374 -0.8723 -1.1303
18259SOL     OW57314   4.498   1.469   4.790  0.3315  0.1780  0.5003
18259SOL    HW157315   4.531   1.381   4.803 -0.0768 -0.3903 -2.1288
18259SOL    HW257316   4.576   1.521   4.769  0.0474 -0.4597 -2.2517
18260SOL     OW57317   8.786   7.739   6.874 -0.2302 -0.0435 -0.3175
18260SOL    HW157318   8.737   7.814   6.907  1.8922  1.0172  0.5104
18260SOL    HW257319   8.770   7.740   6.779 -1.6281  0.3829 -0.0832
18261SOL     OW57320   7.917   1.014   4.250  0.5321  0.1651 -0.1485
18261SOL    HW157321   7.899   1.037   4.159 -0.0146 -0.4642 -0.1955
18261SOL    HW257322   7.882   0.926   4.260 -0.2552  0.5982  0.9354
18262SOL     OW57323   5.347   3.609   6.385 -0.3132  0.0144  0.2607
18262SOL    HW157324   5.345   3.672   6.457  0.2307  0.3881 -0.0426
18262SOL    HW257325   5.427   3.559   6.399  0.6108  1.1213 -0.9396
18263SOL     OW57326   4.630   8.402   1.548  0.0485 -0.2453 -0.5790
18263SOL    HW157327   4.607   8.360   1.631  1.2858  1.4362  0.6400
18263SOL    HW257328   4.617   8.496   1.564  2.2359  0.2722 -1.6232
18264SOL     OW57329   8.024   5.299   7.203  0.1697  0.0721 -0.2627
18264SOL    HW157330   7.955   5.334   7.147 -1.4338  0.8184  2.1222
18264SOL    HW257331   8.000   5.326   7.292  3.0077 -0.4840  0.7444
18265SOL     OW57332   8.420   1.285   2.862  0.4295 -0.1501  0.2131
18265SOL    HW157333   8.514   1.300   2.856  0.5248 -0.5065  0.7966
18265SOL    HW257334   8.389   1.292   2.772  1.0461 -0.2506 -0.0106
18266SOL     OW57335   2.112   3.740   6.006 -0.9310 -0.2255 -0.1672
18266SOL    HW157336   2.182   3.677   5.988 -1.4428 -0.3887 -1.6408
18266SOL    HW257337   2.034   3.685   6.017 -0.4602 -0.2605  3.9199
18267SOL     OW57338   4.461   6.306   9.218 -0.3617  1.0654 -0.0096
18267SOL    HW157339   4.459   6.280   9.126 -0.7777  1.1381 -0.0204
18267SOL    HW257340   4.554   6.320   9.237 -0.3759  2.1876 -0.7426
18268SOL     OW57341   7.172   8.670   6.405  0.1687  0.1961  0.0746
18268SOL    HW157342   7.240   8.639   6.466 -0.8924 -0.1772  1.0813
18268SOL    HW257343   7.108   8.713   6.461 -0.8119 -0.1284 -0.7936
18269SOL     OW57344   7.713   3.879   9.927 -0.2194 -0.0523  0.1643
18269SOL    HW157345   7.784   3.938   9.952 -0.4074  0.8392 -1.3363
18269SOL    HW257346   7.757   3.800   9.897  0.2051  0.8347 -1.6262
18270SOL     OW57347   4.083   9.917  10.105  0.4746  0.1137 -0.1672
18270SOL    HW157348   4.150   9.927  10.173  0.7478 -0.6639 -0.3167
18270SOL    HW257349   4.039   9.835  10.127 -0.1776  0.4300 -0.2926
18271SOL     OW57350   1.737   3.348   5.968  0.7909  0.5563  0.1196
18271SOL    HW157351   1.807   3.283   5.965 -2.1278 -2.6614 -3.1814
18271SOL    HW257352   1.683   3.322   6.042 -0.3471 -0.8362 -1.1692
18272SOL     OW57353   7.224   9.955   4.498 -0.1793  0.0926 -0.0182
18272SOL    HW157354   7.146   9.909   4.528  0.5959 -0.3205  1.3919
18272SOL    HW257355   7.208  10.047   4.517 -1.4836  0.3839 -2.3016
18273SOL     OW57356   6.647   3.750   6.494 -0.3919 -0.0519  0.0738
18273SOL    HW157357   6.639   3.835   6.451 -0.3324 -0.7456 -1.3332
18273SOL    HW257358   6.670   3.771   6.584 -1.2083  1.4512 -0.0475
18274SOL     OW57359   8.510   5.518   8.752  0.6339 -0.6570  0.2487
18274SOL    HW157360   8.466   5.562   8.679  2.8831 -0.5429 -1.0553
18274SOL    HW257361   8.584   5.575   8.773  0.7678 -1.3681  1.7792
18275SOL     OW57362   9.303   8.293   1.658 -0.2019 -0.2923  0.2398
18275SOL    HW157363   9.370   8.360   1.672 -2.2161  1.8458  0.0710
18275SOL    HW257364   9.337   8.240   1.585  0.5449  1.8156 -0.9976
18276SOL     OW57365   2.321   3.473   7.808 -0.5345 -0.1949 -0.2201
18276SOL    HW157366   2.256   3.504   7.745 -1.8422 -1.7129  0.3279
18276SOL    HW257367   2.274   3.407   7.859  1.4989 -1.4448  0.0741
18277SOL     OW57368   8.226   5.910   1.428 -0.1235  0.5161  0.0121
18277SOL    HW157369   8.136   5.913   1.394  0.0986  0.0404 -0.6168
18277SOL    HW257370   8.237   5.994   1.473 -0.4150  1.1634 -1.1082
18278SOL     OW57371   8.126   0.080   0.947  0.0520  0.4386  0.1974
18278SOL    HW157372   8.166   0.122   1.023 -0.1388  1.1027 -0.0677
18278SOL    HW257373   8.197   0.029   0.908  0.3111  0.5951  0.4567
18279SOL     OW57374   4.138   9.981   8.789  0.2598 -0.5160  0.0779
18279SOL    HW157375   4.169   9.992   8.879  2.5813  0.3861 -0.7840
18279SOL    HW257376   4.158   9.890   8.768 -3.2006 -1.6723  1.4887
18280SOL     OW57377   2.736   4.898   8.666  0.7155  0.1466  0.0729
18280SOL    HW157378   2.817   4.935   8.701  1.2882 -1.0275  0.0231
18280SOL    HW257379   2.714   4.827   8.727 -0.1767  0.3298 -0.0225
18281SOL     OW57380   4.513   0.367   3.257  0.5308  0.3814 -0.1998
18281SOL    HW157381   4.589   0.407   3.299  1.6463 -1.8842 -0.0113
18281SOL    HW257382   4.459   0.336   3.330 -0.5453  1.8817 -0.3348
18282SOL     OW57383   1.465   3.732   6.325 -0.0846  0.3691 -0.0580
18282SOL    HW157384   1.479   3.640   6.305 -1.2652  0.3892 -0.9811
18282SOL    HW257385   1.542   3.776   6.288  0.2138 -0.1766 -0.0961
18283SOL     OW57386   7.063   1.027   3.902  0.1175  0.1752  0.1624
18283SOL    HW157387   7.069   1.090   3.974 -0.5380  1.8817 -1.2419
18283SOL    HW257388   6.980   0.981   3.919  1.5219 -1.6647  2.2351
18284SOL     OW57389   9.556   6.774   2.468  0.4703  0.1131  0.0817
18284SOL    HW157390   9.554   6.687   2.429  2.0141 -0.1818  0.6238
18284SOL    HW257391   9.535   6.760   2.560  1.8072  0.1489  0.4095
18285SOL     OW57392   7.781   8.424   6.564  0.0223  0.3350  0.4457
18285SOL    HW157393   7.771   8.430   6.660  0.1263  2.7897  0.3315
18285SOL    HW257394   7.831   8.502   6.540 -0.5494  0.0716 -1.6885
18286SOL     OW57395   9.403   5.406   6.931  0.1050  0.6314 -0.3650
18286SOL    HW157396   9.383   5.481   6.875 -1.9554 -0.4409 -1.1081
18286SOL    HW257397   9.468   5.440   6.993  0.8084  2.4261 -2.0239
18287SOL     OW57398   0.017   0.820   6.509 -0.3781 -0.3458 -0.4202
18287SOL    HW157399   0.108   0.788   6.506 -0.1495 -0.1290  2.5362
18287SOL    HW257400  -0.031   0.759   6.454  1.5940 -0.2805 -2.3119
18288SOL     OW57401   4.487   6.567   2.647  0.0589  0.5556  0.3607
18288SOL    HW157402   4.504   6.476   2.672  0.5359  0.4521 -0.3242
18288SOL    HW257403   4.513   6.618   2.723  0.1286  0.1428  0.6148
18289SOL     OW57404   8.136   3.444   3.109 -0.2663 -0.0839  0.3634
18289SOL    HW157405   8.065   3.450   3.046  0.7404  0.9290 -0.7003
18289SOL    HW257406   8.099   3.477   3.191 -0.9468  0.6768 -0.2469
18290SOL     OW57407   4.226   3.038   1.231  0.1782  0.4445  0.0114
18290SOL    HW157408   4.166   3.107   1.202  0.2050  0.4631 -0.0002
18290SOL    HW257409   4.249   2.992   1.151 -0.0532  0.2517  0.0547
18291SOL     OW57410   4.000   2.442   8.191 -0.0840  0.2452 -0.1110
18291SOL    HW157411   4.093   2.436   8.215  0.2674  0.2186 -1.4263
18291SOL    HW257412   3.988   2.535   8.169 -0.4679  0.3212  0.4073
18292SOL     OW57413   5.413   4.100   6.425  0.0896 -0.3479 -0.0920
18292SOL    HW157414   5.335   4.102   6.370  1.0098  0.1389 -1.3971
18292SOL    HW257415   5.390   4.151   6.503 -1.0120 -0.5324 -0.2989
18293SOL     OW57416   2.945   9.588   0.544 -0.3827 -0.1911 -0.0834
18293SOL    HW157417   3.010   9.569   0.477 -1.9517 -2.3828 -1.0294
18293SOL    HW257418   2.861   9.578   0.500 -1.3992  1.7218  1.3563
18294SOL     OW57419   9.705   4.994   2.684 -0.3115 -0.1654 -0.8729
18294SOL    HW157420   9.653   5.028   2.757  0.7786  1.5095 -0.8447
18294SOL    HW257421   9.723   5.071   2.629  1.8141 -0.7573 -1.0670
18295SOL     OW57422   1.638   4.464   9.655  0.2520 -0.0330 -0.4799
18295SOL    HW157423   1.584   4.385   9.652 -1.5051  1.1038  0.4749
18295SOL    HW257424   1.606   4.512   9.731  2.2555  0.9424 -0.2155
18296SOL     OW57425   6.977   9.824   4.559  0.2371 -0.0888 -0.2154
18296SOL    HW157426   6.967   9.749   4.618  0.3634  1.3371  1.6411
18296SOL    HW257427   6.900   9.879   4.577  1.4274  1.4482  0.2609
18297SOL     OW57428   2.592   5.279   7.413 -0.4778 -0.1453 -0.4344
18297SOL    HW157429   2.593   5.357   7.468  0.1737 -2.8261  3.6432
18297SOL    HW257430   2.670   5.287   7.357  1.1833  0.8591  1.9306
18298SOL     OW57431   1.349   1.204   3.798 -0.3990  0.5919 -0.2506
18298SOL    HW157432   1.414   1.152   3.750 -2.6688 -1.5997 -1.0563
18298SOL    HW257433   1.267   1.189   3.751 -2.1331  0.6703  2.6513
18299SOL     OW57434   8.294   7.862   1.271  0.2747 -0.3034 -0.4738
18299SOL    HW157435   8.235   7.902   1.207 -0.2722 -1.1962 -0.5400
18299SOL    HW257436   8.265   7.898   1.355 -1.1353 -1.6101 -0.3761
18300SOL     OW57437   0.232   7.961   8.081  0.1975  0.5406  0.2783
18300SOL    HW157438   0.149   7.981   8.039  0.2477 -0.6463 -0.4091
18300SOL    HW257439   0.227   8.004   8.167 -1.6484 -0.6059  0.7645
18301SOL     OW57440   0.454   0.212   2.082 -0.2823  0.8947  0.8280
18301SOL    HW157441   0.480   0.279   2.019  1.4227  1.4017  2.0215
18301SOL    HW257442   0.395   0.155   2.034  0.3653  1.7280 -0.9930
18302SOL     OW57443   7.978   2.951   2.229 -0.4571 -0.4132  0.1805
18302SOL    HW157444   8.023   2.872   2.201  1.7055  1.4575 -1.7873
18302SOL    HW257445   7.999   2.959   2.322  0.6818 -1.2337 -0.0008
18303SOL     OW57446   0.316   6.525   1.644  0.2196  0.0657  0.4496
18303SOL    HW157447   0.273   6.440   1.658 -1.9881  1.1513  0.3830
18303SOL    HW257448   0.397   6.503   1.599  0.8822 -2.2543  2.5999
18304SOL     OW57449   1.045   1.631   0.974 -0.2367 -0.1353 -0.0736
18304SOL    HW157450   1.051   1.604   0.882 -0.7245  0.6895 -0.3545
18304SOL    HW257451   0.979   1.572   1.012 -0.9127  0.2946 -0.5552
18305SOL     OW57452   5.458   1.516   8.343 -0.1448  0.0732  0.3714
18305SOL    HW157453   5.492   1.605   8.333 -0.2974  0.4023  2.6530
18305SOL    HW257454   5.530   1.466   8.382 -0.0055 -0.8643 -1.0279
18306SOL     OW57455   3.553   3.424   3.651 -0.1714 -0.1401 -0.0872
18306SOL    HW157456   3.647   3.412   3.643 -0.2446 -1.2839  0.8160
18306SOL    HW257457   3.515   3.339   3.628 -1.0657  0.7006 -1.8647
18307SOL     OW57458   1.456   0.175   8.058  0.1892  0.0536 -0.3058
18307SOL    HW157459   1.430   0.241   8.121  1.0773  1.5983 -1.5096
18307SOL    HW257460   1.529   0.129   8.100 -0.6889 -0.4435  0.6938
18308SOL     OW57461   2.002   8.236   4.614 -0.1938  0.2440  0.0241
18308SOL    HW157462   2.095   8.258   4.602 -0.2844  0.0530 -1.1228
18308SOL    HW257463   1.978   8.190   4.533 -1.3061  0.3615  0.2777
18309SOL     OW57464   4.084   7.565   3.228  0.3076 -0.0334  0.0277
18309SOL    HW157465   4.010   7.627   3.225  1.4801  1.3567 -0.3856
18309SOL    HW257466   4.047   7.486   3.269 -0.9232  1.3326  1.6239
18310SOL     OW57467   3.915   1.427   1.957 -0.3583  0.1136  0.1847
18310SOL    HW157468   3.943   1.340   1.983 -0.0405 -0.3945 -1.7620
18310SOL    HW257469   3.977   1.453   1.888 -1.7063  0.9904 -0.7283
18311SOL     OW57470   4.553   2.262   0.099  0.3794  0.7046  0.1134
18311SOL    HW157471   4.632   2.210   0.085 -0.7411 -0.6471 -1.3507
18311SOL    HW257472   4.574   2.317   0.175  1.8604 -1.3181  1.2144
18312SOL     OW57473   3.905   9.978   6.030 -0.2651  0.3056  0.3686
18312SOL    HW157474   3.921  10.015   6.117  1.1036  0.4884  0.0542
18312SOL    HW257475   3.971   9.910   6.020  1.0945  1.8241 -1.4296
18313SOL     OW57476   5.581   7.247   4.748  0.2180 -0.2279  0.6173
18313SOL    HW157477   5.636   7.204   4.683 -0.7143  2.3076 -1.9676
18313SOL    HW257478   5.512   7.184   4.768  1.0305 -1.3755 -0.1942
18314SOL     OW57479   1.169   6.344   1.101  0.1396 -0.3666  0.4705
18314SOL    HW157480   1.149   6.341   1.194 -1.4740  0.2414  0.1401
18314SOL    HW257481   1.143   6.431   1.072 -0.3355 -0.8988 -0.7634
18315SOL     OW57482   9.376   2.556   5.876  0.2919 -0.3124 -0.1577
18315SOL    HW157483   9.422   2.622   5.927  0.5904 -0.2599 -0.4919
18315SOL    HW257484   9.290   2.594   5.859  0.6623  0.2370 -0.8377
18316SOL     OW57485   2.074   0.366   3.536  0.4681  0.1843 -0.3712
18316SOL    HW157486   2.011   0.325   3.477  0.1929  0.0967 -0.0197
18316SOL    HW257487   2.098   0.448   3.492  1.2580 -0.4974 -1.2255
18317SOL     OW57488   6.699   5.850   9.624  0.2837 -0.2048  0.3106
18317SOL    HW157489   6.628   5.899   9.668 -0.0602  0.4139 -0.9168
18317SOL    HW257490   6.776   5.906   9.635 -0.6647  1.9765 -3.4124
18318SOL     OW57491   8.047   8.810   3.599  0.0307  0.2601  0.0780
18318SOL    HW157492   7.960   8.795   3.561  0.2963 -0.6447 -0.2007
18318SOL    HW257493   8.103   8.744   3.557  1.2551  1.9655 -1.0713
18319SOL     OW57494   4.971   4.174   4.444  0.1786  0.8365  0.4594
18319SOL    HW157495   5.048   4.121   4.464 -0.5598  0.3100  1.9969
18319SOL    HW257496   4.902   4.111   4.426 -0.4245  1.2727  1.1897
18320SOL     OW57497   7.749   5.552   7.484 -0.0989 -0.3178 -0.1336
18320SOL    HW157498   7.805   5.475   7.477  1.2436  0.5477  0.7369
18320SOL    HW257499   7.784   5.612   7.417  1.3258  0.9969  1.7261
18321SOL     OW57500   5.343   3.917   5.896 -0.0694 -0.3232 -0.5516
18321SOL    HW157501   5.425   3.964   5.910 -1.4168  1.6636  0.9632
18321SOL    HW257502   5.321   3.881   5.981 -1.2190 -0.0597 -0.7273
18322SOL     OW57503   6.320   7.178   4.548  0.3051 -0.2870 -0.2249
18322SOL    HW157504   6.369   7.111   4.500 -0.4466 -0.3743 -0.8682
18322SOL    HW257505   6.331   7.154   4.640  2.2843  0.2428 -0.2981
18323SOL     OW57506   2.663   5.280   5.780  0.1029  0.0536 -0.0826
18323SOL    HW157507   2.649   5.324   5.863  0.0083  0.5396 -0.3528
18323SOL    HW257508   2.706   5.346   5.725  0.0983 -0.2386 -0.4409
18324SOL     OW57509   7.032   2.451   9.907 -0.1808  0.1998  0.0563
18324SOL    HW157510   7.046   2.522   9.844 -0.5925  0.3022  0.0780
18324SOL    HW257511   6.988   2.492   9.981 -1.3486 -0.2580 -0.3579
18325SOL     OW57512   2.481   9.735   8.544 -0.2152  0.6644  0.2334
18325SOL    HW157513   2.428   9.716   8.467  0.5508  0.1265 -0.1594
18325SOL    HW257514   2.428   9.705   8.618 -0.1567 -0.5137 -0.2055
18326SOL     OW57515   8.971   9.697   1.298 -0.3956 -0.2191  0.1481
18326SOL    HW157516   9.013   9.774   1.338  1.6815 -1.8086  1.1652
18326SOL    HW257517   8.881   9.699   1.329 -0.6877  2.4499 -0.8042
18327SOL     OW57518   4.519   0.843   0.531 -0.0912 -0.0257 -0.1832
18327SOL    HW157519   4.429   0.856   0.560  0.0621 -0.2896  0.4377
18327SOL    HW257520   4.564   0.808   0.609  0.5294  0.0548 -0.5011
18328SOL     OW57521   0.065   0.448   4.549  0.5920 -0.0909  0.1186
18328SOL    HW157522   0.002   0.465   4.479  0.3585  1.0543  0.6002
18328SOL    HW257523   0.081   0.354   4.544  2.5625  0.3327 -3.1665
18329SOL     OW57524   7.414   7.964   2.821 -0.2596  0.0513  0.2189
18329SOL    HW157525   7.345   7.920   2.772  0.2512 -0.5035 -0.0100
18329SOL    HW257526   7.386   7.960   2.912  0.0257 -1.2053  0.2608
18330SOL     OW57527   4.594   7.139   7.186  0.0355  0.3838 -0.3633
18330SOL    HW157528   4.673   7.110   7.232 -0.2130  0.1863 -0.0622
18330SOL    HW257529   4.598   7.095   7.101 -0.0876 -0.1432 -0.0984
18331SOL     OW57530   2.975   2.684   5.381  0.2501  0.2634 -0.3889
18331SOL    HW157531   3.050   2.682   5.322 -0.1355  1.0609 -0.9062
18331SOL    HW257532   2.975   2.597   5.423  0.9355 -0.0508 -1.0379
18332SOL     OW57533   1.502   5.498   1.578  0.2003  0.6110 -0.4796
18332SOL    HW157534   1.471   5.496   1.488 -0.7903 -1.0175 -0.1236
18332SOL    HW257535   1.464   5.420   1.618 -0.7131  2.1689  1.7949
18333SOL     OW57536  10.174   8.983   6.706  0.3575 -0.2788 -0.9810
18333SOL    HW157537  10.082   8.963   6.688 -0.4481  1.5412  0.8445
18333SOL    HW257538  10.175   9.009   6.798  2.9502 -1.5756 -0.5952
18334SOL     OW57539   0.851   9.202  10.002 -0.3953 -0.1609 -0.5581
18334SOL    HW157540   0.826   9.143   9.931  0.5295 -1.0998 -0.1032
18334SOL    HW257541   0.810   9.286   9.978 -1.4409 -0.8824 -1.3684
18335SOL     OW57542   7.500   3.271   8.812 -0.0659  0.0624  0.6366
18335SOL    HW157543   7.536   3.276   8.900 -3.4289  1.0074  2.0331
18335SOL    HW257544   7.524   3.354   8.771  2.8782 -1.0287  0.0543
18336SOL     OW57545   6.474   8.875   2.541 -0.2652 -0.1536 -0.4876
18336SOL    HW157546   6.444   8.864   2.631 -1.3167 -0.0820 -0.8217
18336SOL    HW257547   6.410   8.826   2.488 -0.1410  0.5141 -1.2639
18337SOL     OW57548   9.243   1.373   9.404 -0.5164  0.3141 -0.1045
18337SOL    HW157549   9.305   1.316   9.448 -0.2864  0.1916 -0.5756
18337SOL    HW257550   9.276   1.379   9.314 -1.1103  0.3584 -0.3221
18338SOL     OW57551   8.703   5.549   8.331 -0.1003 -0.1850  0.1220
18338SOL    HW157552   8.702   5.496   8.410  2.5897 -0.0261  0.2910
18338SOL    HW257553   8.620   5.597   8.334 -1.5347 -2.6204  1.1253
18339SOL     OW57554   7.026   8.380   0.999 -0.0450  0.3359 -0.5301
18339SOL    HW157555   7.060   8.419   1.079  0.8975 -0.3398 -0.5899
18339SOL    HW257556   6.937   8.414   0.991  0.9410  2.8742 -0.8847
18340SOL     OW57557   6.618   5.486   9.346 -0.5976  0.4165  0.1545
18340SOL    HW157558   6.697   5.446   9.384  0.0859  1.5648 -0.0436
18340SOL    HW257559   6.546   5.443   9.391  0.1394 -0.6888  0.3079
18341SOL     OW57560   0.169   8.291   2.121 -0.4195  0.0712 -0.7330
18341SOL    HW157561   0.124   8.218   2.164 -1.7347 -0.0738 -2.3051
18341SOL    HW257562   0.259   8.286   2.154 -0.8631 -1.3143  0.3466
18342SOL     OW57563   8.310   9.040   0.624 -0.1140  0.1836  0.5984
18342SOL    HW157564   8.391   9.026   0.574 -0.2551 -0.1266  0.4554
18342SOL    HW257565   8.311   8.970   0.689 -1.0569 -0.7903 -0.4151
18343SOL     OW57566   8.396   7.221   0.262 -0.2759 -0.0074 -0.2341
18343SOL    HW157567   8.492   7.217   0.265 -0.3426 -1.9612 -0.0905
18343SOL    HW257568   8.372   7.171   0.185 -1.1913  0.5865 -0.3453
18344SOL     OW57569   0.208   7.940   7.583  0.4478  0.4112  0.9132
18344SOL    HW157570   0.291   7.987   7.575  0.8995 -0.3857  0.8062
18344SOL    HW257571   0.231   7.848   7.565 -0.2942  0.0519  1.7738
18345SOL     OW57572   8.945   4.897   0.390 -0.3658  0.5848 -0.1569
18345SOL    HW157573   8.889   4.823   0.414  0.0819 -0.1152 -1.2899
18345SOL    HW257574   9.011   4.860   0.332  1.9800  1.1877  2.0552
18346SOL     OW57575   4.287   4.943   6.898  0.2574 -0.0749 -0.2901
18346SOL    HW157576   4.381   4.936   6.879  0.6515  0.8757  1.2164
18346SOL    HW257577   4.273   4.883   6.972  0.1231  1.3932  0.8996
18347SOL     OW57578  10.131  10.068   7.473 -0.2543  0.3513  0.3350
18347SOL    HW157579  10.209  10.119   7.494  0.6285 -0.9200  0.1891
18347SOL    HW257580  10.062  10.133   7.464  0.1429  1.2749  3.3116
18348SOL     OW57581   8.574   5.966   3.600  0.1355  0.5097 -0.0009
18348SOL    HW157582   8.502   6.013   3.556 -0.6717 -0.9465 -0.2642
18348SOL    HW257583   8.537   5.880   3.620  1.9797 -0.4365 -0.5901
18349SOL     OW57584   1.527   8.283   9.755 -0.1818 -0.2880  0.6472
18349SOL    HW157585   1.505   8.343   9.826 -0.9990 -0.0217  0.1777
18349SOL    HW257586   1.621   8.295   9.742 -0.5557  1.8670 -0.2999
18350SOL     OW57587   5.260   1.668   3.469 -0.1775 -0.5302  0.2730
18350SOL    HW157588   5.258   1.682   3.374 -1.7473  0.8506  0.4869
18350SOL    HW257589   5.198   1.597   3.485 -1.0444  0.2505  0.4122
18351SOL     OW57590   1.384   1.805   6.137  0.5725  0.2603  0.3601
18351SOL    HW157591   1.367   1.898   6.122  0.5114  0.0087 -1.1943
18351SOL    HW257592   1.478   1.799   6.152  0.9015  0.3470 -1.5087
18352SOL     OW57593   7.173   8.228   9.962  0.3920 -0.1239 -0.0479
18352SOL    HW157594   7.146   8.140   9.936  2.3209 -1.2496  1.5855
18352SOL    HW257595   7.092   8.275   9.979 -0.6570 -1.6560 -0.7353
18353SOL     OW57596   5.481   9.563   9.405  0.4911  0.1122 -0.2140
18353SOL    HW157597   5.495   9.629   9.338 -0.3554  0.1491 -0.3608
18353SOL    HW257598   5.386   9.553   9.409  0.5165  0.3985  1.2527
18354SOL     OW57599   6.558   1.502   4.252 -0.4729  0.4659 -0.5387
18354SOL    HW157600   6.497   1.468   4.187 -1.3436  3.7496 -1.5244
18354SOL    HW257601   6.632   1.536   4.202 -0.0446  0.8775  0.3480
18355SOL     OW57602   8.681   2.170   6.384  0.2442 -0.3582  0.3326
18355SOL    HW157603   8.713   2.080   6.395  1.0065 -0.0798  0.4196
18355SOL    HW257604   8.616   2.181   6.453 -0.8889 -1.3117 -0.5709
18356SOL     OW57605   0.095   1.091   8.815 -0.1568 -0.6740 -0.2313
18356SOL    HW157606   0.055   1.043   8.743 -0.2031 -0.3021 -0.4569
18356SOL    HW257607   0.023   1.107   8.876 -0.2348 -0.5123 -0.3630
18357SOL     OW57608   7.479   9.007   5.953 -0.1939 -0.0804  0.2295
18357SOL    HW157609   7.433   8.924   5.946  0.4726 -0.3831 -0.5955
18357SOL    HW257610   7.522   9.019   5.868  1.7952 -0.1477  1.1835
18358SOL     OW57611   8.319   6.619   1.661 -0.5231  0.0603  0.3678
18358SOL    HW157612   8.239   6.613   1.713 -0.7281 -1.4512 -0.1124
18358SOL    HW257613   8.306   6.697   1.607 -2.9201 -1.7387 -1.7586
18359SOL     OW57614   7.812   3.719   9.672 -0.2301  0.2404 -0.0922
18359SOL    HW157615   7.829   3.644   9.729 -0.1981  0.3605  0.0603
18359SOL    HW257616   7.812   3.684   9.584 -0.2495  0.0548 -0.0185
18360SOL     OW57617   0.456   5.474   0.072  0.0381 -0.2639  0.2235
18360SOL    HW157618   0.525   5.426   0.026  0.7194  2.0146 -1.2701
18360SOL    HW257619   0.479   5.469   0.164  1.9197 -0.0339 -0.2136
18361SOL     OW57620   3.024   5.019   6.419 -0.0318  0.2097  0.0642
18361SOL    HW157621   3.051   5.045   6.507  0.1284 -0.1775  0.1343
18361SOL    HW257622   2.963   5.086   6.391 -2.1138 -1.0194  1.4978
18362SOL     OW57623   4.764   2.985   4.320  0.3110 -0.1837  0.6101
18362SOL    HW157624   4.689   2.935   4.289 -0.1107  0.2762  0.8935
18362SOL    HW257625   4.837   2.923   4.315  0.2434 -0.1601 -1.2348
18363SOL     OW57626   0.326   5.723   0.077 -0.2708 -0.5306 -0.0615
18363SOL    HW157627   0.402   5.776   0.103 -0.0606 -0.5361 -0.6544
18363SOL    HW257628   0.363   5.637   0.057 -0.1452 -0.0046 -2.2175
18364SOL     OW57629   5.865   4.137   5.844  0.2822  0.5316 -0.9584
18364SOL    HW157630   5.940   4.196   5.845  1.8792 -1.4322  3.1902
18364SOL    HW257631   5.797   4.184   5.894  0.0941  0.6101 -1.2841
18365SOL     OW57632   5.076   9.491   0.173 -0.5315 -0.0253  0.0786
18365SOL    HW157633   5.086   9.436   0.251  1.4574  1.2607  0.7670
18365SOL    HW257634   5.123   9.442   0.104 -0.0063  0.1016  0.3404
18366SOL     OW57635   7.506   0.396   7.628  1.0427 -0.0883  0.7480
18366SOL    HW157636   7.438   0.329   7.642  2.2418 -1.3561  0.6186
18366SOL    HW257637   7.519   0.396   7.533  0.7283  0.6686  0.7013
18367SOL     OW57638   3.319   5.582   6.078 -0.4438 -0.1417 -0.0961
18367SOL    HW157639   3.311   5.497   6.121 -1.8936  0.5576  1.0522
18367SOL    HW257640   3.329   5.645   6.149 -1.9758  0.9373 -0.8032
18368SOL     OW57641   4.180   6.284   1.616  0.4588 -0.2992  0.0320
18368SOL    HW157642   4.252   6.285   1.679  0.2409  0.7734  0.2810
18368SOL    HW257643   4.142   6.197   1.624 -0.5809  0.3492  2.5620
18369SOL     OW57644   0.070   9.464   4.077  0.4085  0.0603 -0.1199
18369SOL    HW157645   0.130   9.390   4.077 -1.0937 -1.2624 -3.0722
18369SOL    HW257646   0.002   9.440   4.140 -0.5191 -1.5364 -1.6694
18370SOL     OW57647   1.702   8.608   1.297 -0.0144 -0.3262 -0.3116
18370SOL    HW157648   1.636   8.665   1.336  0.2659  0.0202 -0.3392
18370SOL    HW257649   1.668   8.520   1.310  0.1983 -0.2349  0.9461
18371SOL     OW57650   9.829   5.815   7.871 -0.5706  0.1385  0.2253
18371SOL    HW157651   9.754   5.801   7.813 -0.7072  3.1031 -0.3680
18371SOL    HW257652   9.805   5.772   7.953 -1.0222 -2.7702 -1.3611
18372SOL     OW57653   1.620   8.963   2.052  0.3777  0.1651 -0.4867
18372SOL    HW157654   1.547   8.914   2.091  0.9641 -0.5697 -0.2947
18372SOL    HW257655   1.583   9.000   1.972 -0.0322 -0.7739 -0.7439
18373SOL     OW57656   5.971   9.512   1.340  0.5313 -0.3042  0.0093
18373SOL    HW157657   5.889   9.549   1.373  0.9679  0.3853  0.3611
18373SOL    HW257658   6.008   9.465   1.415  0.9634  0.2868  0.1803
18374SOL     OW57659   4.238   4.923   9.290  0.0842 -0.2005  0.3491
18374SOL    HW157660   4.157   4.928   9.341 -0.4125  1.1136 -0.5338
18374SOL    HW257661   4.216   4.964   9.206  1.8005  0.6091  0.2741
18375SOL     OW57662   6.287   0.314   8.596 -0.3504 -0.6166 -0.3276
18375SOL    HW157663   6.216   0.249   8.603  1.6504 -3.2351 -2.8679
18375SOL    HW257664   6.270   0.358   8.513 -0.2611  0.3411  0.1612
18376SOL     OW57665   9.472   3.729   7.213  0.1179  0.0935  0.0705
18376SOL    HW157666   9.461   3.747   7.120  2.9710 -0.1358 -0.3492
18376SOL    HW257667   9.484   3.815   7.254 -0.6150  0.1565  0.1560
18377SOL     OW57668   5.460   0.529   2.066 -0.0217 -0.0964 -0.1528
18377SOL    HW157669   5.442   0.439   2.092  0.0190  0.5336  2.1707
18377SOL    HW257670   5.553   0.531   2.045  0.6017  0.0034  2.5038
18378SOL     OW57671   5.013   7.364   7.356  0.1747  0.4852  0.5504
18378SOL    HW157672   4.954   7.418   7.303  1.1656  2.1869  1.1475
18378SOL    HW257673   5.068   7.427   7.402  1.3187 -1.0531  1.3178
18379SOL     OW57674   2.388   5.276   4.721 -0.3460  0.0681  0.4273
18379SOL    HW157675   2.334   5.198   4.725  0.3434 -0.3842  0.8637
18379SOL    HW257676   2.460   5.260   4.782 -0.1213  0.9786  0.4166
18380SOL     OW57677   3.863   9.081   5.701  0.6857 -0.1374  0.2362
18380SOL    HW157678   3.877   9.169   5.667  1.7350 -1.3261 -2.5194
18380SOL    HW257679   3.849   9.094   5.795 -0.5981  3.0838 -0.3192
18381SOL     OW57680   1.052   4.244   2.933  0.8511  0.1366  0.6607
18381SOL    HW157681   1.081   4.161   2.972 -0.5474 -0.4883  0.3891
18381SOL    HW257682   1.026   4.221   2.844 -0.9101  0.5900  1.0380
18382SOL     OW57683   8.822   4.491   1.526  0.3626  0.0718  0.2983
18382SOL    HW157684   8.893   4.482   1.462 -0.2036 -0.8955 -0.2065
18382SOL    HW257685   8.867   4.511   1.608  1.1920 -0.0380 -0.1197
18383SOL     OW57686   7.621   9.084   6.161  0.0542  0.4101  0.0724
18383SOL    HW157687   7.654   9.001   6.195 -0.1071  0.1231 -0.4746
18383SOL    HW257688   7.589   9.064   6.073  1.0811  1.2755 -0.5194
18384SOL     OW57689   8.022   5.171   9.917  0.3086 -0.7261  0.1464
18384SOL    HW157690   7.955   5.218   9.967 -0.2820 -0.3525 -0.9587
18384SOL    HW257691   8.050   5.100   9.974 -1.2468 -1.0575  0.5312
18385SOL     OW57692   6.509   6.100   9.659 -0.5681  0.3735  0.3057
18385SOL    HW157693   6.494   6.163   9.589  0.5963  0.6484  0.2805
18385SOL    HW257694   6.560   6.149   9.724  0.2687 -0.5065  0.3255
18386SOL     OW57695   4.588   1.116   1.672  0.1647  0.2158 -0.0468
18386SOL    HW157696   4.558   1.181   1.736 -1.5952 -1.5180  0.9644
18386SOL    HW257697   4.673   1.087   1.706 -0.9192 -0.9504  1.7760
18387SOL     OW57698   9.466   1.111   0.906 -0.2944 -0.1157 -0.2102
18387SOL    HW157699   9.541   1.171   0.900 -0.3691  0.2607  2.0507
18387SOL    HW257700   9.492   1.035   0.854  1.3493  0.3263 -0.0796
18388SOL     OW57701   3.688   9.068   3.567 -0.6319  0.3943  0.6580
18388SOL    HW157702   3.620   9.047   3.631 -1.1543  1.5607  0.4897
18388SOL    HW257703   3.751   9.120   3.616  0.7024 -1.5685  1.0939
18389SOL     OW57704   2.238   1.742   4.329 -0.2560 -0.0263  0.0817
18389SOL    HW157705   2.285   1.697   4.259 -1.1355  2.3364 -2.1171
18389SOL    HW257706   2.174   1.678   4.361  1.0543 -1.5722 -0.3453
18390SOL     OW57707   5.615   1.320   5.081 -0.2581  0.2819  0.5778
18390SOL    HW157708   5.538   1.291   5.032 -0.6718  0.1987  1.2650
18390SOL    HW257709   5.690   1.287   5.031 -0.6798 -0.0402  0.1584
18391SOL     OW57710   0.696   6.155   0.895  0.1621  0.3579  0.0930
18391SOL    HW157711   0.652   6.205   0.826  2.2347  0.2962 -1.3104
18391SOL    HW257712   0.765   6.213   0.926  0.1725 -0.1925  1.1208
18392SOL     OW57713   1.265   1.562   8.496  0.1377 -0.3185 -0.1256
18392SOL    HW157714   1.250   1.488   8.554 -0.0651  1.0010  1.5658
18392SOL    HW257715   1.246   1.529   8.408 -1.4861 -1.8179  0.7578
18393SOL     OW57716   4.240   5.453   1.203 -0.4448 -0.1811  0.1963
18393SOL    HW157717   4.219   5.511   1.130 -0.5303  0.8922  1.0625
18393SOL    HW257718   4.168   5.390   1.205 -0.3216 -0.3583 -0.7856
18394SOL     OW57719   2.461   2.351  10.103 -0.1174  0.1089  0.2077
18394SOL    HW157720   2.452   2.272  10.156  0.5927  1.4947  2.4462
18394SOL    HW257721   2.545   2.388  10.130 -0.5849  1.7911 -0.6044
18395SOL     OW57722   3.225   9.720   5.299  0.6222 -0.3165 -0.4846
18395SOL    HW157723   3.295   9.728   5.364  2.1787  0.0540 -2.1837
18395SOL    HW257724   3.247   9.641   5.250  0.8835  0.8492 -2.2665
18396SOL     OW57725   6.780   1.519   4.049  0.2121 -0.3925 -0.3305
18396SOL    HW157726   6.856   1.487   4.001 -0.4413 -0.5034 -1.2818
18396SOL    HW257727   6.727   1.565   3.984 -1.3437 -1.6878  0.0059
18397SOL     OW57728   2.286   8.574   2.485 -0.0412  0.6346  0.2873
18397SOL    HW157729   2.365   8.527   2.460  0.2590  1.4078 -0.2407
18397SOL    HW257730   2.302   8.602   2.575  1.1504  2.5415 -0.4801
18398SOL     OW57731   8.017   3.004   8.352  0.1443 -0.0015  0.6884
18398SOL    HW157732   8.109   3.017   8.373  0.2700 -1.0464  0.8497
18398SOL    HW257733   7.978   2.976   8.435 -0.4124  0.8743  0.7301
18399SOL     OW57734   8.269   6.021   5.289 -0.5820 -0.2828 -0.1328
18399SOL    HW157735   8.277   6.023   5.384  0.7835  0.6152 -0.2458
18399SOL    HW257736   8.243   6.110   5.265  1.3540  0.1407 -0.7565
18400SOL     OW57737   5.528   0.088   5.832  0.0468  0.5470 -0.4889
18400SOL    HW157738   5.462   0.023   5.857  1.1587 -0.8533 -1.0965
18400SOL    HW257739   5.538   0.076   5.738  0.2137  1.6526 -0.6112
18401SOL     OW57740   2.360   5.633  10.041  0.1544  0.3238 -0.3491
18401SOL    HW157741   2.327   5.589   9.962 -0.6110 -0.2951  0.3075
18401SOL    HW257742   2.301   5.605  10.110  1.3210  0.2069  0.6121
18402SOL     OW57743   6.072   8.890   8.142  0.5007  0.2916  0.9010
18402SOL    HW157744   6.137   8.873   8.074 -0.4317  0.5672 -0.0792
18402SOL    HW257745   6.108   8.964   8.192  0.2846  1.3763 -0.5136
18403SOL     OW57746   1.033   7.908   7.396 -0.5056 -0.3601 -0.3639
18403SOL    HW157747   0.983   7.868   7.325  1.1495 -2.6149 -0.3229
18403SOL    HW257748   1.038   7.840   7.463  1.5873  0.2210  0.1140
18404SOL     OW57749   8.479   8.732   1.856 -0.1177 -0.2345  0.3866
18404SOL    HW157750   8.527   8.661   1.900  3.1378  2.1232  0.7744
18404SOL    HW257751   8.499   8.810   1.907 -0.2371  1.7152 -2.4515
18405SOL     OW57752   3.700   2.194   7.739 -0.1907 -0.3073  0.6641
18405SOL    HW157753   3.751   2.114   7.757  1.6770  0.1542 -2.1485
18405SOL    HW257754   3.766   2.263   7.736 -1.2409  0.6442 -1.0584
18406SOL     OW57755   4.232   3.373   1.874 -0.1876 -0.1655 -0.3347
18406SOL    HW157756   4.144   3.396   1.844  0.6923  1.0385 -2.0865
18406SOL    HW257757   4.290   3.404   1.805  1.8318  1.6143  2.0591
18407SOL     OW57758   0.689   7.054   3.764 -0.4611  0.0862  0.1075
18407SOL    HW157759   0.773   7.030   3.725  0.6675  2.2701  1.0615
18407SOL    HW257760   0.678   7.147   3.740 -2.0775  0.1091  0.9061
18408SOL     OW57761   2.265   4.296   3.828 -0.0824  0.5823  0.0813
18408SOL    HW157762   2.333   4.353   3.793 -0.1039  0.4513 -0.1827
18408SOL    HW257763   2.205   4.283   3.754  0.4196 -0.5327 -0.1556
18409SOL     OW57764   0.356   0.542   4.621  0.0100  0.3109 -0.1912
18409SOL    HW157765   0.378   0.632   4.594 -0.0067  0.9946  2.0050
18409SOL    HW257766   0.266   0.530   4.592 -0.1991  1.2310  0.0691
18410SOL     OW57767   6.406   0.363   1.747  0.5080 -0.2952 -0.0451
18410SOL    HW157768   6.376   0.453   1.734  3.3283  0.6074 -0.7179
18410SOL    HW257769   6.326   0.310   1.749 -1.1599  2.1716 -0.0240
18411SOL     OW57770   1.555   7.602   8.245  0.2097 -0.0196  0.3257
18411SOL    HW157771   1.602   7.659   8.306 -0.1142  1.8032 -1.0890
18411SOL    HW257772   1.505   7.542   8.301  0.5017  1.1251  1.8306
18412SOL     OW57773   2.602   5.962   8.976  0.2062  0.3621  0.6043
18412SOL    HW157774   2.614   6.001   9.062 -1.0992 -1.5323  1.6761
18412SOL    HW257775   2.507   5.954   8.966  0.3829 -0.6405 -0.4373
18413SOL     OW57776   7.251   3.399   1.346  0.5390 -0.0983  0.3424
18413SOL    HW157777   7.328   3.451   1.325 -0.1144  1.1751  1.0290
18413SOL    HW257778   7.177   3.457   1.329 -0.3984 -1.8523 -1.9904
18414SOL     OW57779   7.977   3.495   5.422 -0.3394 -0.4538  0.6809
18414SOL    HW157780   7.926   3.496   5.503  2.0750  3.2864  2.3022
18414SOL    HW257781   8.062   3.457   5.448  0.1862  0.0389 -0.2908
18415SOL     OW57782   3.923   8.587   3.051 -0.9211  0.1991 -0.4179
18415SOL    HW157783   3.981   8.589   3.127 -0.0025  0.1035 -1.1013
18415SOL    HW257784   3.922   8.495   3.024 -1.5902  0.1595 -0.2611
18416SOL     OW57785   5.427   5.880   1.072  0.2072 -0.0596 -0.5820
18416SOL    HW157786   5.486   5.806   1.057  0.1307 -0.2341 -0.0268
18416SOL    HW257787   5.370   5.851   1.144  0.1838  0.5426 -0.3597
18417SOL     OW57788   8.551   2.611   0.800  0.0291 -0.7258 -0.4471
18417SOL    HW157789   8.616   2.612   0.870 -0.6012 -1.4066  0.1551
18417SOL    HW257790   8.589   2.665   0.731  2.2458 -2.8560 -1.0010
18418SOL     OW57791   1.537   4.708   2.072  0.0682  0.3896  0.3230
18418SOL    HW157792   1.588   4.720   1.992 -1.9617 -0.3202 -1.1227
18418SOL    HW257793   1.450   4.744   2.051 -0.1631  1.2927  2.6175
18419SOL     OW57794   8.568   6.386   4.110  0.5596  0.3779  0.8117
18419SOL    HW157795   8.520   6.465   4.082  2.3572  0.3929 -2.5312
18419SOL    HW257796   8.657   6.417   4.126  1.1503 -0.8649 -0.0160
18420SOL     OW57797   3.363   1.918   0.999  0.1287  0.1315  0.5221
18420SOL    HW157798   3.384   1.833   1.038  0.3644 -0.1808 -0.2748
18420SOL    HW257799   3.274   1.936   1.029 -1.4443 -2.2323 -2.3763
18421SOL     OW57800   0.742   1.382   3.004 -0.0915 -0.1913 -0.3149
18421SOL    HW157801   0.837   1.392   3.012 -0.1417  3.1349 -2.8264
18421SOL    HW257802   0.708   1.410   3.089  1.0471  1.1308 -0.2783
18422SOL     OW57803   7.151   4.325   6.509  0.3207  0.1626  0.1321
18422SOL    HW157804   7.205   4.390   6.465 -0.6396 -0.3209 -1.8298
18422SOL    HW257805   7.172   4.243   6.466 -1.8377 -0.0480 -0.5753
18423SOL     OW57806   5.824   5.602   8.966 -0.5901  0.5691 -0.3387
18423SOL    HW157807   5.866   5.661   9.028 -1.6581  0.2303  0.7358
18423SOL    HW257808   5.891   5.537   8.945  0.0758  1.2313 -0.2878
18424SOL     OW57809   9.565   5.260   2.310  0.2111 -0.2803 -0.3024
18424SOL    HW157810   9.653   5.243   2.276 -0.3511  0.3748 -2.1892
18424SOL    HW257811   9.564   5.354   2.327 -0.3537 -0.1402 -1.0546
18425SOL     OW57812   4.883   6.035   8.295  0.2485 -0.0887 -0.4623
18425SOL    HW157813   4.970   5.993   8.294  0.2233 -0.1576 -2.6464
18425SOL    HW257814   4.821   5.962   8.299  0.2699  0.0114  3.0174
18426SOL     OW57815   0.228   3.978   1.590  0.1922  0.1396  0.3273
18426SOL    HW157816   0.133   3.989   1.583  0.0516 -0.4241  1.2777
18426SOL    HW257817   0.242   3.884   1.577  0.4175 -0.1021  2.1814
18427SOL     OW57818   3.133   4.005   4.272  0.5958  0.2344 -0.2741
18427SOL    HW157819   3.039   4.019   4.281  0.6055 -0.7981  1.9947
18427SOL    HW257820   3.150   3.928   4.326  2.4725 -0.6937 -2.1264
18428SOL     OW57821   7.475   3.641   9.973  0.2405  0.0448 -0.8250
18428SOL    HW157822   7.533   3.620   9.900 -0.1307  0.8857 -1.3698
18428SOL    HW257823   7.413   3.705   9.937  0.2650  0.7202  0.3017
18429SOL     OW57824   4.689   0.810   0.324  0.2704 -0.0118  0.6765
18429SOL    HW157825   4.654   0.865   0.255 -0.6694 -0.7654  0.5399
18429SOL    HW257826   4.638   0.833   0.402  0.2213 -0.3291  0.7389
18430SOL     OW57827   8.853   1.414   4.215  0.0269 -0.0270 -0.0505
18430SOL    HW157828   8.835   1.342   4.153  0.1895  1.7576 -2.2410
18430SOL    HW257829   8.934   1.453   4.183  0.0207  1.0509  1.2104
18431SOL     OW57830   9.585   2.169   1.819 -0.1186 -0.1246 -0.4138
18431SOL    HW157831   9.670   2.214   1.824  0.4373 -0.8441 -2.9137
18431SOL    HW257832   9.542   2.190   1.902  1.2506  2.7363 -0.3926
18432SOL     OW57833   0.060   0.185  10.079  0.5726 -0.4781 -0.0452
18432SOL    HW157834   0.008   0.222  10.150  0.1654 -1.7596  0.3497
18432SOL    HW257835   0.035   0.235  10.001  0.5382  0.4977  0.5919
18433SOL     OW57836   5.600   2.780   0.004 -0.1732 -0.1977 -0.0514
18433SOL    HW157837   5.513   2.761  -0.032 -0.3265 -1.2556  0.8376
18433SOL    HW257838   5.658   2.779  -0.071 -0.6438 -1.3948 -0.4101
18434SOL     OW57839   4.132   5.895   8.803  0.2373  0.1061  0.5127
18434SOL    HW157840   4.154   5.836   8.730 -0.2295 -2.7044  2.5628
18434SOL    HW257841   4.041   5.919   8.788  0.3933  0.2121 -0.2829
18435SOL     OW57842   9.407   5.316   0.890  0.1904 -0.0778  0.1043
18435SOL    HW157843   9.370   5.258   0.957  0.5008  0.0359  0.3734
18435SOL    HW257844   9.354   5.298   0.811 -0.8140  0.5074  0.6402
18436SOL     OW57845   5.769   3.781   0.945  0.2605 -0.5894 -0.3470
18436SOL    HW157846   5.836   3.712   0.953  0.2079 -0.5650  0.3308
18436SOL    HW257847   5.780   3.814   0.856  0.6151 -1.1389 -0.5151
18437SOL     OW57848   0.745   7.570   3.890 -0.3914  0.1618 -0.3390
18437SOL    HW157849   0.755   7.502   3.823  1.1592 -0.0771  0.1156
18437SOL    HW257850   0.781   7.648   3.849  0.4145  0.0514  0.1484
18438SOL     OW57851   6.835   3.686   6.742  0.4730 -0.7200 -0.3839
18438SOL    HW157852   6.800   3.776   6.742 -0.3924 -1.0458  0.8906
18438SOL    HW257853   6.852   3.667   6.834 -0.4713 -2.2952 -0.5190
18439SOL     OW57854   9.259   5.056   9.092 -0.3387  0.6102  0.0871
18439SOL    HW157855   9.190   5.015   9.145  0.8000  0.7812  1.7188
18439SOL    HW257856   9.221   5.139   9.064 -1.3491  0.0408 -0.2624
18440SOL     OW57857   1.475   9.136   5.751  0.4222 -1.0384 -0.2154
18440SOL    HW157858   1.458   9.201   5.819  0.1652 -0.1502 -1.1157
18440SOL    HW257859   1.436   9.055   5.785 -1.5592 -0.1133 -0.1995
18441SOL     OW57860   0.752   7.982   2.681  0.8029 -0.0351  0.3724
18441SOL    HW157861   0.815   7.943   2.621  1.1723  1.3358 -0.1469
18441SOL    HW257862   0.668   7.972   2.637  0.8454 -0.5437  0.4006
18442SOL     OW57863   2.122   2.467   0.890 -0.4069  0.1168  0.2088
18442SOL    HW157864   2.218   2.470   0.889 -0.4483  2.5251  0.2670
18442SOL    HW257865   2.101   2.419   0.970  0.7366  0.0916  0.5057
18443SOL     OW57866   0.125   5.957   2.782 -0.1883  0.1122  0.0432
18443SOL    HW157867   0.068   6.011   2.727 -0.3055  0.1029  0.1571
18443SOL    HW257868   0.105   5.867   2.756 -0.3494  0.1017  0.2075
18444SOL     OW57869   3.522   5.026   6.211  0.1445  0.7656  0.1935
18444SOL    HW157870   3.527   5.060   6.300  0.3647  1.2266  0.0081
18444SOL    HW257871   3.431   5.039   6.186 -0.1409 -0.2566  0.6994
18445SOL     OW57872   0.722   8.803   3.250  0.2087 -0.4537  0.3037
18445SOL    HW157873   0.801   8.795   3.304  1.7519 -0.5384 -1.9167
18445SOL    HW257874   0.736   8.883   3.199 -0.5465 -1.1875 -1.0634
18446SOL     OW57875   3.740   0.523   2.577  0.2813  0.0778  0.1381
18446SOL    HW157876   3.671   0.557   2.520 -0.0287 -1.3353 -0.3557
18446SOL    HW257877   3.793   0.599   2.599 -1.0144  1.0615 -0.0639
18447SOL     OW57878   8.372   3.859   6.517 -0.1049  0.3299 -0.2024
18447SOL    HW157879   8.294   3.876   6.571  0.3058  2.0074 -0.0976
18447SOL    HW257880   8.336   3.828   6.434 -0.8137 -0.6426  0.4625
18448SOL     OW57881   4.233   1.181   7.151  0.2111  0.1545 -0.5394
18448SOL    HW157882   4.320   1.215   7.129  0.0961  2.3397  2.2025
18448SOL    HW257883   4.239   1.155   7.242 -1.6207 -1.1209 -0.7538
18449SOL     OW57884   3.710   3.211   4.017  0.1171  0.7877  0.2321
18449SOL    HW157885   3.627   3.248   4.048  0.0503 -0.7591  1.9593
18449SOL    HW257886   3.689   3.170   3.934 -0.1003  3.3578 -1.0434
18450SOL     OW57887   6.489   3.862   1.625 -0.0645 -0.4313  0.4129
18450SOL    HW157888   6.488   3.811   1.706  0.8399 -0.2751  0.5291
18450SOL    HW257889   6.407   3.839   1.581 -1.0798  0.3073  1.8771
18451SOL     OW57890   2.686   9.481   1.049 -0.2374  0.3243 -0.5980
18451SOL    HW157891   2.635   9.442   0.978  0.4687  0.0914 -0.9838
18451SOL    HW257892   2.630   9.473   1.126 -1.5921  1.8584 -1.4009
18452SOL     OW57893   2.486   2.764   9.671 -0.1822 -0.5248  0.0284
18452SOL    HW157894   2.432   2.842   9.678  0.6087  0.0467 -0.1536
18452SOL    HW257895   2.497   2.751   9.576 -0.1450 -0.7419  0.0611
18453SOL     OW57896   8.705   9.730   2.367  0.0294  0.0270  0.3883
18453SOL    HW157897   8.779   9.742   2.307  1.1421  0.3582  1.7940
18453SOL    HW257898   8.731   9.656   2.422 -0.2460  0.7790  1.5469
18454SOL     OW57899   9.618   7.935   9.474 -0.1246  0.8124  0.7142
18454SOL    HW157900   9.549   7.964   9.534  0.7241  0.3233  1.9670
18454SOL    HW257901   9.579   7.865   9.423  0.0810 -0.9785  2.9489
18455SOL     OW57902   9.925   2.263   2.403  0.1987  0.0472  0.2654
18455SOL    HW157903   9.940   2.188   2.346 -0.1402 -0.0983  0.3672
18455SOL    HW257904   9.837   2.250   2.438 -0.1655  0.9077 -0.3290
18456SOL     OW57905   0.511   0.122   3.908 -0.0411 -0.1832 -0.0284
18456SOL    HW157906   0.460   0.111   3.987 -2.1138 -0.6702 -1.4023
18456SOL    HW257907   0.489   0.210   3.877  0.6463 -0.0478 -0.1508
18457SOL     OW57908   5.283   6.156   3.930 -0.2218  0.2311  0.3736
18457SOL    HW157909   5.362   6.105   3.912  1.1189  2.1738  0.5652
18457SOL    HW257910   5.286   6.227   3.865 -2.2371 -0.1346 -0.1326
18458SOL     OW57911   0.489   3.614   7.334 -0.3825  0.1642  0.2243
18458SOL    HW157912   0.514   3.672   7.406  0.4597 -0.4647  0.4453
18458SOL    HW257913   0.436   3.546   7.375  1.5398 -1.1833  0.5872
18459SOL     OW57914   6.353   0.772   3.378  0.0384  0.0829  0.2140
18459SOL    HW157915   6.324   0.855   3.417 -0.2733  0.2367 -0.3420
18459SOL    HW257916   6.281   0.746   3.321 -1.3928 -2.3481  2.9772
18460SOL     OW57917   7.425   8.642   8.565 -0.0191 -0.0426 -0.7439
18460SOL    HW157918   7.367   8.682   8.629  0.6678  0.3626 -0.3689
18460SOL    HW257919   7.465   8.569   8.611  3.0072  2.2117  0.4181
18461SOL     OW57920   1.165   5.884   6.164 -0.4757 -0.0621  0.1875
18461SOL    HW157921   1.143   5.934   6.086  0.6461  1.4568  0.8246
18461SOL    HW257922   1.121   5.930   6.235 -0.3622 -0.6319  0.6285
18462SOL     OW57923   6.942   6.461   3.382  0.1433 -0.4221 -0.0162
18462SOL    HW157924   6.922   6.469   3.289 -1.4651  0.2638  0.3605
18462SOL    HW257925   6.957   6.368   3.396  3.2477 -0.1973 -1.4878
18463SOL     OW57926  10.193   5.247   3.292 -0.2605 -0.7392 -0.1387
18463SOL    HW157927  10.139   5.238   3.370  0.5915  0.3745  0.5966
18463SOL    HW257928  10.166   5.175   3.235 -2.1493 -0.5020  0.4253
18464SOL     OW57929   3.594   9.183   9.006  0.3298 -0.0741  0.4698
18464SOL    HW157930   3.577   9.277   8.999  0.9716  0.1064  1.2449
18464SOL    HW257931   3.685   9.178   9.036  0.1826 -0.9322  0.7657
18465SOL     OW57932   8.900   1.370   9.918 -0.2770  0.0216 -0.3599
18465SOL    HW157933   8.975   1.366   9.859 -1.4356 -4.3007 -1.7136
18465SOL    HW257934   8.936   1.355  10.005  0.7676  0.8690 -0.6409
18466SOL     OW57935   6.167   5.839   4.497  0.7269 -0.1043  0.6787
18466SOL    HW157936   6.130   5.863   4.582 -0.4465 -0.3502  0.2427
18466SOL    HW257937   6.262   5.843   4.510  0.5698  1.7721  1.4751
18467SOL     OW57938   2.044   2.600   7.852  0.0367  0.5784  0.1413
18467SOL    HW157939   2.017   2.522   7.805  0.2039 -0.4840  1.7616
18467SOL    HW257940   2.020   2.673   7.795 -1.9606 -0.5581 -0.4925
18468SOL     OW57941   1.354   0.834   7.173  0.3781  0.6627 -0.5829
18468SOL    HW157942   1.268   0.831   7.130  0.2555  0.9429 -0.3537
18468SOL    HW257943   1.369   0.743   7.200  0.7140  0.3644 -1.7180
18469SOL     OW57944   3.378   2.741   3.996  0.3159  0.0513  0.4517
18469SOL    HW157945   3.415   2.775   4.078  0.3884  0.5292  0.2227
18469SOL    HW257946   3.292   2.782   3.990 -0.6896 -1.8289  1.4895
18470SOL     OW57947   8.228   9.480   8.726  0.2318  0.4405 -0.1458
18470SOL    HW157948   8.318   9.449   8.728 -0.7193 -2.5056 -1.1553
18470SOL    HW257949   8.199   9.473   8.817  0.9155  1.1215  0.1318
18471SOL     OW57950   4.032   8.370   5.979 -0.0704 -0.0724  0.1862
18471SOL    HW157951   4.073   8.328   6.053 -0.2011 -0.0892  0.2490
18471SOL    HW257952   3.967   8.429   6.018 -0.2211 -0.1692  0.0819
18472SOL     OW57953   5.431   8.177   0.067  0.1131 -0.2172 -0.3973
18472SOL    HW157954   5.342   8.211   0.079  0.3077  0.5910 -1.2341
18472SOL    HW257955   5.487   8.254   0.074  0.7753 -0.7585  0.3577
18473SOL     OW57956   0.062   5.321   4.432  0.2715 -0.5291  0.3616
18473SOL    HW157957   0.089   5.253   4.493  1.0836 -0.7295 -0.1956
18473SOL    HW257958   0.033   5.394   4.487  1.3437 -0.5672  0.9960
18474SOL     OW57959   0.576   3.000   9.674 -0.1502 -0.0005  0.1122
18474SOL    HW157960   0.612   3.071   9.621 -0.4566  0.6302  0.7468
18474SOL    HW257961   0.488   2.987   9.640  0.5548 -1.3666 -1.2656
18475SOL     OW57962   0.314   6.796   9.463 -0.4050 -0.6949  0.5518
18475SOL    HW157963   0.256   6.822   9.534  1.1276 -2.1347  2.3864
18475SOL    HW257964   0.256   6.772   9.391 -1.9671  1.2854  1.1300
18476SOL     OW57965   8.348  10.084   7.980 -0.0581  0.0867  0.4319
18476SOL    HW157966   8.370  10.152   7.916  0.9177 -0.7976 -0.1907
18476SOL    HW257967   8.269  10.043   7.945 -0.7944  1.0514  0.9365
18477SOL     OW57968   2.897   7.915   5.422 -0.5411  0.4467 -0.4024
18477SOL    HW157969   2.864   7.855   5.489 -0.6937  1.4076  0.3913
18477SOL    HW257970   2.828   7.980   5.411 -0.3782  0.4774 -1.2648
18478SOL     OW57971   1.295   8.265   6.603  0.1909  0.3592  0.0096
18478SOL    HW157972   1.368   8.204   6.591 -0.5156 -0.4141 -0.3478
18478SOL    HW257973   1.238   8.249   6.529  0.7075  2.4801 -0.8978
18479SOL     OW57974   4.924   1.157   1.161  0.2060  0.4359 -0.2669
18479SOL    HW157975   4.953   1.089   1.100  1.1087  0.9423 -0.4177
18479SOL    HW257976   4.979   1.233   1.140  0.9053  0.4515  1.5200
18480SOL     OW57977   9.437   8.945   3.030 -0.4451  0.2283 -0.3471
18480SOL    HW157978   9.468   8.961   2.941 -0.3098 -2.1756 -0.7648
18480SOL    HW257979   9.453   8.851   3.044 -1.2098  0.4224  1.9090
18481SOL     OW57980   5.745   3.115   3.235 -0.6742  0.1503 -0.1194
18481SOL    HW157981   5.779   3.088   3.320 -0.3849  0.8546 -0.0079
18481SOL    HW257982   5.796   3.193   3.213 -1.3112  0.4386 -0.5628
18482SOL     OW57983   7.443   4.547   6.083  0.2651  0.5501  0.3645
18482SOL    HW157984   7.402   4.611   6.025 -0.2218  0.6061  0.7721
18482SOL    HW257985   7.492   4.600   6.146 -0.1750  0.5237  0.7296
18483SOL     OW57986   1.586   4.814   6.057  0.0771 -0.1521  0.2582
18483SOL    HW157987   1.676   4.824   6.090 -0.7248 -0.5979  2.6577
18483SOL    HW257988   1.542   4.894   6.083 -0.4575 -0.3240 -0.1246
18484SOL     OW57989   3.649   0.286   5.114  0.5995  0.2297  0.1667
18484SOL    HW157990   3.657   0.290   5.019 -1.2168  0.1405 -0.0100
18484SOL    HW257991   3.621   0.196   5.132 -1.6478  0.9708  0.5493
18485SOL     OW57992   2.379   0.581   8.147  0.4002  0.2645  0.0604
18485SOL    HW157993   2.393   0.665   8.102 -2.1179  1.8981  2.2504
18485SOL    HW257994   2.446   0.579   8.215 -0.6011  1.3150  1.0975
18486SOL     OW57995   8.459   1.477   7.692  0.1698  0.0313 -0.1988
18486SOL    HW157996   8.419   1.559   7.721  0.0146  0.1898 -0.8655
18486SOL    HW257997   8.485   1.433   7.773  1.0481  1.1429  0.1296
18487SOL     OW57998   6.015   8.697   0.158  0.2320  0.3174 -0.3679
18487SOL    HW157999   5.953   8.735   0.220  1.2464 -0.7721  1.3570
18487SOL    HW258000   6.097   8.688   0.208  0.4508 -2.6790 -1.1531
18488SOL     OW58001   3.121   8.638   8.976  0.6014  0.4525  0.2880
18488SOL    HW158002   3.115   8.666   8.885 -0.9623  0.4019  0.3631
18488SOL    HW258003   3.083   8.550   8.977 -2.1215  1.6027  1.4771
18489SOL     OW58004   1.884   4.033   1.852 -0.0269  0.0667  0.9023
18489SOL    HW158005   1.942   3.988   1.791  0.9584  1.1351  1.0371
18489SOL    HW258006   1.828   3.964   1.888 -0.4648 -0.6133 -1.0233
18490SOL     OW58007   9.324   0.030   5.403 -0.5438  0.3224 -0.3054
18490SOL    HW158008   9.373  -0.052   5.401  0.4281  0.9141 -1.6797
18490SOL    HW258009   9.357   0.079   5.328 -1.3684  1.8257  0.3010
18491SOL     OW58010   7.492   5.303   3.326 -0.5185  0.3724  0.2770
18491SOL    HW158011   7.535   5.218   3.334 -2.8578 -0.9177 -0.1541
18491SOL    HW258012   7.542   5.361   3.384  0.9947 -1.3420  0.7446
18492SOL     OW58013   1.138   3.512   4.469  0.2698 -0.3985 -0.0458
18492SOL    HW158014   1.150   3.560   4.387  0.2615 -1.1770 -0.5083
18492SOL    HW258015   1.062   3.457   4.453 -0.5696  0.4393  0.9589
18493SOL     OW58016   6.901   0.385   7.390  0.1335 -0.0197  0.1303
18493SOL    HW158017   6.921   0.437   7.312  0.7807  1.4563  1.2433
18493SOL    HW258018   6.806   0.375   7.388  0.0005  1.1759 -0.1498
18494SOL     OW58019   4.014   2.713   3.832  0.1965 -0.2609  0.2422
18494SOL    HW158020   4.050   2.798   3.856  1.6402 -1.1995  1.5287
18494SOL    HW258021   4.036   2.702   3.739  1.1002  0.2335  0.3960
18495SOL     OW58022   8.090   3.239   9.500  0.4915 -0.1299 -0.0273
18495SOL    HW158023   8.138   3.290   9.565 -0.1999  0.2959  0.1561
18495SOL    HW258024   8.114   3.148   9.517  1.8984  0.1530 -0.4886
18496SOL     OW58025   6.153   0.845   6.738  0.7964 -0.5894 -0.1358
18496SOL    HW158026   6.087   0.795   6.785  0.0732  0.1863 -0.3136
18496SOL    HW258027   6.136   0.827   6.646  0.5638 -0.0558 -0.1975
18497SOL     OW58028   8.525   7.286   5.889 -0.1768  0.2991  0.2381
18497SOL    HW158029   8.466   7.329   5.950 -0.2444  1.0543 -0.3535
18497SOL    HW258030   8.546   7.353   5.824  0.1919 -0.3811 -0.3566
18498SOL     OW58031   8.146   2.814   3.857 -0.0734  0.0995 -0.3027
18498SOL    HW158032   8.218   2.833   3.916 -0.4505 -0.5766  0.3825
18498SOL    HW258033   8.187   2.773   3.780  0.2720 -0.3016  0.0965
18499SOL     OW58034  10.049   5.712   3.558 -0.2607 -0.2908  0.2178
18499SOL    HW158035   9.990   5.785   3.542 -0.9239 -0.6678  0.9511
18499SOL    HW258036  10.127   5.752   3.597 -0.7162 -0.0033  0.8275
18500SOL     OW58037   7.357   4.019   6.659 -0.1148 -0.1333 -0.6761
18500SOL    HW158038   7.389   4.070   6.734  0.4782 -2.1129  0.4618
18500SOL    HW258039   7.301   3.951   6.699 -2.5901  0.8803 -2.3146
18501SOL     OW58040   6.530   7.429   6.425 -0.0154  0.6997 -0.2055
18501SOL    HW158041   6.468   7.418   6.353  0.8743 -0.0097 -0.8688
18501SOL    HW258042   6.499   7.507   6.471 -0.4068  1.3395 -1.5385
18502SOL     OW58043   7.266   1.908   5.468  0.2364  0.1678  0.0470
18502SOL    HW158044   7.318   1.969   5.416 -0.2186 -0.4535 -1.1643
18502SOL    HW258045   7.183   1.900   5.421 -0.7675  0.7442  1.6823
18503SOL     OW58046   6.059   1.884   0.591 -0.0540  0.1065  0.1221
18503SOL    HW158047   5.989   1.822   0.570 -0.7151  0.0273  2.4441
18503SOL    HW258048   6.016   1.970   0.590  0.2269  0.2417 -0.2725
18504SOL     OW58049   2.338   8.127   7.216 -0.1698  0.5283  0.4731
18504SOL    HW158050   2.420   8.169   7.243  0.3487 -1.6087  2.3503
18504SOL    HW258051   2.290   8.114   7.298 -2.0149  0.9147 -0.5051
18505SOL     OW58052   7.258   8.610   9.963  0.1090 -0.0411  0.0341
18505SOL    HW158053   7.278   8.577  10.051  0.2234 -0.0216  0.0158
18505SOL    HW258054   7.337   8.656   9.936  1.4993 -3.1756 -1.5826
18506SOL     OW58055   9.035   2.584   6.915 -0.1116 -0.6122 -0.2009
18506SOL    HW158056   9.046   2.587   7.010  0.8090 -2.1531 -0.2394
18506SOL    HW258057   9.098   2.518   6.886 -1.2894 -1.0804 -1.7464
18507SOL     OW58058   2.291   0.593   2.358  0.5163  0.1382 -0.2465
18507SOL    HW158059   2.297   0.512   2.408  0.3398 -1.0485 -2.0899
18507SOL    HW258060   2.237   0.651   2.412  1.0167 -0.8080  1.2912
18508SOL     OW58061   8.557   8.360   8.186 -0.0383  0.3861 -0.1936
18508SOL    HW158062   8.485   8.337   8.244 -0.8348  1.6358 -0.6774
18508SOL    HW258063   8.609   8.280   8.180 -1.7234 -0.7111 -0.3452
18509SOL     OW58064   1.832   7.108   3.519  0.8195 -0.0088 -0.0977
18509SOL    HW158065   1.766   7.063   3.571  0.8518  0.3250  0.2387
18509SOL    HW258066   1.841   7.055   3.440 -0.0295  0.0870 -0.2621
18510SOL     OW58067   0.461   8.004   0.499  0.2525 -0.4901  0.1340
18510SOL    HW158068   0.538   8.014   0.554  0.2179 -0.9597  0.2731
18510SOL    HW258069   0.396   7.961   0.556  0.0555 -0.5423 -0.1272
18511SOL     OW58070   1.529   8.739   6.127  0.3957  0.0093  0.0784
18511SOL    HW158071   1.487   8.666   6.081  1.2800 -0.2598 -0.3278
18511SOL    HW258072   1.545   8.705   6.215 -0.0969  0.0608  0.1878
18512SOL     OW58073   3.841   7.786   9.142 -0.1306  0.0300  0.1456
18512SOL    HW158074   3.877   7.849   9.080  0.3984  0.2586  0.6843
18512SOL    HW258075   3.794   7.840   9.206  0.9119 -0.0539  1.0044
18513SOL     OW58076   0.742   1.386   4.707  0.0589  0.1569  0.5423
18513SOL    HW158077   0.767   1.444   4.779 -0.6183 -0.2726  1.1239
18513SOL    HW258078   0.825   1.364   4.664  0.4103  0.8490  0.8558
18514SOL     OW58079   5.964   9.474   0.631 -0.3297  0.1066  0.7535
18514SOL    HW158080   5.904   9.418   0.682  0.1807  1.0760  2.4728
18514SOL    HW258081   5.914   9.554   0.615 -1.0597 -0.8000 -1.7094
18515SOL     OW58082   9.811   1.758   0.375 -0.3520 -0.1744  0.2333
18515SOL    HW158083   9.814   1.852   0.394  0.0366  0.1151 -1.1921
18515SOL    HW258084   9.803   1.717   0.461 -0.6435  1.1632  0.8708
18516SOL     OW58085   4.817   7.181   2.543 -0.5378 -0.1176  0.0720
18516SOL    HW158086   4.811   7.172   2.448 -1.4941  2.5753 -0.1611
18516SOL    HW258087   4.910   7.198   2.559 -0.3506 -0.7095 -0.3407
18517SOL     OW58088   3.121   9.723   2.258 -0.4316  0.1000  0.6928
18517SOL    HW158089   3.181   9.750   2.189  0.1486  2.9095  2.2138
18517SOL    HW258090   3.176   9.674   2.320  0.0320  1.5098  1.4114
18518SOL     OW58091   1.391   9.063   2.336  0.2771  0.0642  0.3169
18518SOL    HW158092   1.312   9.097   2.295  0.3818  0.8611  0.7568
18518SOL    HW258093   1.463   9.103   2.288  0.4316 -1.1506 -0.4910
18519SOL     OW58094   7.238   8.133   0.380 -0.5731  0.5819 -0.2571
18519SOL    HW158095   7.288   8.052   0.374 -0.0789  0.8417  0.3171
18519SOL    HW258096   7.218   8.156   0.289 -1.0855 -0.4080 -0.3985
18520SOL     OW58097   0.746   5.218   6.711 -0.1583 -0.0878  0.6797
18520SOL    HW158098   0.814   5.256   6.655 -0.0229 -0.8100  0.3578
18520SOL    HW258099   0.764   5.254   6.798  1.3847 -1.2648  0.8499
18521SOL     OW58100   3.903   4.428   2.046 -0.5741 -0.8182 -0.9370
18521SOL    HW158101   3.977   4.489   2.048 -0.8065 -0.5562  1.5810
18521SOL    HW258102   3.941   4.345   2.018  0.4327 -0.3975 -0.8553
18522SOL     OW58103   6.995   2.226   6.072 -0.2196 -0.3615 -0.2102
18522SOL    HW158104   6.989   2.225   6.168  1.6484  0.4849 -0.0611
18522SOL    HW258105   7.047   2.148   6.051 -1.6650 -1.2238 -0.6336
18523SOL     OW58106   0.751   8.750   8.833  0.0238  0.1381  0.2690
18523SOL    HW158107   0.733   8.758   8.927 -0.7665 -0.7405  0.2015
18523SOL    HW258108   0.825   8.690   8.828  0.9698  1.2757  0.3909
18524SOL     OW58109   4.161   0.320   8.829  0.8265  0.2478  0.1839
18524SOL    HW158110   4.178   0.410   8.856 -0.5190  0.4327  0.4417
18524SOL    HW258111   4.204   0.312   8.744  1.7432  0.8454  0.5852
18525SOL     OW58112   8.525   5.028   0.881 -0.0843  0.3363  0.0238
18525SOL    HW158113   8.434   5.055   0.877  0.5629  2.5763 -0.1365
18525SOL    HW258114   8.574   5.101   0.844  1.9524  0.0805  2.0722
18526SOL     OW58115   4.895   0.314   4.498  0.0252  0.2972  0.4000
18526SOL    HW158116   4.855   0.273   4.575  0.4689 -1.7516 -0.4182
18526SOL    HW258117   4.826   0.316   4.433 -0.1096  1.2611  0.5596
18527SOL     OW58118   0.197   5.889   8.261  0.3063  0.0614  0.0676
18527SOL    HW158119   0.193   5.833   8.183 -2.7604  0.8245 -0.3937
18527SOL    HW258120   0.205   5.977   8.226  3.2863  0.0967  0.7619
18528SOL     OW58121   3.367   5.064   4.644  0.0466  0.0621 -0.1648
18528SOL    HW158122   3.368   4.975   4.678  2.0845 -0.9323 -2.7038
18528SOL    HW258123   3.358   5.119   4.721 -1.8487 -2.3431  1.3907
18529SOL     OW58124   1.511   8.156   4.884  0.2911  0.0526 -0.8219
18529SOL    HW158125   1.552   8.222   4.940 -1.0290  0.8167 -0.7468
18529SOL    HW258126   1.433   8.129   4.931 -0.9007  0.8042 -2.3452
18530SOL     OW58127   9.061   0.394   7.906  0.2252 -0.4217 -0.0589
18530SOL    HW158128   9.144   0.351   7.927  1.6539  2.0049 -0.5880
18530SOL    HW258129   9.061   0.403   7.811  0.0607  0.9769  0.0671
18531SOL     OW58130   0.347   5.110   8.796  0.7800 -0.2224  0.0953
18531SOL    HW158131   0.417   5.056   8.832 -0.8676 -2.0528  0.6808
18531SOL    HW258132   0.267   5.059   8.813 -0.8178  2.3635  0.5751
18532SOL     OW58133   3.065   4.337   6.718 -0.0247  0.0566  0.5347
18532SOL    HW158134   3.127   4.375   6.779  1.2054  0.3290 -0.8566
18532SOL    HW258135   3.114   4.269   6.672 -0.3875  1.0553 -1.3996
18533SOL     OW58136   2.022   7.882   3.452  0.3225  0.0057 -0.2536
18533SOL    HW158137   1.942   7.889   3.401 -0.6619 -0.7364  1.1477
18533SOL    HW258138   1.995   7.900   3.542  1.4666 -1.5427  0.4215
18534SOL     OW58139   3.412   3.941   3.233 -0.3468 -0.6124  0.6614
18534SOL    HW158140   3.332   3.972   3.276 -0.7267  2.2098 -1.9419
18534SOL    HW258141   3.483   3.969   3.291 -1.1189 -2.6483  2.7072
18535SOL     OW58142   0.322   8.130   5.607 -0.2401 -0.3101  0.1615
18535SOL    HW158143   0.374   8.050   5.607 -1.2238 -0.9541 -0.8082
18535SOL    HW258144   0.387   8.200   5.602  0.6356 -1.0265  1.2739
18536SOL     OW58145   1.490   3.708   8.807 -0.2470  0.1711  0.2323
18536SOL    HW158146   1.421   3.662   8.761 -1.1330  1.0236  0.6957
18536SOL    HW258147   1.557   3.641   8.824  0.4551 -0.0034 -2.9418
18537SOL     OW58148   3.437   1.725   1.430 -0.3115 -0.1497 -0.0110
18537SOL    HW158149   3.382   1.711   1.507 -1.0764  0.8702 -0.3568
18537SOL    HW258150   3.492   1.799   1.452 -0.0151 -0.3209 -0.1698
18538SOL     OW58151   4.474   3.061   1.594  0.2357 -0.0198  0.0758
18538SOL    HW158152   4.517   3.067   1.509  1.5108 -0.5661  0.6800
18538SOL    HW258153   4.386   3.095   1.578  0.1095 -1.1192 -1.6987
18539SOL     OW58154   6.544   3.703   5.307 -0.2807 -0.0129  0.3592
18539SOL    HW158155   6.470   3.696   5.366  0.0476 -0.2569  0.7389
18539SOL    HW258156   6.618   3.727   5.363  0.1867 -0.9697  0.1548
18540SOL     OW58157   2.302   5.931   0.305 -0.6403  0.1294  0.0702
18540SOL    HW158158   2.215   5.951   0.271 -0.4274  1.2655  0.1756
18540SOL    HW258159   2.293   5.936   0.400 -0.5509 -0.1024  0.0900
18541SOL     OW58160   0.952   8.226   1.886 -0.8317  0.5420  0.3527
18541SOL    HW158161   0.870   8.251   1.928 -1.7538 -0.1095 -1.0269
18541SOL    HW258162   0.958   8.131   1.897 -1.0390  0.3715 -0.8496
18542SOL     OW58163   8.102   5.557   2.153 -0.2029  0.0481 -0.1311
18542SOL    HW158164   8.161   5.624   2.186  0.3152 -1.2251  1.6505
18542SOL    HW258165   8.026   5.605   2.121 -0.8742  1.3682  3.2805
18543SOL     OW58166   3.723   4.152   6.046  0.0801 -0.7126  0.2085
18543SOL    HW158167   3.696   4.238   6.079  3.0250  0.2473  0.2220
18543SOL    HW258168   3.775   4.171   5.968  1.7743 -2.3954  0.8877
18544SOL     OW58169   8.703   8.132   5.111  0.5520  0.2977 -0.6269
18544SOL    HW158170   8.635   8.114   5.176  1.1583  1.2633  0.3064
18544SOL    HW258171   8.717   8.049   5.067  0.0856 -0.3642  0.4483
18545SOL     OW58172   8.355   2.826   5.129  0.0955  0.0755  0.0251
18545SOL    HW158173   8.416   2.752   5.128  1.5012  1.1696  1.5656
18545SOL    HW258174   8.345   2.847   5.222 -1.6197  0.7609 -0.2987
18546SOL     OW58175   2.684   0.821   3.636  0.0334 -0.0119 -0.0435
18546SOL    HW158176   2.707   0.816   3.729  0.5742 -1.2636 -0.2263
18546SOL    HW258177   2.617   0.753   3.624 -0.4434  0.5244 -0.4537
18547SOL     OW58178   4.331   7.089   2.782 -0.3085 -0.2114 -0.3594
18547SOL    HW158179   4.306   7.007   2.824  0.3248  0.2713  0.9744
18547SOL    HW258180   4.420   7.073   2.749 -0.3445 -0.1980 -0.4616
18548SOL     OW58181   7.855   5.420   9.008 -0.7450  0.5406 -0.0806
18548SOL    HW158182   7.874   5.355   8.941 -0.8207  0.1471  0.2836
18548SOL    HW258183   7.861   5.504   8.962 -0.5298  0.2852 -0.5173
18549SOL     OW58184   8.727   7.229   6.669  0.4155  0.3632  0.0621
18549SOL    HW158185   8.711   7.148   6.622  0.0407  0.8536 -0.6646
18549SOL    HW258186   8.695   7.298   6.611 -2.8318  0.8117  2.2395
18550SOL     OW58187   0.022   3.469   9.847  0.5048  0.5412  0.1122
18550SOL    HW158188  -0.001   3.456   9.940  1.2775  3.9325  0.8402
18550SOL    HW258189  -0.046   3.421   9.799 -0.0235 -1.0966  2.4002
18551SOL     OW58190   9.275   4.846   8.936  0.0247 -0.1245  0.0691
18551SOL    HW158191   9.279   4.933   8.976  1.3541 -0.0153 -0.2974
18551SOL    HW258192   9.361   4.808   8.952  0.1643 -0.5577 -1.6032
18552SOL     OW58193   0.628   8.748   2.632  0.4528 -0.3238 -0.0927
18552SOL    HW158194   0.656   8.759   2.723  0.3490 -0.7306 -0.0096
18552SOL    HW258195   0.533   8.736   2.639  0.6426 -1.9130 -0.1240
18553SOL     OW58196   9.188   7.428   1.380 -0.0291 -0.9320  0.1987
18553SOL    HW158197   9.148   7.341   1.374  2.5895 -2.2187  0.7226
18553SOL    HW258198   9.282   7.413   1.368  0.5127  1.7974  0.5605
18554SOL     OW58199   9.001   8.436   5.734 -0.2673  0.0268 -0.5118
18554SOL    HW158200   8.935   8.369   5.747 -0.6454  0.7322  1.4286
18554SOL    HW258201   8.975   8.507   5.794  1.7615  0.6519 -0.3282
18555SOL     OW58202   5.082   7.584   0.198 -0.2880 -0.6059 -0.0194
18555SOL    HW158203   4.989   7.579   0.220 -0.1614  0.6068  0.8323
18555SOL    HW258204   5.112   7.494   0.202 -1.2614 -0.9154  0.4407
18556SOL     OW58205   5.384   0.442   1.640 -0.4554 -0.3486  0.3744
18556SOL    HW158206   5.392   0.529   1.601 -2.0134 -0.5247 -0.3749
18556SOL    HW258207   5.472   0.406   1.635  0.4022  1.5016  1.4861
18557SOL     OW58208   6.751   2.620   7.437 -0.4558 -0.1535 -0.6740
18557SOL    HW158209   6.754   2.524   7.430  0.7190 -0.0112 -2.5451
18557SOL    HW258210   6.779   2.651   7.351  0.3318  1.8773  0.2749
18558SOL     OW58211   6.507   2.486   2.055  0.2193  0.1421  0.2369
18558SOL    HW158212   6.531   2.422   2.122 -0.7516  1.4405  1.8542
18558SOL    HW258213   6.591   2.526   2.029  0.7303 -1.1879 -0.1916
18559SOL     OW58214   1.265   5.368   1.088  0.0017  0.4205  0.4419
18559SOL    HW158215   1.277   5.453   1.046  0.5971  1.4554  2.6335
18559SOL    HW258216   1.174   5.370   1.120 -1.0961 -1.1228 -2.3547
18560SOL     OW58217   3.439   0.987   0.973  0.2265 -0.1656  0.3798
18560SOL    HW158218   3.466   1.056   1.033  0.0254  1.2876 -1.1744
18560SOL    HW258219   3.498   0.994   0.898  0.3732 -1.8526  0.3096
18561SOL     OW58220   7.278   8.046   3.741  0.2739 -0.3718 -0.3130
18561SOL    HW158221   7.284   8.132   3.700 -1.9952 -0.3169 -0.5495
18561SOL    HW258222   7.185   8.027   3.745  0.3757 -0.3702  4.8676
18562SOL     OW58223   8.370   7.052   2.043  0.1313 -0.6289  0.5985
18562SOL    HW158224   8.284   7.094   2.049  0.4035 -0.1147  0.9057
18562SOL    HW258225   8.368   6.984   2.110 -0.4196 -1.3198 -0.1005
18563SOL     OW58226   6.531   7.962   5.976 -0.3265 -0.2478  0.2918
18563SOL    HW158227   6.611   7.999   6.012  1.5760 -1.4537 -2.5071
18563SOL    HW258228   6.467   8.033   5.980  1.3934  1.2923  0.9156
18564SOL     OW58229   9.938   6.631   1.087 -0.4963  0.0096 -0.3219
18564SOL    HW158230  10.002   6.659   1.022 -1.4266  2.1665 -0.3381
18564SOL    HW258231   9.864   6.690   1.075 -1.8004 -1.3495  0.8461
18565SOL     OW58232   6.604   3.484   6.392  0.2523 -0.2593  0.7999
18565SOL    HW158233   6.601   3.570   6.433  1.4108  0.9913 -1.6091
18565SOL    HW258234   6.524   3.479   6.341  1.5241  0.6644 -1.3811
18566SOL     OW58235   0.177   2.475   8.875  0.2967 -0.6974 -0.3505
18566SOL    HW158236   0.108   2.512   8.930 -0.9867 -2.4885 -0.6957
18566SOL    HW258237   0.244   2.543   8.871 -1.0069  0.6911  0.8130
18567SOL     OW58238   7.935   7.028   6.396 -0.1679  0.0998  0.8088
18567SOL    HW158239   7.860   6.992   6.348  0.5433  1.3294 -1.3303
18567SOL    HW258240   7.995   6.955   6.406  0.2374  0.0815 -1.4134
18568SOL     OW58241   0.055   3.050   2.212 -0.0013  0.0260 -0.3543
18568SOL    HW158242  -0.008   2.979   2.200 -0.5090  0.5587 -0.9458
18568SOL    HW258243   0.036   3.085   2.299  1.1894 -1.4589  0.5136
18569SOL     OW58244   7.408   9.973   7.359  0.2929  0.0124  0.1400
18569SOL    HW158245   7.373   9.902   7.305  1.2362 -1.2242  1.1444
18569SOL    HW258246   7.396   9.944   7.449 -0.4796  1.6930  0.6112
18570SOL     OW58247   9.642   3.625   4.612  0.5302 -0.6090  0.8206
18570SOL    HW158248   9.556   3.622   4.569 -0.4598  0.0116  2.6805
18570SOL    HW258249   9.664   3.533   4.627  0.0874 -0.7674  0.5232
18571SOL     OW58250   9.982   5.241   0.281  0.5335 -0.0392  0.2106
18571SOL    HW158251  10.040   5.252   0.356  0.0859  0.5463  0.4848
18571SOL    HW258252   9.960   5.148   0.280 -0.5908  0.1890  1.6815
18572SOL     OW58253   8.740   3.133   6.052  0.3548  0.0880  0.1338
18572SOL    HW158254   8.707   3.214   6.093 -0.7024 -0.2611  0.0029
18572SOL    HW258255   8.692   3.063   6.097 -0.5587 -0.3194 -1.4448
18573SOL     OW58256   6.825   9.232   4.785  0.1009 -0.3444 -0.6205
18573SOL    HW158257   6.921   9.226   4.786  0.2670  1.9509 -1.4936
18573SOL    HW258258   6.805   9.306   4.729 -2.1678  0.0057  0.5609
18574SOL     OW58259   1.580   2.007   3.066  0.5512 -0.7217  0.2259
18574SOL    HW158260   1.587   1.935   3.004 -0.0161  0.3948 -1.1679
18574SOL    HW258261   1.491   2.041   3.054  1.0141  0.6086  0.4099
18575SOL     OW58262   9.085   8.727   8.875  0.2948 -0.0196 -0.0000
18575SOL    HW158263   9.152   8.784   8.913  1.9766 -2.0578  0.2271
18575SOL    HW258264   9.003   8.774   8.889  1.1599  0.6072  3.7138
18576SOL     OW58265   3.985   6.560   8.022 -0.2388  0.4697  0.0953
18576SOL    HW158266   4.065   6.607   8.046 -0.3941 -0.3410  2.2545
18576SOL    HW258267   4.016   6.474   7.993 -0.4019 -0.2516  2.0363
18577SOL     OW58268   7.429   9.704   0.511 -0.9202  0.4566  0.2613
18577SOL    HW158269   7.375   9.731   0.586 -0.3117  3.6307 -0.3658
18577SOL    HW258270   7.503   9.659   0.550 -1.8020 -0.0417  1.4086
18578SOL     OW58271   0.384   2.620   9.696 -0.5095 -0.8829 -0.4866
18578SOL    HW158272   0.465   2.637   9.746 -0.8444 -0.6632 -0.0174
18578SOL    HW258273   0.389   2.526   9.676  0.4478 -0.6268 -1.5071
18579SOL     OW58274   5.634   7.690   5.109  0.7760 -0.2539 -0.3700
18579SOL    HW158275   5.727   7.670   5.106  1.1332  1.5567 -2.1414
18579SOL    HW258276   5.628   7.784   5.092 -1.2474  0.0658  1.8715
18580SOL     OW58277   9.846   1.402   9.920  0.4010 -0.1644 -0.2574
18580SOL    HW158278   9.853   1.391  10.015  0.2528 -3.8852 -0.5966
18580SOL    HW258279   9.771   1.459   9.908 -0.1981 -0.4568  1.8521
18581SOL     OW58280   9.335   2.493   8.965  0.5650  0.0939  0.3547
18581SOL    HW158281   9.377   2.446   9.037 -0.3076  0.5313  1.1791
18581SOL    HW258282   9.377   2.579   8.965  1.2466 -0.2411 -0.2965
18582SOL     OW58283   3.357   2.906   7.114  0.1365  0.4007  0.7591
18582SOL    HW158284   3.288   2.847   7.081  0.1878 -1.0813  3.1898
18582SOL    HW258285   3.315   2.992   7.116 -1.4072 -0.3403  1.4634
18583SOL     OW58286   3.606   5.517  10.190 -0.1649 -0.8952 -0.0523
18583SOL    HW158287   3.514   5.501  10.212 -0.0909 -0.1020  0.8277
18583SOL    HW258288   3.645   5.429  10.185 -0.7410 -1.1860  0.5492
18584SOL     OW58289   3.077   0.161   4.573 -0.1362 -0.3874 -0.3378
18584SOL    HW158290   3.051   0.214   4.497 -0.0448  0.1993  0.0358
18584SOL    HW258291   3.162   0.197   4.598 -0.1151 -0.6585 -0.0245
18585SOL     OW58292   3.916   1.360   9.429  0.1476 -0.4830 -0.0859
18585SOL    HW158293   3.995   1.378   9.480  0.5261  1.5721 -1.3347
18585SOL    HW258294   3.863   1.303   9.485  1.1397  0.6285  2.0338
18586SOL     OW58295   2.823   0.318   4.030  0.2264  0.5796 -0.2865
18586SOL    HW158296   2.805   0.369   4.109  0.6273  1.0004 -0.4700
18586SOL    HW258297   2.742   0.324   3.978  0.2445  0.9442 -0.2682
18587SOL     OW58298   7.473   6.634   3.190  0.1269  1.0449 -0.2250
18587SOL    HW158299   7.492   6.549   3.151  0.9743  1.4190 -0.6246
18587SOL    HW258300   7.377   6.641   3.185  0.2288  1.2390 -2.5886
18588SOL     OW58301   1.684   1.200   9.201  0.6188 -0.2823  0.0996
18588SOL    HW158302   1.718   1.283   9.168  0.9458 -1.2543 -2.1087
18588SOL    HW258303   1.735   1.182   9.280 -0.3260  2.2144  1.3268
18589SOL     OW58304   8.569   0.615   6.380 -0.5836 -0.2268  0.2565
18589SOL    HW158305   8.529   0.684   6.433 -1.4389 -0.3846 -0.1737
18589SOL    HW258306   8.663   0.629   6.389 -0.6838 -0.7176  2.4407
18590SOL     OW58307   2.695   7.411   9.122  0.0162  0.2774  0.2476
18590SOL    HW158308   2.629   7.367   9.177  0.1546  1.3180  1.2443
18590SOL    HW258309   2.644   7.449   9.051 -0.3914  0.4975  0.6484
18591SOL     OW58310   4.052   2.261   4.521 -0.1748 -0.3118 -0.3888
18591SOL    HW158311   4.103   2.216   4.588  1.6352 -0.8411 -2.0502
18591SOL    HW258312   3.966   2.217   4.522  0.5325 -1.6983  0.1616
18592SOL     OW58313   7.453   3.726   5.560  0.3702  0.3740 -0.1224
18592SOL    HW158314   7.482   3.649   5.511  0.4687  0.6221 -0.4574
18592SOL    HW258315   7.358   3.714   5.569  0.2721  0.5638 -0.8129
18593SOL     OW58316   0.123   1.598   3.879  0.1102  0.0403  0.3567
18593SOL    HW158317   0.060   1.533   3.908  0.1342 -0.4955 -0.7575
18593SOL    HW258318   0.208   1.555   3.887  0.1499  0.0264 -0.1219
18594SOL     OW58319   6.170   1.971   7.065 -1.0561  0.3779  0.2764
18594SOL    HW158320   6.192   1.885   7.101  1.0624  0.6416 -0.3307
18594SOL    HW258321   6.252   2.003   7.026 -2.9159  0.6500 -3.6846
18595SOL     OW58322   9.852   2.253   4.683  0.4607  0.2867  0.2036
18595SOL    HW158323   9.927   2.302   4.649 -0.5717  1.0439 -1.0518
18595SOL    HW258324   9.814   2.311   4.748  1.9023 -0.7863  2.0621
18596SOL     OW58325   6.006   7.191   9.659 -0.1306  0.2177 -0.2934
18596SOL    HW158326   6.034   7.100   9.666  0.0222  0.3213  0.5122
18596SOL    HW258327   6.059   7.228   9.589 -0.5712 -0.4553 -0.9880
18597SOL     OW58328   4.321   8.099   5.761  0.2903  0.1919 -0.1886
18597SOL    HW158329   4.242   8.076   5.811 -0.1106 -0.5458 -1.1592
18597SOL    HW258330   4.319   8.195   5.757 -0.0699  0.2206  0.5734
18598SOL     OW58331   4.469   1.915   8.341  0.3180 -0.0952 -0.1010
18598SOL    HW158332   4.516   1.888   8.420  0.5543  1.7944  0.4053
18598SOL    HW258333   4.435   2.002   8.361 -1.8013 -0.6465 -1.1580
18599SOL     OW58334   4.307   2.855   2.979  0.6042 -0.2436 -0.5707
18599SOL    HW158335   4.233   2.886   2.926  0.0844 -0.3873  0.0683
18599SOL    HW258336   4.284   2.766   3.003  0.5993 -0.0090  0.3195
18600SOL     OW58337   0.991   9.591   6.946  0.2895 -0.6881 -0.2890
18600SOL    HW158338   0.993   9.685   6.927  2.1221 -0.7376 -0.4313
18600SOL    HW258339   0.959   9.551   6.866  0.5127 -0.2764 -0.5873
18601SOL     OW58340   1.689   0.213   1.494 -0.2438  0.1172 -0.2466
18601SOL    HW158341   1.768   0.183   1.450  0.6856  3.7908 -1.3111
18601SOL    HW258342   1.711   0.211   1.587  1.4980  1.9859 -0.5805
18602SOL     OW58343   1.530   9.485   2.867  0.1403 -0.2704  0.3586
18602SOL    HW158344   1.438   9.460   2.865 -0.1770  0.9426 -1.5468
18602SOL    HW258345   1.539   9.542   2.944 -0.6794 -0.4342  0.5778
18603SOL     OW58346   8.517   5.921   3.247  0.1229  0.4487  0.1920
18603SOL    HW158347   8.515   5.998   3.190 -0.3178  0.4800  0.2541
18603SOL    HW258348   8.454   5.940   3.316 -0.5759 -0.3111 -0.2267
18604SOL     OW58349   4.210   6.772   3.588 -0.1554 -0.2969 -0.0271
18604SOL    HW158350   4.148   6.837   3.620  1.9981  0.8305  2.0315
18604SOL    HW258351   4.255   6.816   3.515 -1.0939 -0.7612 -0.8921
18605SOL     OW58352   6.237   3.296   2.313 -0.2760 -0.4040 -0.2114
18605SOL    HW158353   6.224   3.237   2.239 -1.0227  1.6066 -1.7497
18605SOL    HW258354   6.331   3.314   2.314 -0.3792  0.2700 -1.2805
18606SOL     OW58355   3.285   7.468   2.514  0.2054 -0.3492  0.2533
18606SOL    HW158356   3.339   7.505   2.444 -0.4866  2.5706  1.2168
18606SOL    HW258357   3.195   7.481   2.485 -0.0937  1.1362  1.7808
18607SOL     OW58358   7.847   5.725   5.399 -0.3504 -0.0402  0.2124
18607SOL    HW158359   7.867   5.797   5.459 -2.1849 -0.5910  1.5038
18607SOL    HW258360   7.786   5.669   5.446  0.0829 -1.8168 -1.2442
18608SOL     OW58361   5.954   6.947   5.700 -0.0120 -0.1476 -0.2646
18608SOL    HW158362   6.025   7.003   5.670  0.2826  0.1222  0.9041
18608SOL    HW258363   5.997   6.872   5.740 -0.3686  0.0357  0.4853
18609SOL     OW58364   8.029   0.341   5.642 -0.2489 -0.1222  0.3849
18609SOL    HW158365   7.973   0.394   5.698  0.3647 -0.8047  1.6783
18609SOL    HW258366   8.079   0.404   5.590 -1.6918  0.4912 -0.2613
18610SOL     OW58367   5.116   0.719   7.240  0.5028  0.1928 -0.2365
18610SOL    HW158368   5.053   0.788   7.224  0.3571  0.6277  2.1264
18610SOL    HW258369   5.075   0.640   7.205 -0.9305  0.6462  0.4038
18611SOL     OW58370   3.743   5.189   2.172  0.5318  0.0271  0.4679
18611SOL    HW158371   3.685   5.174   2.247  0.1251  0.1196  0.1714
18611SOL    HW258372   3.734   5.282   2.153  0.5785 -0.0108  0.2562
18612SOL     OW58373  10.041   1.733   4.212  0.3507 -0.1053 -0.2441
18612SOL    HW158374  10.056   1.810   4.157  0.4747 -0.1785 -0.3098
18612SOL    HW258375   9.958   1.752   4.256  1.2526  0.8660  1.0974
18613SOL     OW58376   1.226   5.042   9.539  0.0521  0.0670 -0.1479
18613SOL    HW158377   1.311   5.065   9.576 -0.7539  0.2151  1.6644
18613SOL    HW258378   1.181   4.995   9.609 -0.9223 -1.0391 -1.4868
18614SOL     OW58379   4.560   5.226   2.085  0.0590  0.4915 -0.1247
18614SOL    HW158380   4.617   5.285   2.135  0.7522 -0.8717  0.7422
18614SOL    HW258381   4.609   5.144   2.081 -1.7427 -0.6520  0.4517
18615SOL     OW58382   9.586   4.160   2.451  0.1884  0.3649 -0.3565
18615SOL    HW158383   9.590   4.129   2.541  0.4686  0.0804 -0.4677
18615SOL    HW258384   9.515   4.224   2.451  1.5276  1.8726  0.5179
18616SOL     OW58385   6.522   8.984   6.817 -0.6949 -0.5294  0.4541
18616SOL    HW158386   6.472   8.945   6.890 -2.1122 -0.4781 -0.4627
18616SOL    HW258387   6.572   9.055   6.858 -3.1132  0.8916  1.0557
18617SOL     OW58388   6.832   4.930   3.185 -0.5760 -0.3098  0.3721
18617SOL    HW158389   6.773   4.939   3.110 -0.2427  0.2000  0.1674
18617SOL    HW258390   6.778   4.889   3.253 -0.7461 -1.1830 -0.2881
18618SOL     OW58391   6.370   7.574   5.111  0.2809  0.3259  0.1514
18618SOL    HW158392   6.285   7.529   5.107 -0.7318  2.2879 -1.5985
18618SOL    HW258393   6.407   7.564   5.023  2.1531 -0.9828  1.0538
18619SOL     OW58394   2.652   7.496   5.211 -0.0029 -0.4853 -0.4732
18619SOL    HW158395   2.723   7.558   5.227  2.7004 -2.9493 -2.4483
18619SOL    HW258396   2.610   7.528   5.131  0.6175 -0.4922 -0.8060
18620SOL     OW58397   7.416   1.574   0.859  0.1354  0.2227 -0.6193
18620SOL    HW158398   7.511   1.571   0.849  0.2075  0.7869 -0.0632
18620SOL    HW258399   7.401   1.625   0.938 -0.6584  0.7897 -1.1262
18621SOL     OW58400   1.284   1.273   0.122 -0.3912 -0.5667 -0.3288
18621SOL    HW158401   1.201   1.298   0.082 -0.4031 -0.2848 -0.1285
18621SOL    HW258402   1.350   1.321   0.073 -0.4307  0.0182  0.1885
18622SOL     OW58403   3.685   5.222   9.459 -0.1672  0.1923  0.1080
18622SOL    HW158404   3.606   5.264   9.493 -0.0326 -1.5221  2.6815
18622SOL    HW258405   3.755   5.285   9.474 -0.6275  0.6820  0.2043
18623SOL     OW58406   1.185   7.016   4.291 -0.0079  0.3369 -0.4100
18623SOL    HW158407   1.247   6.968   4.346 -0.4073 -0.5228 -0.6957
18623SOL    HW258408   1.110   7.032   4.347 -0.1066  0.1192 -0.4771
18624SOL     OW58409   1.009   9.962   0.978  0.3681  0.5342  0.4989
18624SOL    HW158410   0.936   9.903   0.963  0.4640 -0.0483  2.2737
18624SOL    HW258411   1.061   9.957   0.897  0.6705 -2.2130  0.8230
18625SOL     OW58412   1.813   5.842   1.027 -0.1912  0.3784  0.1532
18625SOL    HW158413   1.729   5.805   1.057 -0.2154  1.4561  1.4733
18625SOL    HW258414   1.793   5.933   1.007  0.7977  0.7984  1.0654
18626SOL     OW58415   0.657   6.484   9.581 -0.0970  0.3372 -0.1326
18626SOL    HW158416   0.607   6.498   9.501  0.2571  1.6662 -0.1299
18626SOL    HW258417   0.611   6.535   9.648  0.6167  0.6676  0.1150
18627SOL     OW58418   8.654   2.815   5.499 -0.0467 -0.1219  0.3512
18627SOL    HW158419   8.591   2.767   5.446  1.3291 -0.9512 -0.5470
18627SOL    HW258420   8.642   2.781   5.588  0.4779 -1.6786 -0.1599
18628SOL     OW58421   6.059   0.689   9.304 -0.2138  0.1776  0.0568
18628SOL    HW158422   5.965   0.698   9.291 -0.3373 -1.1380 -0.0111
18628SOL    HW258423   6.095   0.685   9.216 -0.4021 -2.2082  0.0458
18629SOL     OW58424   5.102   4.204   0.753  0.5827 -0.0574  0.5248
18629SOL    HW158425   5.151   4.213   0.834  1.4560 -1.6525  0.1911
18629SOL    HW258426   5.011   4.216   0.778  0.7340 -1.7557  1.9537
18630SOL     OW58427   6.852   7.668   5.779 -0.2913  0.2321  0.0372
18630SOL    HW158428   6.894   7.582   5.776  0.3060  0.4995  0.6047
18630SOL    HW258429   6.846   7.694   5.687  0.9712  0.2621 -0.0573
18631SOL     OW58430   6.746   5.598   9.686 -0.2713  0.0220  0.7257
18631SOL    HW158431   6.662   5.570   9.651 -1.3037  3.6213  0.0950
18631SOL    HW258432   6.746   5.694   9.676  2.3881  0.4842  3.9754
18632SOL     OW58433   1.976   1.947   0.332  0.0688  0.0079  0.1902
18632SOL    HW158434   1.938   2.020   0.381 -0.1422 -0.5423  0.8460
18632SOL    HW258435   1.905   1.916   0.276 -0.1498 -0.3571  0.6665
18633SOL     OW58436   7.725   3.449   4.634 -0.2155 -0.5029 -0.4053
18633SOL    HW158437   7.796   3.423   4.693 -1.0781 -1.0686  0.3959
18633SOL    HW258438   7.645   3.430   4.683 -0.9211  0.9104 -0.9680
18634SOL     OW58439   0.449   4.770   0.685  0.1049  0.4320  0.2113
18634SOL    HW158440   0.373   4.776   0.744  0.3559 -2.6117  0.9257
18634SOL    HW258441   0.414   4.794   0.599 -1.5055 -0.2360  0.6613
18635SOL     OW58442   5.581   1.544   3.937 -0.4860 -0.0672 -0.3823
18635SOL    HW158443   5.601   1.577   3.849 -0.3440 -2.8501 -1.4416
18635SOL    HW258444   5.492   1.511   3.931 -0.9713  0.9724  0.9190
18636SOL     OW58445   0.766   5.928   2.234  0.4997 -0.4061 -0.2757
18636SOL    HW158446   0.793   5.928   2.142  0.3161  1.6509 -0.3457
18636SOL    HW258447   0.816   5.856   2.274  1.9126 -0.1754 -1.5944
18637SOL     OW58448   4.081   7.398   6.071 -0.4537 -0.0195  0.2230
18637SOL    HW158449   4.104   7.309   6.045  1.1054  0.4700 -0.1397
18637SOL    HW258450   3.998   7.415   6.026  0.0423 -0.7324 -1.0058
18638SOL     OW58451   8.154   4.164   2.516 -0.3762  0.1004  0.4994
18638SOL    HW158452   8.249   4.155   2.521 -0.1508  2.9505  3.5926
18638SOL    HW258453   8.119   4.082   2.550  1.0187 -0.4551  0.5830
18639SOL     OW58454   7.300   5.236   0.253 -0.9310  0.0297 -0.0141
18639SOL    HW158455   7.332   5.279   0.331 -1.3886 -0.7486  0.6099
18639SOL    HW258456   7.375   5.235   0.193 -0.6157  0.7181  0.3753
18640SOL     OW58457   0.094   0.486   3.259 -0.1851  0.1155 -0.4189
18640SOL    HW158458   0.087   0.482   3.354  3.2262 -0.9333 -0.1521
18640SOL    HW258459   0.112   0.578   3.240 -1.5354  0.4464 -0.1235
18641SOL     OW58460   9.514   7.788   0.946 -0.8638  0.0135 -0.3830
18641SOL    HW158461   9.540   7.838   0.868 -0.5872  0.8875  0.2616
18641SOL    HW258462   9.434   7.831   0.976 -0.0096  0.7764  0.8248
18642SOL     OW58463   1.632   6.078   9.377 -0.3027 -0.3633 -0.1810
18642SOL    HW158464   1.543   6.046   9.363 -1.0918  1.0650  1.3663
18642SOL    HW258465   1.634   6.163   9.334  1.0077 -1.3383 -2.0984
18643SOL     OW58466   6.104   3.476   1.486  0.0767 -0.0441  0.1550
18643SOL    HW158467   6.194   3.444   1.486  0.3103  0.6130  1.1034
18643SOL    HW258468   6.074   3.462   1.396  1.0823 -0.3704 -0.1358
18644SOL     OW58469   5.720   8.058   2.035  0.1406 -0.5292  0.2786
18644SOL    HW158470   5.691   8.001   1.964  0.4084  0.4890 -0.6533
18644SOL    HW258471   5.675   8.024   2.113 -2.4283  0.1154 -0.8740
18645SOL     OW58472   7.192   7.511   5.493  0.5241 -0.4512  0.0967
18645SOL    HW158473   7.180   7.432   5.441  2.3609 -1.0513  0.5381
18645SOL    HW258474   7.177   7.482   5.584 -0.5303  0.1116  0.1138
18646SOL     OW58475   5.446   9.780   9.745  0.1619  0.1288  0.3895
18646SOL    HW158476   5.442   9.713   9.814 -1.7439 -0.2759 -0.0885
18646SOL    HW258477   5.498   9.741   9.676 -1.1655 -0.9774  0.0034
18647SOL     OW58478   6.201   5.157   2.725 -0.2499  0.2810  0.3677
18647SOL    HW158479   6.233   5.067   2.734  0.6770  0.6567  0.9017
18647SOL    HW258480   6.281   5.210   2.714 -0.7342  1.1408  0.9795
18648SOL     OW58481   9.038   2.860   6.226  0.3970 -0.5364  0.2271
18648SOL    HW158482   9.038   2.953   6.248 -0.9482 -0.2000 -1.1366
18648SOL    HW258483   9.013   2.816   6.308 -1.4228  0.4834  0.2461
18649SOL     OW58484   5.703   7.799   3.501  0.2948  0.0151  0.0708
18649SOL    HW158485   5.723   7.722   3.555  0.4970 -0.7458 -1.0864
18649SOL    HW258486   5.730   7.775   3.413  0.9432  1.6585 -0.1891
18650SOL     OW58487   2.051   0.064   3.588  0.5535 -0.0025  0.1112
18650SOL    HW158488   2.140   0.073   3.621  1.1399 -0.0615 -1.4516
18650SOL    HW258489   2.007   0.144   3.618  1.2367  0.2187  0.5372
18651SOL     OW58490   4.069   6.929   2.728 -0.2766 -0.1125  0.2007
18651SOL    HW158491   4.114   6.959   2.649  2.4469 -0.1110  1.7058
18651SOL    HW258492   4.005   6.997   2.747  1.1503  1.3885 -0.2721
18652SOL     OW58493   1.359   7.449   5.671 -0.2370 -0.4878  0.0693
18652SOL    HW158494   1.278   7.412   5.636  0.6802 -0.6678 -1.9164
18652SOL    HW258495   1.342   7.543   5.677 -0.4246 -0.4689 -0.7755
18653SOL     OW58496   6.726   6.099   3.171 -0.3615 -0.1493 -0.0513
18653SOL    HW158497   6.751   6.118   3.261  0.2300  0.1075 -0.2661
18653SOL    HW258498   6.665   6.169   3.147  1.9189  1.6523 -0.8895
18654SOL     OW58499   5.851   8.133   4.363 -0.1708  0.1483  0.5501
18654SOL    HW158500   5.901   8.154   4.442 -1.2553  0.6131  1.1273
18654SOL    HW258501   5.812   8.048   4.382  2.6761 -1.5609 -1.0287
18655SOL     OW58502   1.470   5.629   4.426  0.8775  0.1179 -0.8760
18655SOL    HW158503   1.376   5.617   4.415  0.6457  1.4130 -0.3873
18655SOL    HW258504   1.481   5.724   4.435  2.4164  0.1097 -2.5785
18656SOL     OW58505   2.811   7.872   7.089  0.1237 -0.1382 -0.6922
18656SOL    HW158506   2.867   7.797   7.105 -0.3581 -0.6201 -1.2425
18656SOL    HW258507   2.723   7.835   7.081 -0.1635  0.5205 -0.6090
18657SOL     OW58508   9.731   2.994   1.023  0.0886 -0.2086 -0.2635
18657SOL    HW158509   9.753   2.905   0.996  0.1001  0.1225 -1.3530
18657SOL    HW258510   9.667   3.023   0.959 -0.3350  0.3776  0.4154
18658SOL     OW58511   3.943   5.759   5.123 -0.0654  0.3354 -0.6017
18658SOL    HW158512   3.921   5.678   5.078 -0.8428  0.9653 -1.3596
18658SOL    HW258513   3.859   5.804   5.136  0.4283  1.3424 -0.8126
18659SOL     OW58514   4.798   8.486   7.155  0.0266  0.0827  0.3796
18659SOL    HW158515   4.807   8.571   7.199 -0.9446  0.2291  0.3062
18659SOL    HW258516   4.704   8.466   7.161 -0.0422 -0.1254 -1.1984
18660SOL     OW58517   6.441   6.485   8.040  0.1008 -0.5839 -0.1162
18660SOL    HW158518   6.425   6.555   8.103  1.9112 -0.0591 -0.2153
18660SOL    HW258519   6.386   6.508   7.964 -1.4294 -0.7730  0.9179
18661SOL     OW58520   4.161   9.395   0.169  0.0756  0.8423 -0.0251
18661SOL    HW158521   4.184   9.328   0.105  0.5785  2.2814 -1.3867
18661SOL    HW258522   4.227   9.386   0.238  0.3264  0.1525 -0.3499
18662SOL     OW58523   3.208   3.543   3.230 -0.4770  0.4959 -0.1404
18662SOL    HW158524   3.290   3.568   3.273 -0.6223  2.2196 -0.8472
18662SOL    HW258525   3.142   3.600   3.270 -1.7164 -2.2371  1.8713
18663SOL     OW58526   9.448   8.952   1.894 -0.7954 -0.2362 -0.2616
18663SOL    HW158527   9.357   8.974   1.916 -0.9831  0.3763 -1.6042
18663SOL    HW258528   9.441   8.870   1.845 -0.8041  0.7328 -1.9173
18664SOL     OW58529   4.234   1.080   0.714  0.0092  0.0278 -0.1744
18664SOL    HW158530   4.214   1.146   0.781 -0.8408 -0.6829  0.2972
18664SOL    HW258531   4.236   1.129   0.632 -0.6352  0.6489  0.1681
18665SOL     OW58532   8.590   7.541   0.899  0.3068  0.5447  0.2158
18665SOL    HW158533   8.670   7.592   0.911  0.1369  1.3071 -1.6840
18665SOL    HW258534   8.519   7.604   0.904  0.1755  0.7878 -3.4962
18666SOL     OW58535   0.359   1.144   2.324 -0.3815 -0.2423 -0.5619
18666SOL    HW158536   0.415   1.221   2.335  0.9866 -1.1983 -0.6087
18666SOL    HW258537   0.284   1.160   2.381  1.1382 -0.0270  1.4496
18667SOL     OW58538   4.599   7.072   2.648  0.6389  0.6366 -0.3275
18667SOL    HW158539   4.634   6.983   2.637 -0.5562  0.0610  0.4213
18667SOL    HW258540   4.670   7.129   2.618  1.3125 -0.5721 -1.1043
18668SOL     OW58541   1.301   9.926   7.686  0.0076  0.1669 -0.4184
18668SOL    HW158542   1.239   9.972   7.628 -0.7545  0.1192  0.3498
18668SOL    HW258543   1.355   9.875   7.626 -0.7711  0.1181 -1.1033
18669SOL     OW58544   2.969   0.636   8.229  0.2675  0.1270 -0.7533
18669SOL    HW158545   3.002   0.627   8.319  1.5021  0.7963 -1.1327
18669SOL    HW258546   3.032   0.693   8.186  0.0158 -0.6849 -2.2257
18670SOL     OW58547   1.687   7.354   3.091 -0.0958  0.0795 -0.3559
18670SOL    HW158548   1.719   7.364   3.001  1.0625 -0.3396  0.0054
18670SOL    HW258549   1.603   7.309   3.081  0.2183 -0.3310 -1.2101
18671SOL     OW58550   3.704   0.421   1.656 -0.0555  0.0135 -0.0992
18671SOL    HW158551   3.782   0.397   1.606  0.2562  0.4155  0.1957
18671SOL    HW258552   3.736   0.479   1.725 -0.2785 -1.5603  1.3674
18672SOL     OW58553   9.339   9.137   6.766 -0.0687  0.2828  0.1036
18672SOL    HW158554   9.406   9.113   6.702  0.7666  1.7889  0.3844
18672SOL    HW258555   9.371   9.102   6.849 -1.2780 -1.8947 -0.3141
18673SOL     OW58556   5.342   4.911   3.623 -0.5319  0.0515 -0.0991
18673SOL    HW158557   5.340   4.820   3.650 -0.1484  0.2030  0.4443
18673SOL    HW258558   5.339   4.908   3.527 -0.4051 -0.5338 -0.0845
18674SOL     OW58559   2.719   3.082   1.808  0.1528 -0.0229  0.1274
18674SOL    HW158560   2.705   3.092   1.903  0.6718  3.0968 -0.0643
18674SOL    HW258561   2.811   3.106   1.795  0.3004 -1.2274 -1.0809
18675SOL     OW58562   7.082   0.528   8.917 -0.3463  0.7639 -0.6020
18675SOL    HW158563   7.174   0.509   8.932 -0.8851 -1.4327  0.0510
18675SOL    HW258564   7.077   0.624   8.918  1.8250  0.8985 -0.1266
18676SOL     OW58565   9.412   9.945   7.932  0.2908  0.4455 -0.4168
18676SOL    HW158566   9.459   9.973   8.011  0.8772  0.4221 -0.7580
18676SOL    HW258567   9.421  10.019   7.871 -1.4134  1.0849  0.0524
18677SOL     OW58568   8.617   6.903   9.490 -0.1892  0.0903  0.0670
18677SOL    HW158569   8.667   6.876   9.566  2.0317  0.6885 -1.1461
18677SOL    HW258570   8.610   6.824   9.436  1.3879  0.5068 -0.7906
18678SOL     OW58571   7.263   2.468   6.282 -0.3277 -0.1032  0.5041
18678SOL    HW158572   7.201   2.534   6.251  1.7088  1.4435 -0.3572
18678SOL    HW258573   7.292   2.423   6.203  0.0672 -0.4286  0.8318
18679SOL     OW58574   6.590   0.276   0.389  0.0843 -0.1767  0.2415
18679SOL    HW158575   6.649   0.279   0.313 -1.2037  0.9789 -0.7412
18679SOL    HW258576   6.576   0.368   0.411 -1.1202 -0.4576  0.6534
18680SOL     OW58577   0.216   6.493   7.161  0.5026  0.1122 -0.0071
18680SOL    HW158578   0.305   6.520   7.185  0.3893  1.1189 -0.6998
18680SOL    HW258579   0.159   6.540   7.222  0.3306  1.1157 -0.9288
18681SOL     OW58580   3.752   3.744   7.914 -0.1447 -0.4438  0.0696
18681SOL    HW158581   3.780   3.802   7.985 -0.4612 -1.2394  0.8571
18681SOL    HW258582   3.804   3.771   7.839  0.4515  0.1733  0.6981
18682SOL     OW58583   8.408   5.352   1.158  0.2985  0.1608  0.3361
18682SOL    HW158584   8.346   5.279   1.162 -0.3602  0.7768  1.8725
18682SOL    HW258585   8.354   5.429   1.143  0.6027  0.7802  2.2441
18683SOL     OW58586   3.728   3.879   6.059  0.0657 -0.4486 -0.7265
18683SOL    HW158587   3.744   3.973   6.064 -2.6211 -0.0387  0.8244
18683SOL    HW258588   3.677   3.867   5.979  0.6768 -0.6429 -1.0922
18684SOL     OW58589   2.823   1.231   4.627  0.3559 -0.4050 -0.2356
18684SOL    HW158590   2.864   1.147   4.607 -3.4001 -2.1863 -0.7777
18684SOL    HW258591   2.783   1.259   4.544 -0.4307  0.7744  0.5174
18685SOL     OW58592   5.545   5.223   6.052  0.2693 -0.5288 -0.5275
18685SOL    HW158593   5.540   5.314   6.082  0.5234 -0.7409  0.1703
18685SOL    HW258594   5.454   5.193   6.051  0.2771 -0.6023  0.3114
18686SOL     OW58595   3.954   9.698   6.836  0.7549 -0.5273  0.0103
18686SOL    HW158596   3.953   9.633   6.907  2.6659 -2.9495 -2.1099
18686SOL    HW258597   4.043   9.733   6.838  0.2697  0.7037 -0.0481
18687SOL     OW58598   4.607   7.708   7.785  0.2869  0.2157  0.0534
18687SOL    HW158599   4.685   7.667   7.748  0.3215 -0.6287  1.0623
18687SOL    HW258600   4.550   7.723   7.709 -0.2765 -2.8641 -0.2102
18688SOL     OW58601   1.785   0.264   2.838 -0.3605 -0.4482  0.0740
18688SOL    HW158602   1.699   0.304   2.850  0.0211  0.3943  0.0469
18688SOL    HW258603   1.818   0.300   2.756  0.3887 -0.0871  0.5271
18689SOL     OW58604   2.736   3.025   4.370 -0.1811  0.1111 -0.0942
18689SOL    HW158605   2.826   2.993   4.370 -0.1457  0.2023 -1.4470
18689SOL    HW258606   2.742   3.114   4.406  0.3048  0.2071 -0.4086
18690SOL     OW58607   9.941   2.537   4.972 -0.3373  0.5209 -0.1554
18690SOL    HW158608   9.889   2.511   4.897  0.7693 -0.7830 -0.4828
18690SOL    HW258609   9.879   2.582   5.030 -1.4329  0.5078 -1.3015
18691SOL     OW58610   6.020   1.197   7.366 -0.5391 -0.1779 -0.0762
18691SOL    HW158611   6.091   1.236   7.315 -1.1534 -1.4315 -1.9431
18691SOL    HW258612   6.063   1.128   7.417 -0.5342 -1.6055 -1.9513
18692SOL     OW58613   4.706   0.069   0.058  0.3587 -0.0534 -0.0606
18692SOL    HW158614   4.742   0.083   0.146  1.2279 -0.2280 -0.3786
18692SOL    HW258615   4.750   0.135   0.004  0.3193 -0.3771 -0.4860
18693SOL     OW58616   5.974   7.947   9.400  0.4117  0.1072 -0.0423
18693SOL    HW158617   5.979   7.866   9.350  0.1566  0.2294 -0.2685
18693SOL    HW258618   6.062   7.960   9.434  0.5671 -0.0113 -0.4049
18694SOL     OW58619   8.221   1.184   9.983 -0.5092  0.1966  0.3465
18694SOL    HW158620   8.254   1.202  10.070  1.3606 -1.3796 -0.0161
18694SOL    HW258621   8.148   1.123   9.997 -1.2262  1.1690  0.9050
18695SOL     OW58622   2.329   7.490   1.599 -0.7355  0.5152  0.1375
18695SOL    HW158623   2.300   7.399   1.606  1.1956 -0.0761  0.7745
18695SOL    HW258624   2.343   7.518   1.689  1.6319  0.4294 -0.1656
18696SOL     OW58625   5.140   1.487   2.262  0.2048 -0.1029  0.5569
18696SOL    HW158626   5.048   1.511   2.247 -0.6263 -1.6371  2.8990
18696SOL    HW258627   5.145   1.396   2.234  0.6895 -0.4266  1.7109
18697SOL     OW58628   4.591   8.159   4.286  0.4020 -0.3941  0.4478
18697SOL    HW158629   4.567   8.160   4.193  0.3830 -0.3580  0.4529
18697SOL    HW258630   4.669   8.104   4.290  1.1480  0.6179  0.2194
18698SOL     OW58631   7.104   3.656   9.931 -0.4265  0.0063  0.0703
18698SOL    HW158632   7.076   3.583   9.987  1.3864  0.7073  1.9361
18698SOL    HW258633   7.033   3.720   9.937  0.0085  0.3151  2.0451
18699SOL     OW58634   0.211   1.787   3.570  0.3351 -0.8613  0.3133
18699SOL    HW158635   0.272   1.822   3.635 -0.4395  0.7115  0.2292
18699SOL    HW258636   0.263   1.724   3.520  1.6619 -0.1634  0.7882
18700SOL     OW58637   8.378   5.469   8.250 -0.4228 -0.4244 -0.6026
18700SOL    HW158638   8.460   5.472   8.200  0.1259  2.5049  0.3614
18700SOL    HW258639   8.400   5.419   8.329  0.0437 -0.8393 -0.9891
18701SOL     OW58640   9.486   0.892   5.679  0.3372  0.0569  0.0627
18701SOL    HW158641   9.529   0.954   5.620  0.3694 -1.2846 -1.3482
18701SOL    HW258642   9.471   0.942   5.759  0.8579  1.7286 -0.8583
18702SOL     OW58643   4.839   2.135   1.760  0.0472 -0.7045  0.2099
18702SOL    HW158644   4.905   2.072   1.789 -0.3672 -1.5464 -0.6686
18702SOL    HW258645   4.824   2.190   1.837  2.1024 -0.2045  0.2781
18703SOL     OW58646   2.153   8.469   9.216  0.1648  0.2612  0.3986
18703SOL    HW158647   2.143   8.388   9.166  1.1481 -0.2020  0.9212
18703SOL    HW258648   2.231   8.511   9.179  0.3596  0.3677  0.9217
18704SOL     OW58649   9.581   9.015   3.423 -0.2490 -0.1145 -0.3638
18704SOL    HW158650   9.571   9.043   3.331  1.3527 -1.1927 -0.8843
18704SOL    HW258651   9.675   9.003   3.434 -0.5113 -0.8079  1.1922
18705SOL     OW58652   5.898   9.426   0.326 -0.1409 -0.2120  0.7010
18705SOL    HW158653   5.880   9.510   0.369 -1.4249  0.4493 -1.0341
18705SOL    HW258654   5.815   9.379   0.332  0.6785 -1.5253  1.9745
18706SOL     OW58655   4.208   8.748   4.982 -0.1815  0.4597 -0.4016
18706SOL    HW158656   4.192   8.828   5.032 -0.4292 -1.5587  2.8930
18706SOL    HW258657   4.128   8.736   4.930 -1.4720  0.6503  1.5138
18707SOL     OW58658   8.378   5.026   2.081 -0.4467  0.4809  0.1412
18707SOL    HW158659   8.422   5.047   1.999 -1.8841  0.6571 -0.5966
18707SOL    HW258660   8.440   5.054   2.149  0.4390  1.0236 -0.8706
18708SOL     OW58661   8.370   1.111   6.295  0.6792 -0.0439  0.2699
18708SOL    HW158662   8.403   1.168   6.227 -0.1064  1.9269  1.4810
18708SOL    HW258663   8.442   1.102   6.357  1.4209 -1.8990 -0.8063
18709SOL     OW58664   8.271   2.440   1.908  0.4736 -0.0577  0.3509
18709SOL    HW158665   8.210   2.474   1.973  2.2602  2.3547  0.8330
18709SOL    HW258666   8.269   2.504   1.837  0.2618 -1.4828 -0.9767
18710SOL     OW58667   6.425   9.350  10.122 -0.0933  0.1627  0.4211
18710SOL    HW158668   6.372   9.428  10.140  0.6784  1.0641 -1.0987
18710SOL    HW258669   6.441   9.353  10.028  2.2397 -0.3584  0.7677
18711SOL     OW58670   5.281   1.609   1.322  0.2171  0.0610 -0.1857
18711SOL    HW158671   5.200   1.559   1.333 -0.1735  0.8270  0.5592
18711SOL    HW258672   5.258   1.678   1.259  0.4409 -0.0615 -0.3977
18712SOL     OW58673   7.167   9.873   0.905 -0.0200 -0.7137  0.0721
18712SOL    HW158674   7.146   9.909   0.818  0.0117 -1.6678 -0.3277
18712SOL    HW258675   7.099   9.910   0.962  0.6040  0.8065 -0.1336
18713SOL     OW58676   8.507   4.442   9.274  0.2728 -0.1953 -0.1607
18713SOL    HW158677   8.487   4.355   9.308  0.8935 -0.2068  0.1657
18713SOL    HW258678   8.514   4.497   9.352 -0.8777  0.3146 -0.4002
18714SOL     OW58679   8.766   4.964   7.839  0.4407  0.3437 -0.6408
18714SOL    HW158680   8.752   4.907   7.764  2.0761 -0.7312 -0.1343
18714SOL    HW258681   8.772   4.905   7.914  0.0723  1.3285  0.1792
18715SOL     OW58682   5.839   8.265   9.580  0.2297  0.1213 -0.1807
18715SOL    HW158683   5.806   8.191   9.529  0.0244  0.3917 -0.4432
18715SOL    HW258684   5.852   8.230   9.668 -0.2843 -0.1184 -0.1984
18716SOL     OW58685   9.288   4.213   5.345 -1.0676 -0.3900  0.1992
18716SOL    HW158686   9.202   4.228   5.306 -0.7681 -3.9013 -2.0486
18716SOL    HW258687   9.272   4.152   5.417 -0.6322  0.2741  0.8761
18717SOL     OW58688   4.016   7.767   4.602 -0.2704 -0.2297 -0.4777
18717SOL    HW158689   3.972   7.818   4.534 -0.1978 -0.3097 -0.5844
18717SOL    HW258690   3.945   7.723   4.649 -0.2274 -1.4555 -1.5171
18718SOL     OW58691   3.142  10.088   4.728 -0.4179 -0.8002  0.7689
18718SOL    HW158692   3.105  10.089   4.816  1.8531 -1.9064  1.7860
18718SOL    HW258693   3.067  10.088   4.670 -1.9636 -0.8452  2.7250
18719SOL     OW58694   9.835   5.814   9.476 -0.1205 -0.1106 -0.1746
18719SOL    HW158695   9.907   5.820   9.413 -0.4643  0.3572 -0.5276
18719SOL    HW258696   9.876   5.780   9.555  0.3851 -0.3689 -0.5431
18720SOL     OW58697   5.990   7.488   0.075  0.2288 -0.5353 -0.0620
18720SOL    HW158698   6.015   7.400   0.048 -0.5993 -0.7931 -0.0200
18720SOL    HW258699   5.968   7.479   0.168  0.2471 -0.2661 -0.0317
18721SOL     OW58700   3.753   3.027   7.111  0.2038  0.5117 -0.6586
18721SOL    HW158701   3.686   2.965   7.083 -2.1243  1.8137  1.8032
18721SOL    HW258702   3.826   2.972   7.139 -0.6302 -1.0060 -1.4050
18722SOL     OW58703   2.534   8.805   3.247 -0.0283 -0.4522  0.2273
18722SOL    HW158704   2.604   8.769   3.301  1.5941  2.3406  0.0625
18722SOL    HW258705   2.516   8.736   3.183  1.4257 -1.8517  1.2670
18723SOL     OW58706   1.526   6.495   7.214 -0.2912  0.2519 -0.3161
18723SOL    HW158707   1.603   6.442   7.236  0.0667 -0.6146 -3.3854
18723SOL    HW258708   1.557   6.586   7.222  0.4171 -0.0595  0.5820
18724SOL     OW58709   3.142   0.653   8.862 -0.7559 -0.7258  0.4706
18724SOL    HW158710   3.146   0.724   8.926 -0.2636 -1.0309  0.7747
18724SOL    HW258711   3.048   0.638   8.849 -0.8513 -0.8689  1.3377
18725SOL     OW58712   9.871   0.348   6.986  0.3280 -0.1212 -0.3027
18725SOL    HW158713   9.910   0.357   7.073  0.2769 -1.1081 -0.1774
18725SOL    HW258714   9.793   0.402   6.989  0.2685 -0.2376  0.2998
18726SOL     OW58715   8.194   8.623   3.466  0.1793 -0.1740 -0.1058
18726SOL    HW158716   8.180   8.542   3.515  0.2031  0.0895  0.3469
18726SOL    HW258717   8.286   8.646   3.483  0.6968 -0.9953 -1.6856
18727SOL     OW58718   4.365   4.393   1.419 -0.4924 -0.1392 -0.5164
18727SOL    HW158719   4.444   4.410   1.471  0.6661 -0.0939 -2.2685
18727SOL    HW258720   4.309   4.469   1.436 -0.9977 -1.0550  2.2142
18728SOL     OW58721   3.749   6.408   5.210  0.3984  0.6345  0.9622
18728SOL    HW158722   3.774   6.334   5.155  1.9641  0.7128  1.5687
18728SOL    HW258723   3.831   6.449   5.234 -0.4856  3.3456 -0.4049
18729SOL     OW58724   1.097   6.360   1.362  0.7038  0.2161  1.0718
18729SOL    HW158725   1.136   6.445   1.379  1.4934 -0.3155  1.9982
18729SOL    HW258726   1.003   6.375   1.368  0.7368  1.5274 -1.2900
18730SOL     OW58727   6.298   5.683   8.290  0.3532  0.0069  0.3276
18730SOL    HW158728   6.254   5.599   8.277 -0.2091  0.5803 -1.6229
18730SOL    HW258729   6.386   5.670   8.254  0.5949 -0.0277  0.9162
18731SOL     OW58730   7.263   3.000   2.596  0.5647 -0.4982 -0.2565
18731SOL    HW158731   7.270   2.908   2.622  0.1153 -0.7070 -0.8694
18731SOL    HW258732   7.305   3.048   2.668 -0.0765 -1.1108  0.5370
18732SOL     OW58733   5.977   4.279   5.520  0.3110  0.1290  0.5157
18732SOL    HW158734   6.007   4.330   5.444  1.6304 -1.4252 -0.0341
18732SOL    HW258735   5.893   4.243   5.492  0.9279 -0.6818 -0.3599
18733SOL     OW58736   4.830   7.204   6.126 -0.0154  0.0685 -0.6666
18733SOL    HW158737   4.912   7.211   6.077  1.1736 -0.8742  1.1520
18733SOL    HW258738   4.854   7.222   6.217 -1.5564 -1.5767  0.0993
18734SOL     OW58739   6.857   8.882   7.754  0.0693  0.1946  0.5296
18734SOL    HW158740   6.913   8.941   7.704  1.5826 -1.6415  0.0070
18734SOL    HW258741   6.913   8.807   7.776 -2.5905 -2.5470 -1.5277
18735SOL     OW58742   2.585   4.195   4.486 -0.3475  0.5951 -0.0715
18735SOL    HW158743   2.625   4.274   4.521 -0.5106  0.7271 -0.1865
18735SOL    HW258744   2.566   4.142   4.564  0.0901  0.5117 -0.0194
18736SOL     OW58745   7.182   5.226   4.023  0.1824 -0.0310 -0.2022
18736SOL    HW158746   7.242   5.298   4.003 -0.3775  0.2827 -0.7216
18736SOL    HW258747   7.238   5.162   4.069  0.1011  1.9158  2.7881
18737SOL     OW58748   2.764   2.689   2.692 -0.6478  0.2685  0.3079
18737SOL    HW158749   2.747   2.778   2.663  1.9282  0.4620 -0.7159
18737SOL    HW258750   2.776   2.696   2.787 -2.2161  0.7231  0.4696
18738SOL     OW58751   1.448   9.454   9.959  0.3740 -0.2020  0.7571
18738SOL    HW158752   1.455   9.366   9.995  1.9373 -0.6150 -0.5197
18738SOL    HW258753   1.480   9.511  10.029  0.9027 -0.7885  1.0002
18739SOL     OW58754   7.317   4.544   5.725  0.5108  0.4560 -0.2158
18739SOL    HW158755   7.287   4.496   5.647 -0.4752  1.2513 -0.3441
18739SOL    HW258756   7.254   4.519   5.793  1.1029  0.1193  0.2086
18740SOL     OW58757   1.738   6.248   9.199  0.0235 -0.8669  0.0703
18740SOL    HW158758   1.739   6.344   9.200  1.5189 -0.8709 -0.3990
18740SOL    HW258759   1.702   6.225   9.114 -0.8615 -0.7365  0.3974
18741SOL     OW58760   6.531   5.789   7.589  0.0102 -0.3143 -0.1467
18741SOL    HW158761   6.561   5.726   7.524  1.8364 -0.6020  0.9438
18741SOL    HW258762   6.440   5.807   7.565 -0.2649 -2.7119 -0.9739
18742SOL     OW58763   6.438   9.081   0.960 -0.1698  0.1519 -0.1512
18742SOL    HW158764   6.451   9.171   0.990  1.5260 -0.1502  0.0901
18742SOL    HW258765   6.467   9.081   0.869  0.4186 -0.2793  0.0317
18743SOL     OW58766   6.730   8.604   8.149 -0.3578 -0.3011 -0.3312
18743SOL    HW158767   6.784   8.682   8.136  0.8400 -1.0061  0.3506
18743SOL    HW258768   6.688   8.617   8.234 -0.0681 -0.4447 -0.1652
18744SOL     OW58769   9.183   1.125   7.722 -0.2223 -0.0276 -0.2540
18744SOL    HW158770   9.185   1.054   7.659  1.2143  0.9956 -1.3858
18744SOL    HW258771   9.153   1.201   7.672  0.2829  0.6334  0.4303
18745SOL     OW58772   4.161  10.195   3.977  0.4205 -0.0036 -0.0097
18745SOL    HW158773   4.097  10.173   4.045  0.2458  0.9765  0.1468
18745SOL    HW258774   4.246  10.192   4.022  0.3012  0.6858  0.2733
18746SOL     OW58775   4.911   8.210   3.364  0.6174 -0.7000 -0.4191
18746SOL    HW158776   4.933   8.268   3.291  3.2291 -0.6808  0.3037
18746SOL    HW258777   4.953   8.127   3.342  1.0630 -0.8246  0.8161
18747SOL     OW58778  10.165   1.742   5.081 -0.5075  0.3320 -0.0517
18747SOL    HW158779  10.254   1.772   5.101 -0.8431  2.0829 -1.0613
18747SOL    HW258780  10.174   1.649   5.061  0.9494  0.2831  0.8013
18748SOL     OW58781   2.913   1.648   3.001 -0.3587  0.1784 -0.1263
18748SOL    HW158782   2.878   1.559   2.990 -0.0851  0.1359 -0.6937
18748SOL    HW258783   3.001   1.643   2.963  0.3476  0.2292  1.4844
18749SOL     OW58784   0.915   1.343   6.862 -0.3772 -0.6164  0.0769
18749SOL    HW158785   0.944   1.256   6.892  1.7907  0.9330  2.7762
18749SOL    HW258786   0.858   1.374   6.932 -1.7368 -0.1560 -1.2330
18750SOL     OW58787   8.453   9.841   8.683  0.0419  0.6924  0.4018
18750SOL    HW158788   8.429   9.864   8.594  0.7328 -0.5781 -0.1206
18750SOL    HW258789   8.449   9.923   8.731 -0.8488  1.2934 -0.6817
18751SOL     OW58790   7.418   8.229   5.361 -0.5686  0.2350  0.1450
18751SOL    HW158791   7.493   8.179   5.395 -0.5094  0.2312  0.0083
18751SOL    HW258792   7.342   8.189   5.403 -0.3471  1.5090  1.8344
18752SOL     OW58793   1.933   4.059   1.172  0.2081  0.3242 -0.4060
18752SOL    HW158794   1.844   4.069   1.206  0.1814 -1.9390  0.2751
18752SOL    HW258795   1.990   4.090   1.243  0.0169 -0.2632  0.0080
18753SOL     OW58796   1.644   3.073   1.217  0.3039  0.7361 -0.2594
18753SOL    HW158797   1.626   3.021   1.139  0.2953  0.0280  0.2115
18753SOL    HW258798   1.668   3.009   1.284 -0.2200  1.2939  0.4689
18754SOL     OW58799   5.000   1.198   3.720  0.2239  0.2681  0.2703
18754SOL    HW158800   5.034   1.153   3.798  0.5309 -0.3259 -0.1981
18754SOL    HW258801   5.074   1.249   3.688  1.1281 -2.0373 -1.4991
18755SOL     OW58802   7.261   2.283   9.177 -0.0815 -0.5357 -0.3826
18755SOL    HW158803   7.315   2.259   9.102  0.1548  0.6972 -0.6300
18755SOL    HW258804   7.230   2.371   9.156  0.7273  0.1882  1.3658
18756SOL     OW58805   2.517   6.557   5.103  0.0508 -0.1596 -0.1649
18756SOL    HW158806   2.547   6.498   5.034  0.0962 -1.2933  0.8066
18756SOL    HW258807   2.536   6.511   5.185  0.9810  1.6275  0.6550
18757SOL     OW58808   9.498   7.306   9.520 -0.3217  0.2618  0.1868
18757SOL    HW158809   9.411   7.267   9.508  0.2066  0.1022 -4.1357
18757SOL    HW258810   9.481   7.400   9.530 -1.0259  0.2044 -0.4160
18758SOL     OW58811   2.512   4.463   3.234  0.0593  0.2989 -0.1210
18758SOL    HW158812   2.456   4.522   3.285 -1.5551 -1.4722  0.2249
18758SOL    HW258813   2.562   4.414   3.299  1.5611  1.4032 -0.4140
18759SOL     OW58814   4.133   5.201   2.311  0.2143 -0.5623  0.0249
18759SOL    HW158815   4.086   5.246   2.241  0.1561  0.0555  0.4586
18759SOL    HW258816   4.132   5.262   2.384 -0.3027 -1.4660  0.7895
18760SOL     OW58817   8.879   1.782   3.432  0.1473 -0.0110 -0.3443
18760SOL    HW158818   8.827   1.716   3.478 -1.4856  0.6946 -1.1572
18760SOL    HW258819   8.966   1.742   3.423 -0.2107 -1.1621  1.1036
18761SOL     OW58820   1.063   6.750   0.562 -0.2837  0.1116  0.1557
18761SOL    HW158821   1.003   6.682   0.533 -0.6757 -0.0871  1.3984
18761SOL    HW258822   1.150   6.709   0.556 -0.4055 -0.0822 -0.2770
18762SOL     OW58823   6.177   0.675   0.790  0.1766  0.2646 -0.6472
18762SOL    HW158824   6.224   0.647   0.869  0.5496  2.0925 -0.1998
18762SOL    HW258825   6.085   0.661   0.811  0.0967  3.0853  1.1105
18763SOL     OW58826   5.488   0.997   3.793  0.1414 -0.0264  0.4430
18763SOL    HW158827   5.549   1.032   3.728 -0.4074 -0.9168 -0.5759
18763SOL    HW258828   5.542   0.984   3.871  1.2242 -0.6031 -0.3806
18764SOL     OW58829   0.399  10.174   0.523 -0.1905 -0.2935  0.1509
18764SOL    HW158830   0.447  10.148   0.445 -1.6033 -2.0580 -0.1360
18764SOL    HW258831   0.426  10.111   0.590 -0.8598 -0.2930  0.4233
18765SOL     OW58832   1.601   1.685   8.091 -0.4415 -0.6184 -0.3477
18765SOL    HW158833   1.655   1.620   8.136 -1.1592 -1.7475 -1.1172
18765SOL    HW258834   1.581   1.750   8.159  2.4774  0.2200 -0.2194
18766SOL     OW58835   0.181   7.019   9.602  0.1030 -0.5169 -0.0867
18766SOL    HW158836   0.243   7.067   9.657  0.0102 -1.0473  0.4850
18766SOL    HW258837   0.150   7.084   9.539  1.6222 -0.3681 -0.7162
18767SOL     OW58838   9.068   0.521   4.028  0.6422  0.2999  0.0642
18767SOL    HW158839   9.112   0.553   4.106  1.5871  3.0639 -1.5266
18767SOL    HW258840   9.127   0.455   3.992  0.8071 -0.0526  0.9757
18768SOL     OW58841   2.789   4.050   8.997 -0.4376 -0.3526 -0.0263
18768SOL    HW158842   2.766   3.979   9.057  1.7266 -0.2912  0.9492
18768SOL    HW258843   2.850   4.010   8.935  1.0846  0.6853  0.7518
18769SOL     OW58844   6.604   9.191   9.556  0.2020 -1.1531 -0.0575
18769SOL    HW158845   6.647   9.167   9.637 -0.9920 -2.3105  0.2465
18769SOL    HW258846   6.525   9.239   9.583  0.3060 -0.6825 -0.5623
18770SOL     OW58847   2.311   1.226   5.728  0.2914  0.6834 -0.0732
18770SOL    HW158848   2.335   1.156   5.789 -0.8167  0.8763  0.5925
18770SOL    HW258849   2.389   1.282   5.725  1.0451 -0.3691 -0.3204
18771SOL     OW58850   4.733   9.258   4.017 -0.1998  0.1240 -0.7164
18771SOL    HW158851   4.762   9.182   3.967  0.1089  1.8769 -3.2692
18771SOL    HW258852   4.638   9.258   4.009 -0.3316 -0.8606  0.6276
18772SOL     OW58853   4.942   9.334   8.757 -0.4319 -0.1150  0.6002
18772SOL    HW158854   4.972   9.421   8.781 -1.8659  0.1700  1.4434
18772SOL    HW258855   4.863   9.320   8.810 -0.9467 -1.4040 -0.4544
18773SOL     OW58856   5.120  10.063   0.986 -0.4728 -0.3755 -0.2265
18773SOL    HW158857   5.037  10.090   1.024 -0.6030  0.0753 -0.8242
18773SOL    HW258858   5.113   9.968   0.978 -0.9547 -0.3353 -0.3283
18774SOL     OW58859   7.714  10.074   9.482 -0.1532 -0.6216 -0.3130
18774SOL    HW158860   7.647  10.048   9.545  0.5172  0.5039  0.8640
18774SOL    HW258861   7.677  10.151   9.438  0.6142  0.3559  0.7509
18775SOL     OW58862   9.049   5.806   6.955  0.3901 -0.2861 -0.2498
18775SOL    HW158863   9.118   5.856   6.999  1.1068 -0.1609 -1.5038
18775SOL    HW258864   9.018   5.863   6.885  0.6409 -1.2579 -1.1675
18776SOL     OW58865   8.895   7.012   5.373 -0.1849  0.1813  0.2935
18776SOL    HW158866   8.894   7.103   5.402 -1.3725  0.2871 -0.0294
18776SOL    HW258867   8.957   6.968   5.431  0.0444  1.1007  0.7497
18777SOL     OW58868   4.952   4.409   2.567 -0.0457  0.0917 -0.6393
18777SOL    HW158869   5.030   4.460   2.588  0.0609 -0.3186 -0.0235
18777SOL    HW258870   4.895   4.418   2.643 -1.6868  2.4098 -2.0677
18778SOL     OW58871   4.092   4.419   1.761 -0.4174 -0.4926 -0.0046
18778SOL    HW158872   4.112   4.439   1.670 -0.4933  1.5425  0.3874
18778SOL    HW258873   4.057   4.330   1.760  0.9640 -1.0377 -1.7593
18779SOL     OW58874   2.388   7.748   6.056 -0.2076  0.1036  0.4145
18779SOL    HW158875   2.351   7.676   6.005 -1.2824 -0.8419  2.5048
18779SOL    HW258876   2.365   7.827   6.005 -0.6708 -0.8648 -0.9017
18780SOL     OW58877   3.696   4.490   2.746 -0.0217 -0.2604 -0.2694
18780SOL    HW158878   3.757   4.497   2.820  0.2403  0.0537 -0.5117
18780SOL    HW258879   3.737   4.542   2.677 -0.4229 -0.2915 -0.5300
18781SOL     OW58880   6.905   5.703   9.285 -0.1479  0.1248 -0.2686
18781SOL    HW158881   6.860   5.620   9.301  1.1697 -1.0178 -2.2059
18781SOL    HW258882   6.962   5.715   9.361  0.0385 -1.0262 -0.2146
18782SOL     OW58883   3.026   1.670   6.584  0.2676  0.1490 -0.4065
18782SOL    HW158884   3.121   1.675   6.594  0.2761  0.2634 -0.5502
18782SOL    HW258885   2.998   1.762   6.578  0.2051  0.0962 -0.9290
18783SOL     OW58886   6.886   9.038   5.920  0.1372 -0.3234  0.5456
18783SOL    HW158887   6.952   8.974   5.894 -1.1399 -1.7464  0.7176
18783SOL    HW258888   6.917   9.121   5.885  1.0497 -1.3094 -1.0280
18784SOL     OW58889   5.168   1.342   8.771 -0.0263  0.4633 -0.7684
18784SOL    HW158890   5.171   1.385   8.686  0.4012  1.7964 -0.0827
18784SOL    HW258891   5.186   1.411   8.835  0.6465 -0.7076  0.3506
18785SOL     OW58892   5.306   9.528   5.328  0.0763 -0.3183 -0.0895
18785SOL    HW158893   5.212   9.539   5.320 -0.0555  0.4096  2.1512
18785SOL    HW258894   5.317   9.462   5.397  1.2206  1.2711  1.2769
18786SOL     OW58895   9.936   1.449   7.200 -0.3569  0.4078 -0.7732
18786SOL    HW158896   9.959   1.398   7.122 -2.4095 -0.4452 -0.8759
18786SOL    HW258897   9.901   1.384   7.261 -0.2557  1.2936  0.2288
18787SOL     OW58898   2.647   6.871   6.373 -0.1331  0.0130  0.4943
18787SOL    HW158899   2.589   6.811   6.420 -0.0766 -0.4506 -0.0232
18787SOL    HW258900   2.728   6.870   6.423  0.7552 -2.3373 -0.9384
18788SOL     OW58901   4.860   6.412   1.681  0.2620 -0.0828 -0.1925
18788SOL    HW158902   4.948   6.379   1.663  0.7775  1.3899 -0.4556
18788SOL    HW258903   4.865   6.447   1.770 -0.1717 -0.3658 -0.0572
18789SOL     OW58904   6.685   2.159   2.714  0.7028  0.0944 -0.9355
18789SOL    HW158905   6.692   2.206   2.798  0.6831 -1.1016 -0.2513
18789SOL    HW258906   6.689   2.228   2.648  0.1029  1.1160  0.0662
18790SOL     OW58907   5.658   0.139   4.589 -0.0219 -0.0203 -0.2609
18790SOL    HW158908   5.746   0.102   4.597  0.4633  1.3334  0.8752
18790SOL    HW258909   5.609   0.074   4.538  1.7451 -0.6026 -1.2764
18791SOL     OW58910   9.198   3.035   8.908 -0.4804 -0.1306  0.2839
18791SOL    HW158911   9.115   3.015   8.864  0.8717 -3.1853 -0.9884
18791SOL    HW258912   9.189   2.998   8.996 -0.2746 -0.9774 -0.0458
18792SOL     OW58913   5.858   0.536   4.582  0.2614  0.1719 -0.4568
18792SOL    HW158914   5.893   0.603   4.524  0.9998  0.7168  0.6093
18792SOL    HW258915   5.795   0.488   4.528  1.2227  0.4234 -1.8178
18793SOL     OW58916   7.269   0.112   6.651 -0.1354 -0.5095  0.0957
18793SOL    HW158917   7.355   0.094   6.613 -0.6456  1.5714 -2.1262
18793SOL    HW258918   7.207   0.087   6.582 -1.2094  0.5042  0.6824
18794SOL     OW58919   0.699   0.836   9.340  0.4589  0.3192  0.3800
18794SOL    HW158920   0.684   0.926   9.370 -1.3511  0.3258 -0.4663
18794SOL    HW258921   0.635   0.823   9.270  1.6636 -1.1663 -0.4750
18795SOL     OW58922   2.079   9.717   2.501  0.2114 -0.4423  0.2993
18795SOL    HW158923   2.075   9.801   2.455 -3.2397 -1.2384 -0.9850
18795SOL    HW258924   2.171   9.691   2.496  0.8320  1.9747 -1.6184
18796SOL     OW58925   5.137   1.559   9.057 -0.0031 -0.3246  0.3550
18796SOL    HW158926   5.169   1.615   8.986 -0.7417  1.0301  1.0885
18796SOL    HW258927   5.217   1.525   9.098  0.4597  0.9692  0.5262
18797SOL     OW58928   7.699   2.879   4.855  0.1321 -0.7177 -0.2393
18797SOL    HW158929   7.674   2.856   4.945 -2.6499 -0.2833 -0.8258
18797SOL    HW258930   7.776   2.934   4.865 -0.3419 -0.3843  1.9299
18798SOL     OW58931   2.367   1.790   4.578  0.3248 -0.1151 -0.1469
18798SOL    HW158932   2.342   1.764   4.489 -0.5305  1.0612 -0.2601
18798SOL    HW258933   2.462   1.802   4.573  0.2246  0.3719 -1.0108
18799SOL     OW58934   2.302   9.788   3.239  0.1415  0.3942  0.1806
18799SOL    HW158935   2.291   9.821   3.329  0.2383  0.4647  0.1665
18799SOL    HW258936   2.380   9.732   3.243 -0.7770 -0.8839  0.4974
18800SOL     OW58937   5.206   3.687   0.621 -0.5889 -0.0925 -0.3839
18800SOL    HW158938   5.131   3.699   0.680 -0.2575 -0.5683  0.1389
18800SOL    HW258939   5.263   3.625   0.667  0.3004  0.5443 -0.6202
18801SOL     OW58940   7.149   7.670   9.061  0.1492 -0.4448  0.2074
18801SOL    HW158941   7.154   7.654   8.966  1.7428 -0.4693  0.2937
18801SOL    HW258942   7.086   7.604   9.092 -0.1993 -0.6051 -0.7934
18802SOL     OW58943   1.577   0.337   6.597 -0.3156 -0.2792  0.2869
18802SOL    HW158944   1.521   0.392   6.542 -0.5902 -0.8201  0.0162
18802SOL    HW258945   1.591   0.258   6.544  1.6550  0.3330 -0.1228
18803SOL     OW58946   0.264   8.581   4.897  0.5385  0.4464  0.4759
18803SOL    HW158947   0.251   8.660   4.845 -1.4657 -0.3691 -0.2894
18803SOL    HW258948   0.354   8.589   4.930  1.7766  1.1691 -2.8185
18804SOL     OW58949   5.559   6.410   1.993  0.2583  0.7962  0.0741
18804SOL    HW158950   5.482   6.424   1.938  0.5995 -0.5039 -0.7485
18804SOL    HW258951   5.527   6.365   2.070  0.1001  0.7891  0.0040
18805SOL     OW58952   3.270   7.638   1.278  0.3409  0.0164  0.4193
18805SOL    HW158953   3.353   7.685   1.293 -0.2974  0.6516  2.1415
18805SOL    HW258954   3.281   7.556   1.327 -0.0725  0.1443  0.7285
18806SOL     OW58955   1.614   1.051   4.999  0.2627 -0.1808 -0.2298
18806SOL    HW158956   1.648   1.002   4.924  0.0961 -1.0791  0.2836
18806SOL    HW258957   1.638   0.998   5.075  1.2201  1.1690  0.4259
18807SOL     OW58958   5.573   1.652   7.454 -0.0115 -0.1501  0.3407
18807SOL    HW158959   5.509   1.714   7.418  0.4152  0.9315  1.4071
18807SOL    HW258960   5.609   1.607   7.377 -0.6852  0.5681 -0.4059
18808SOL     OW58961   5.359   5.434   5.064 -0.1964 -0.4601 -0.0633
18808SOL    HW158962   5.423   5.382   5.112  1.1725  0.0939 -1.2628
18808SOL    HW258963   5.359   5.397   4.976 -0.9755  0.0242 -0.2688
18809SOL     OW58964   9.628   7.699   9.662 -0.5768  0.1089  0.2997
18809SOL    HW158965   9.685   7.645   9.607  0.6025  0.7584  0.8655
18809SOL    HW258966   9.673   7.783   9.667 -1.1545  0.3571  1.4579
18810SOL     OW58967   4.541   5.230   6.968 -0.4681  0.6220 -0.3581
18810SOL    HW158968   4.566   5.293   7.035  1.3397 -0.3803 -0.0707
18810SOL    HW258969   4.613   5.231   6.905 -0.1026 -1.6178 -0.0100
18811SOL     OW58970   6.498   1.944   6.045 -0.1603 -0.4210  0.2791
18811SOL    HW158971   6.538   1.998   5.976 -0.4383  0.1483  0.5579
18811SOL    HW258972   6.438   1.886   5.998 -1.4341  0.9482  0.1649
18812SOL     OW58973   7.517   3.132   8.527 -0.1207 -0.0904 -0.4192
18812SOL    HW158974   7.470   3.175   8.598  0.9727 -0.3223  0.4596
18812SOL    HW258975   7.509   3.038   8.546 -1.3230 -0.2425 -1.5757
18813SOL     OW58976   2.668   1.177   6.382  0.2393 -0.8335  0.1824
18813SOL    HW158977   2.752   1.206   6.348  0.2745  0.4259  1.3304
18813SOL    HW258978   2.607   1.248   6.360  0.0726 -0.4251  1.9115
18814SOL     OW58979   3.508   5.618   3.594 -0.2522 -0.1471 -0.1476
18814SOL    HW158980   3.489   5.645   3.504 -0.1907 -0.0205 -0.1224
18814SOL    HW258981   3.589   5.568   3.587 -0.1976 -0.0580 -0.1485
18815SOL     OW58982   5.031   9.554   5.364  0.3225  0.0774 -0.2108
18815SOL    HW158983   4.976   9.559   5.286  0.5570 -3.3904 -0.6646
18815SOL    HW258984   4.996   9.621   5.423 -1.9111  0.5305 -2.0147
18816SOL     OW58985   2.078   2.117   4.053  0.0521  0.1843  0.0399
18816SOL    HW158986   2.034   2.145   3.973  0.5517  0.2095 -0.2266
18816SOL    HW258987   2.083   2.022   4.047 -2.9601 -0.1381  1.6225
18817SOL     OW58988   0.449   8.890   0.264  0.5326 -0.3912  0.1696
18817SOL    HW158989   0.477   8.929   0.181  0.0736  0.4002  0.3797
18817SOL    HW258990   0.408   8.807   0.239  1.8890 -0.9518 -0.2465
18818SOL     OW58991   4.120   3.160   4.130 -0.0151 -0.2715 -0.4634
18818SOL    HW158992   4.151   3.104   4.200  0.7703 -1.4598 -1.7359
18818SOL    HW258993   4.068   3.103   4.074  0.9702  0.1850 -1.8828
18819SOL     OW58994   9.804   8.588   9.737  0.0463 -0.1638  0.6971
18819SOL    HW158995   9.714   8.558   9.728 -0.9914  2.9798 -0.0855
18819SOL    HW258996   9.834   8.605   9.648  0.5509  1.0993  1.0852
18820SOL     OW58997   5.610   7.459   2.074 -0.1576  0.2852 -0.1578
18820SOL    HW158998   5.662   7.472   1.995  0.1670 -0.1362 -0.0146
18820SOL    HW258999   5.524   7.430   2.042  0.4461 -1.3669 -0.2989
18821SOL     OW59000   8.643   5.941   2.760  0.2000  0.2446 -0.6403
18821SOL    HW159001   8.737   5.951   2.774  0.3599 -0.6280 -1.0822
18821SOL    HW259002   8.633   5.944   2.665 -0.4662  2.5087 -0.5267
18822SOL     OW59003   4.040   4.304   0.470 -0.3540 -0.2343  0.1114
18822SOL    HW159004   4.098   4.229   0.476 -1.6156 -1.1426  1.3294
18822SOL    HW259005   4.097   4.380   0.480  0.5237 -1.1303  2.1214
18823SOL     OW59006   7.328   0.125   4.200  0.1983 -0.3888  0.1507
18823SOL    HW159007   7.367   0.065   4.135  0.9797  0.8941 -0.5745
18823SOL    HW259008   7.378   0.206   4.192 -2.3443  1.1776 -0.5349
18824SOL     OW59009   6.910   2.355   6.369 -0.4322 -0.5405 -0.2198
18824SOL    HW159010   6.908   2.436   6.420  0.1924 -1.0295  0.5998
18824SOL    HW259011   6.833   2.307   6.397 -1.1153  0.0066 -1.1224
18825SOL     OW59012   5.094   6.282   6.264  0.3012 -0.0700  0.4705
18825SOL    HW159013   5.113   6.338   6.339 -0.5092  0.8152  0.0325
18825SOL    HW259014   5.174   6.231   6.251  0.3513 -0.4669  2.1255
18826SOL     OW59015   1.696   9.857   0.139 -0.0285  0.4113  0.1683
18826SOL    HW159016   1.701   9.787   0.075 -2.3575  0.8723 -0.5551
18826SOL    HW259017   1.674   9.813   0.221 -0.5786  0.1838 -0.0978
18827SOL     OW59018   1.899   7.520   1.865 -0.4834  0.1244  0.0016
18827SOL    HW159019   1.820   7.552   1.908 -0.8656 -0.1152 -0.5246
18827SOL    HW259020   1.880   7.527   1.772 -0.4420 -1.3496 -0.1166
18828SOL     OW59021   7.663   0.604   6.614  0.4708  0.0305 -0.3550
18828SOL    HW159022   7.659   0.509   6.600  0.4267  0.0873 -0.7358
18828SOL    HW259023   7.584   0.638   6.571 -0.2915  0.0875  1.0790
18829SOL     OW59024  10.167   7.094   9.740 -0.1428  0.7852  0.5002
18829SOL    HW159025  10.145   7.050   9.822 -0.1001 -0.0855  0.0540
18829SOL    HW259026  10.241   7.043   9.705 -0.9182  0.4346 -0.6545
18830SOL     OW59027   3.953   6.666   2.610 -0.4995  0.1219 -0.5042
18830SOL    HW159028   3.997   6.581   2.606 -0.7499 -0.1008  1.0362
18830SOL    HW259029   4.012   6.721   2.662 -1.8947 -0.1051  1.3674
18831SOL     OW59030   1.395   6.530   4.707  0.0748  0.0965  0.1162
18831SOL    HW159031   1.304   6.561   4.713 -0.9383 -2.9559  1.3071
18831SOL    HW259032   1.423   6.520   4.798  1.7969  1.3619 -0.2299
18832SOL     OW59033   5.401   8.674   6.982 -0.1176  0.5514  0.2748
18832SOL    HW159034   5.309   8.687   7.004 -0.0513  0.3712  0.6621
18832SOL    HW259035   5.446   8.749   7.022 -0.3559  1.7439 -1.6710
18833SOL     OW59036   9.612   7.430   5.737  0.7829 -0.3749  0.2726
18833SOL    HW159037   9.620   7.385   5.822  1.9301 -0.4906  0.1161
18833SOL    HW259038   9.635   7.521   5.757 -1.4150  0.1372  0.5646
18834SOL     OW59039   3.975   4.184   6.331  0.6245 -0.1761 -0.0555
18834SOL    HW159040   3.976   4.204   6.237 -0.8442 -0.3542 -0.1232
18834SOL    HW259041   3.941   4.094   6.336 -0.1400  0.1476  0.6908
18835SOL     OW59042   6.446   7.326   1.957 -0.3996 -0.6698  0.4894
18835SOL    HW159043   6.368   7.303   1.907  0.0879 -0.6997 -0.2560
18835SOL    HW259044   6.417   7.323   2.048 -1.7596  1.1706  0.1554
18836SOL     OW59045   8.014   4.557   2.483  0.1924  0.2908 -0.1907
18836SOL    HW159046   7.983   4.488   2.542  0.1338  0.4848  0.0073
18836SOL    HW259047   8.022   4.514   2.398 -0.4495  0.1968 -0.2030
18837SOL     OW59048   3.164   3.082   7.709  0.6871 -0.0322  0.3467
18837SOL    HW159049   3.145   3.176   7.706  1.0433  0.0250 -0.1786
18837SOL    HW259050   3.191   3.060   7.620  1.3900 -0.4718  0.6653
18838SOL     OW59051   4.803   3.415   5.121 -0.6974  0.1269  0.0959
18838SOL    HW159052   4.723   3.362   5.118 -1.0601  0.6357  0.5434
18838SOL    HW259053   4.869   3.362   5.077 -1.2492 -0.3620 -0.1492
18839SOL     OW59054   5.921   8.803   7.868  0.2064 -0.2571 -0.4910
18839SOL    HW159055   5.927   8.898   7.876 -2.5756 -0.0009 -1.0987
18839SOL    HW259056   5.946   8.784   7.777  1.0960 -0.1724 -0.2731
18840SOL     OW59057   0.096   3.447   7.171 -0.0288  0.7908  1.2131
18840SOL    HW159058   0.023   3.408   7.123 -0.1754  1.3669  0.9689
18840SOL    HW259059   0.094   3.540   7.147  0.6442  0.8493  1.3795
18841SOL     OW59060   4.374   9.200   4.388  0.0369  0.3417 -0.1106
18841SOL    HW159061   4.373   9.133   4.320 -0.9251  1.1744 -0.9181
18841SOL    HW259062   4.399   9.280   4.343 -0.9534  0.9659  0.4479
18842SOL     OW59063   9.351   6.290   3.170 -0.5816 -0.3628 -0.5041
18842SOL    HW159064   9.329   6.374   3.210  0.6146  0.2758 -1.1616
18842SOL    HW259065   9.311   6.294   3.083  0.2022 -0.1328 -0.8499
18843SOL     OW59066   9.627   6.642   0.630 -1.0181 -0.4366  0.0732
18843SOL    HW159067   9.533   6.648   0.642 -0.7989  1.8908  0.7659
18843SOL    HW259068   9.639   6.568   0.571 -3.1769 -1.6146  1.0617
18844SOL     OW59069   2.053   4.244   1.640  0.4272 -0.1220 -0.2130
18844SOL    HW159070   2.085   4.178   1.700 -0.3927 -0.5318 -0.2213
18844SOL    HW259071   2.101   4.324   1.663  0.3812 -0.3703  0.7284
18845SOL     OW59072   5.872   9.799   4.308 -0.5204  0.3380 -0.1597
18845SOL    HW159073   5.951   9.854   4.312 -1.5980  1.9740 -0.7377
18845SOL    HW259074   5.897   9.726   4.252  0.5256  0.9709 -0.5420
18846SOL     OW59075   2.632   6.008   9.251  0.1006 -0.3492 -0.7467
18846SOL    HW159076   2.644   5.927   9.301  1.1270  0.1767 -0.1352
18846SOL    HW259077   2.599   6.071   9.315  2.3583  0.6023 -0.4928
18847SOL     OW59078   6.248   5.124   5.497 -0.0174 -0.0187 -0.0274
18847SOL    HW159079   6.317   5.187   5.478  0.6502 -0.9868 -0.8785
18847SOL    HW259080   6.195   5.122   5.417 -0.0168 -0.5531 -0.0156
18848SOL     OW59081   6.182   7.420   4.509  0.3677  0.1078  0.2369
18848SOL    HW159082   6.201   7.465   4.591 -0.4325 -0.8613  0.9665
18848SOL    HW259083   6.229   7.336   4.517  0.2309 -0.0161 -0.2654
18849SOL     OW59084   7.719   7.540   3.106 -0.1782  0.1899  0.5925
18849SOL    HW159085   7.758   7.513   3.023  0.2796  1.1251  0.4898
18849SOL    HW259086   7.706   7.635   3.096 -1.7549  0.0166  0.9304
18850SOL     OW59087   8.382   4.100   4.166  0.0422  0.0366 -0.1278
18850SOL    HW159088   8.380   4.073   4.074 -1.3376  1.5827 -0.5774
18850SOL    HW259089   8.471   4.134   4.179  0.3564 -0.5208 -0.7777
18851SOL     OW59090   3.969   2.867   2.615 -0.2450  0.6563 -0.1708
18851SOL    HW159091   3.882   2.833   2.634  0.3769 -1.3651 -0.7045
18851SOL    HW259092   4.006   2.802   2.554  2.0331  0.8800  0.9415
18852SOL     OW59093   0.876   8.883   3.662 -0.4200 -0.3219 -0.3731
18852SOL    HW159094   0.790   8.886   3.621 -0.4568  0.6148 -0.2423
18852SOL    HW259095   0.876   8.956   3.724 -0.8340 -2.4844  2.2595
18853SOL     OW59096   0.987   7.043   2.272  0.4460 -0.0865 -0.1767
18853SOL    HW159097   0.995   7.125   2.320 -1.8910  1.4836 -2.3118
18853SOL    HW259098   0.916   6.996   2.317  1.0081 -0.4476  0.3450
18854SOL     OW59099   7.928   7.704   2.104 -0.3337  0.2212  0.3323
18854SOL    HW159100   7.908   7.624   2.055  0.7519 -0.9151  1.7086
18854SOL    HW259101   7.844   7.747   2.115 -0.8678 -0.4944 -0.8218
18855SOL     OW59102   8.468   6.593   3.768  0.4081 -0.2090 -0.0794
18855SOL    HW159103   8.487   6.502   3.744  0.2604 -0.1973 -0.2453
18855SOL    HW259104   8.554   6.634   3.779  0.4840 -0.0556 -1.2066
18856SOL     OW59105   1.495   0.342   7.164 -0.2122 -0.0818 -0.0503
18856SOL    HW159106   1.504   0.288   7.242  0.2768  2.4416  1.7250
18856SOL    HW259107   1.561   0.309   7.103  1.4894 -0.1698  1.7885
18857SOL     OW59108   4.007   7.741   5.798  0.3512 -0.2292 -0.4840
18857SOL    HW159109   3.928   7.753   5.851 -0.5355  0.1790 -1.8811
18857SOL    HW259110   4.072   7.708   5.860 -1.2215 -1.6421  0.4478
18858SOL     OW59111   4.724   1.365   1.064 -0.4987  0.2720 -0.9670
18858SOL    HW159112   4.780   1.301   1.108 -1.5968 -0.6543 -0.8844
18858SOL    HW259113   4.777   1.398   0.991  0.5649  0.2675 -0.2039
18859SOL     OW59114   3.750   1.259   8.456 -0.0141 -0.2578 -0.0670
18859SOL    HW159115   3.822   1.203   8.426  0.0713  0.3577 -1.0433
18859SOL    HW259116   3.792   1.323   8.514  0.1607 -0.1929 -0.2627
18860SOL     OW59117   1.721   2.916   5.495  0.7215  0.3197  0.1299
18860SOL    HW159118   1.661   2.900   5.567  0.7011  1.4336  0.3608
18860SOL    HW259119   1.676   2.979   5.439  1.7973  1.4280  0.4795
18861SOL     OW59120   5.761   1.969   8.317 -0.7107  0.1549  0.3985
18861SOL    HW159121   5.761   1.967   8.413 -1.2776 -2.9763  0.3864
18861SOL    HW259122   5.715   2.050   8.295 -0.4773  0.9918  2.7468
18862SOL     OW59123   3.883   0.316   4.249 -0.4675 -0.5841  0.2137
18862SOL    HW159124   3.790   0.313   4.271  0.0513 -0.1807  2.6214
18862SOL    HW259125   3.916   0.394   4.294  0.8887 -0.3018 -1.2307
18863SOL     OW59126   0.966   6.782   6.712  0.0045 -0.3114  0.0805
18863SOL    HW159127   1.043   6.803   6.659  0.1375 -0.8756  0.0488
18863SOL    HW259128   0.918   6.718   6.660 -0.2620 -0.2894  0.2985
18864SOL     OW59129   1.725   2.786   0.591 -0.3628 -0.1595 -0.1734
18864SOL    HW159130   1.748   2.719   0.656  0.6879  0.6860  0.3615
18864SOL    HW259131   1.785   2.770   0.518  0.0832  0.3442  0.0711
18865SOL     OW59132   9.456   2.785   0.416 -0.2981  0.0586  0.2616
18865SOL    HW159133   9.522   2.855   0.411  0.0952 -0.3769 -0.7697
18865SOL    HW259134   9.453   2.761   0.509  3.1433 -1.9353 -0.0664
18866SOL     OW59135   8.012   4.662   9.158  0.0366  0.2892  0.3229
18866SOL    HW159136   7.976   4.724   9.095  1.0313  1.0122  0.4449
18866SOL    HW259137   7.994   4.576   9.120 -1.8049  0.6187  0.3985
18867SOL     OW59138   0.107   7.467   2.001  0.2878  0.0025 -0.0291
18867SOL    HW159139   0.057   7.528   1.947  0.3843 -0.1348 -0.2749
18867SOL    HW259140   0.043   7.404   2.032  0.1443  0.3758  0.4301
18868SOL     OW59141   1.640   1.742   6.177  0.1903  0.3235  0.6647
18868SOL    HW159142   1.656   1.746   6.083 -0.0429 -1.6497  0.5039
18868SOL    HW259143   1.696   1.671   6.208 -1.7671 -0.9150  1.5176
18869SOL     OW59144   0.604   4.207   0.138  0.3728 -0.3027  0.1598
18869SOL    HW159145   0.693   4.235   0.116  0.3429 -0.6453 -0.3970
18869SOL    HW259146   0.608   4.111   0.136 -0.0941 -0.3162 -0.2379
18870SOL     OW59147   8.214   2.362   5.440  0.5724 -0.3015  0.0451
18870SOL    HW159148   8.143   2.424   5.454  0.4667 -0.6550  1.1747
18870SOL    HW259149   8.243   2.377   5.350 -1.1287 -0.3773 -0.5246
18871SOL     OW59150   2.718   5.980   3.612  0.3334 -0.1994  0.3343
18871SOL    HW159151   2.692   5.975   3.704  1.2941  1.0434  0.6934
18871SOL    HW259152   2.666   6.053   3.576  0.2523 -0.4249 -0.0070
18872SOL     OW59153   1.016   1.419   9.748 -0.2494  0.4081 -0.1825
18872SOL    HW159154   0.998   1.377   9.832 -0.9685  0.3086 -0.3812
18872SOL    HW259155   1.074   1.359   9.703 -1.1035 -0.2725 -0.3805
18873SOL     OW59156   1.130   3.007   7.015 -0.2404 -0.9590  0.1294
18873SOL    HW159157   1.111   3.028   7.106  3.4578 -1.4630  1.0944
18873SOL    HW259158   1.122   3.091   6.969 -0.3124 -0.3524  1.2272
18874SOL     OW59159   0.718   0.219   2.168  0.0500  0.1401  0.5278
18874SOL    HW159160   0.627   0.229   2.142  0.2018  2.6972  0.8181
18874SOL    HW259161   0.751   0.309   2.173  1.9424 -0.6296  2.6376
18875SOL     OW59162   9.813   2.375   1.925  0.0001 -0.1851 -0.3473
18875SOL    HW159163   9.845   2.420   1.847  1.7593  0.2964  0.6399
18875SOL    HW259164   9.892   2.347   1.971 -1.0258 -0.6324  1.1782
18876SOL     OW59165   1.904   5.336   6.283  0.5119  0.4741 -0.2626
18876SOL    HW159166   1.952   5.375   6.210 -1.0247  0.0204 -1.5560
18876SOL    HW259167   1.820   5.382   6.284  1.1531  1.6689  2.3400
18877SOL     OW59168   3.996   2.231   2.214  0.1294  0.0220 -0.0108
18877SOL    HW159169   3.901   2.242   2.217 -0.0145 -1.1997  0.2314
18877SOL    HW259170   4.027   2.269   2.296 -0.3607 -1.4857  0.8810
18878SOL     OW59171   1.106   0.787   1.923 -0.5676  0.2027 -0.0722
18878SOL    HW159172   1.075   0.736   1.848 -0.3978  1.5574 -1.0745
18878SOL    HW259173   1.176   0.734   1.961 -0.4421 -0.3503 -1.0640
18879SOL     OW59174   0.219   5.316   5.098 -0.1868 -0.3716  0.5819
18879SOL    HW159175   0.271   5.343   5.023 -0.9965 -1.5361 -0.4344
18879SOL    HW259176   0.163   5.245   5.064 -2.4439  0.8486  1.6155
18880SOL     OW59177   4.272   5.237   0.832 -0.0228  0.3757  0.0712
18880SOL    HW159178   4.349   5.294   0.831  0.3296 -0.1051 -0.3708
18880SOL    HW259179   4.296   5.163   0.776 -0.9803  0.4511 -0.4418
18881SOL     OW59180   8.349   4.910   3.422 -0.5581  0.2963  0.5219
18881SOL    HW159181   8.425   4.917   3.364  0.3637  1.2487  1.7993
18881SOL    HW259182   8.337   4.999   3.455 -0.2573 -0.4775  2.7785
18882SOL     OW59183   9.587   8.313   9.227 -0.1901 -0.0482  0.0060
18882SOL    HW159184   9.669   8.332   9.182 -0.9566  1.4386 -0.7981
18882SOL    HW259185   9.529   8.386   9.204 -2.3261 -1.9279 -0.8882
18883SOL     OW59186   0.614   9.444   8.203 -0.8878  0.0811 -0.5932
18883SOL    HW159187   0.555   9.372   8.222 -0.5587 -0.2089 -0.6541
18883SOL    HW259188   0.561   9.523   8.214 -1.3914 -0.1923 -1.0666
18884SOL     OW59189   7.122   1.346   6.257 -0.1965 -0.1114 -0.0732
18884SOL    HW159190   7.163   1.365   6.341  1.0842 -2.0849 -0.1973
18884SOL    HW259191   7.129   1.427   6.207  0.6458  0.5511  1.1038
18885SOL     OW59192   8.710   4.981   4.790  0.0662  0.0688 -0.4562
18885SOL    HW159193   8.779   4.943   4.736 -0.6257 -1.8005 -0.0474
18885SOL    HW259194   8.712   4.930   4.871 -1.0931  0.6979 -0.0165
18886SOL     OW59195   2.293   5.342   0.789 -0.4526 -0.0155  0.6631
18886SOL    HW159196   2.376   5.388   0.805  0.0762  0.1556 -2.2319
18886SOL    HW259197   2.271   5.365   0.699 -1.4475 -3.4747 -0.0309
18887SOL     OW59198   2.416  10.061   2.085 -0.1784  0.1117  0.3579
18887SOL    HW159199   2.474   9.989   2.109  0.0422 -0.6240 -2.3193
18887SOL    HW259200   2.370  10.031   2.007 -1.9104  1.9113  0.6305
18888SOL     OW59201   1.254   1.177   0.771  0.3115  0.2904 -0.1178
18888SOL    HW159202   1.315   1.248   0.750  0.7645  0.3279  1.2508
18888SOL    HW259203   1.245   1.180   0.866 -0.7256 -0.6294 -0.1699
18889SOL     OW59204   8.326   6.344   2.677  0.6638 -0.2447 -0.2083
18889SOL    HW159205   8.300   6.436   2.681  0.9151 -0.1437 -0.9292
18889SOL    HW259206   8.244   6.295   2.679  0.4151  0.0655 -2.0664
18890SOL     OW59207   8.661   2.626   5.762  0.2723 -0.1048  0.1383
18890SOL    HW159208   8.659   2.689   5.835  0.2929 -0.8180  0.7618
18890SOL    HW259209   8.601   2.557   5.789 -1.1592  0.5270 -1.3576
18891SOL     OW59210   9.818   3.789   6.724 -0.9525 -0.2014  0.4217
18891SOL    HW159211   9.890   3.733   6.696 -0.9886 -0.1313  0.1804
18891SOL    HW259212   9.849   3.830   6.804 -0.1733  0.8941 -0.4259
18892SOL     OW59213   0.488   0.177   2.531 -0.0326 -0.1543 -0.0868
18892SOL    HW159214   0.484   0.266   2.566  0.9737 -0.0889 -0.1173
18892SOL    HW259215   0.498   0.121   2.608  0.2159 -0.1688 -0.1291
18893SOL     OW59216   9.032   8.768   4.330  0.0607 -0.1290 -0.3533
18893SOL    HW159217   9.047   8.857   4.297 -0.1345 -0.2899 -0.8748
18893SOL    HW259218   9.067   8.711   4.262  1.6107 -0.4457  0.6584
18894SOL     OW59219   9.800   8.570   1.105  0.0941  0.3790  0.1603
18894SOL    HW159220   9.811   8.663   1.126 -0.1741  0.1727  1.2712
18894SOL    HW259221   9.727   8.568   1.044  1.0563  1.0278 -1.0277
18895SOL     OW59222   0.852   9.803   1.689  0.2248 -0.4004 -0.2314
18895SOL    HW159223   0.860   9.740   1.762  1.3194 -0.2314 -0.1889
18895SOL    HW259224   0.763   9.837   1.696  0.3690 -0.2750  1.1273
18896SOL     OW59225   6.180   3.792   0.471  0.0425 -0.3609  0.4965
18896SOL    HW159226   6.134   3.801   0.555 -1.1214 -0.3699 -0.1235
18896SOL    HW259227   6.251   3.856   0.476 -0.1268 -0.2298  1.4128
18897SOL     OW59228   6.396   3.948   0.490  0.1835  0.2497  0.6708
18897SOL    HW159229   6.415   4.041   0.478  0.0118 -0.1278 -3.1285
18897SOL    HW259230   6.478   3.904   0.469 -0.6276 -0.6030 -0.7846
18898SOL     OW59231   4.862   7.506  10.175  0.5118 -0.0318 -0.4312
18898SOL    HW159232   4.782   7.511  10.122  1.3017  0.0997 -1.6362
18898SOL    HW259233   4.875   7.595  10.206  0.1913 -0.0537 -0.2268
18899SOL     OW59234   5.514   1.719   7.723  0.0795  0.2708 -0.1278
18899SOL    HW159235   5.569   1.718   7.644  1.5087 -0.7533  0.8667
18899SOL    HW259236   5.573   1.695   7.794 -1.1669  1.3290  1.3008
18900SOL     OW59237   6.378   2.982   0.625  0.0220  0.7588 -0.5271
18900SOL    HW159238   6.463   2.965   0.585  0.9214  2.8521  0.3850
18900SOL    HW259239   6.314   2.952   0.560  1.4482  0.0876 -1.6528
18901SOL     OW59240   1.136   3.032   9.838 -0.3110 -0.1851 -0.0183
18901SOL    HW159241   1.128   2.969   9.766 -0.6721 -1.3852  1.0538
18901SOL    HW259242   1.057   3.018   9.891 -0.2101  0.9178  0.4253
18902SOL     OW59243   6.486   2.801   9.121  0.0526  0.5358 -0.0089
18902SOL    HW159244   6.569   2.753   9.134 -0.9499 -1.2400 -0.0435
18902SOL    HW259245   6.513   2.892   9.113  1.6747  0.5928  4.5474
18903SOL     OW59246   9.699   6.398   6.737 -0.6658  0.2225 -0.6613
18903SOL    HW159247   9.745   6.328   6.690  0.3658 -0.4026  1.2060
18903SOL    HW259248   9.767   6.460   6.759 -0.2381 -1.6698  3.8766
18904SOL     OW59249   7.860   0.893   3.803  0.0080  0.2279  0.6981
18904SOL    HW159250   7.790   0.929   3.748  1.6819  1.1060 -0.8939
18904SOL    HW259251   7.885   0.811   3.760 -0.8106 -0.6671  1.9031
18905SOL     OW59252   5.708   2.385  10.161 -0.3924 -0.2010  0.0371
18905SOL    HW159253   5.621   2.421  10.174 -1.0515 -1.9874  0.7828
18905SOL    HW259254   5.693   2.308  10.106  0.6880 -0.6108  0.3065
18906SOL     OW59255   6.608   0.573   4.413 -0.1606  0.3524 -0.3597
18906SOL    HW159256   6.630   0.546   4.324  0.0866 -1.4227  0.2087
18906SOL    HW259257   6.688   0.612   4.447  0.6366 -1.5997  0.0443
18907SOL     OW59258   0.815   4.557   3.046 -0.1394  0.3352  0.5062
18907SOL    HW159259   0.782   4.468   3.062  1.5450 -0.3936  0.0210
18907SOL    HW259260   0.792   4.606   3.125 -1.5656 -0.3772  0.5552
18908SOL     OW59261   4.389   8.045  10.026  0.5326 -0.4421  0.1878
18908SOL    HW159262   4.433   8.088   9.952 -1.3086  0.6538 -0.3128
18908SOL    HW259263   4.439   8.074  10.103  1.5445 -0.3713 -0.4801
18909SOL     OW59264   7.558   3.181   3.636 -0.4485 -0.2463 -0.3322
18909SOL    HW159265   7.629   3.196   3.575  0.1322  0.0907  0.4169
18909SOL    HW259266   7.522   3.268   3.653 -0.8179 -0.3757 -0.4410
18910SOL     OW59267   0.429   3.570   9.267  0.5721  0.1410 -0.2681
18910SOL    HW159268   0.431   3.572   9.363 -0.4447 -1.1920 -0.2087
18910SOL    HW259269   0.343   3.606   9.244  0.4463 -0.3849 -0.6363
18911SOL     OW59270   3.735   7.838   3.074  0.7127 -0.3926 -0.6196
18911SOL    HW159271   3.672   7.792   3.019 -0.0854  0.2863 -0.2888
18911SOL    HW259272   3.733   7.792   3.158 -1.5312  1.3488  0.3695
18912SOL     OW59273   4.295   6.384   8.429 -0.0885 -0.0403 -0.7039
18912SOL    HW159274   4.313   6.367   8.522  0.5302 -0.8616 -0.9648
18912SOL    HW259275   4.372   6.350   8.383 -0.0995  0.9429 -1.4754
18913SOL     OW59276   7.040   3.466  10.131 -0.1679 -0.4450 -0.0220
18913SOL    HW159277   7.078   3.449  10.216 -0.6993  0.6091  0.4365
18913SOL    HW259278   6.951   3.498  10.150 -0.3698 -0.4140 -0.9685
18914SOL     OW59279   5.382   2.739   5.368 -0.6852 -0.4324 -0.1794
18914SOL    HW159280   5.395   2.715   5.460  0.8231  1.2032  0.0864
18914SOL    HW259281   5.453   2.695   5.322 -0.1652  0.4448 -0.2326
18915SOL     OW59282   9.733   9.101   2.859 -0.0532  0.0053 -0.4822
18915SOL    HW159283   9.756   9.010   2.839 -0.0349  0.3814 -2.2869
18915SOL    HW259284   9.815   9.149   2.853  0.1901 -0.0738  1.9150
18916SOL     OW59285   4.046   5.501   8.168  0.7973  0.4916 -0.9851
18916SOL    HW159286   4.066   5.533   8.080  1.0503  3.5532  0.0989
18916SOL    HW259287   3.965   5.545   8.192  1.2774  0.5252  0.6937
18917SOL     OW59288   6.988   3.926   3.740 -0.6861  0.8455 -0.0944
18917SOL    HW159289   7.037   3.860   3.788 -1.4170  1.1143  1.0404
18917SOL    HW259290   7.047   3.953   3.670  1.7860  2.9305  2.6561
18918SOL     OW59291   5.627   3.423   3.395 -0.0665  0.0323  0.3249
18918SOL    HW159292   5.585   3.508   3.386 -0.5119 -0.2758 -0.5557
18918SOL    HW259293   5.563   3.360   3.362  0.8193 -0.5044 -0.4234
18919SOL     OW59294   8.566   6.428   0.664 -0.1857 -0.2231 -0.0233
18919SOL    HW159295   8.505   6.354   0.664 -0.6831  0.1516  1.5957
18919SOL    HW259296   8.596   6.433   0.755  0.9812  0.6398 -0.4510
18920SOL     OW59297   6.632   8.356   1.162  0.2662 -0.4291 -0.0978
18920SOL    HW159298   6.653   8.268   1.194  1.8118 -0.2432 -0.5623
18920SOL    HW259299   6.563   8.387   1.220 -1.2597 -2.4770 -0.7466
18921SOL     OW59300   6.971   3.320   0.937  0.0920  0.1302  0.6820
18921SOL    HW159301   6.903   3.310   0.871  0.8340 -0.7216  0.0305
18921SOL    HW259302   6.971   3.413   0.959  0.5160  0.6017 -1.2441
18922SOL     OW59303   0.006   7.163   4.578  0.1814  0.5631 -0.1039
18922SOL    HW159304  -0.016   7.246   4.620 -1.1284  0.3392 -0.3447
18922SOL    HW259305  -0.001   7.098   4.649  1.2743  0.6554  0.1014
18923SOL     OW59306   0.155   2.964   4.508  0.3511 -0.4932  0.8118
18923SOL    HW159307   0.210   2.944   4.433 -0.1335  0.0462  0.3026
18923SOL    HW259308   0.114   2.881   4.531 -1.4068 -0.2064 -1.0905
18924SOL     OW59309   7.286   3.293   3.035 -0.4959 -0.4701 -0.3176
18924SOL    HW159310   7.203   3.341   3.042 -1.1491 -1.7459  1.0569
18924SOL    HW259311   7.267   3.221   2.975 -0.4970 -0.9747  0.2819
18925SOL     OW59312   3.260   6.715   1.002  0.4779 -0.1843  0.2707
18925SOL    HW159313   3.310   6.635   1.018 -0.6289 -1.0494 -0.5712
18925SOL    HW259314   3.201   6.721   1.077  1.0998  0.2735  0.7307
18926SOL     OW59315   3.004   9.713   1.702  0.0097  0.5150 -0.0201
18926SOL    HW159316   3.089   9.676   1.725 -0.7016 -0.7308  0.6372
18926SOL    HW259317   2.944   9.681   1.769 -1.2805  0.1566 -1.3154
18927SOL     OW59318   6.106   8.148   6.199 -0.2754  0.4897  1.0056
18927SOL    HW159319   6.194   8.137   6.163 -1.2451 -0.4938 -1.1654
18927SOL    HW259320   6.100   8.081   6.267 -1.1917 -3.2246 -2.5523
18928SOL     OW59321   3.741   3.466   1.092  0.1980 -0.0803  0.4824
18928SOL    HW159322   3.672   3.436   1.034  0.5573  0.9211 -0.4590
18928SOL    HW259323   3.702   3.461   1.180 -1.1176  0.6641 -0.0559
18929SOL     OW59324   4.636   5.543   0.541 -0.0183  0.1330 -0.3093
18929SOL    HW159325   4.689   5.560   0.619 -1.6007  0.3564  0.7321
18929SOL    HW259326   4.546   5.558   0.569 -1.0606 -4.3098 -0.8713
18930SOL     OW59327   9.169   1.030   1.275 -0.0968  0.5295 -0.0058
18930SOL    HW159328   9.088   1.033   1.223  0.0397  3.0265 -0.1297
18930SOL    HW259329   9.139   1.020   1.366 -0.3696 -2.5989 -0.3585
18931SOL     OW59330   7.929   5.121   4.762 -0.4749 -0.0099 -0.1036
18931SOL    HW159331   7.911   5.088   4.674 -1.2578  1.1515 -0.3894
18931SOL    HW259332   7.844   5.150   4.795  0.4245  3.3419 -0.5579
18932SOL     OW59333   4.262   1.745   7.407 -0.0965  0.4852 -0.1209
18932SOL    HW159334   4.314   1.695   7.470 -0.6122 -0.1382 -0.1822
18932SOL    HW259335   4.271   1.836   7.435 -1.1185  0.1137  1.4382
18933SOL     OW59336   7.562   4.110   0.593  0.3182  0.3053 -0.0012
18933SOL    HW159337   7.613   4.087   0.516 -0.1042  1.8179 -0.7586
18933SOL    HW259338   7.616   4.081   0.667  0.2756 -2.0446 -0.8575
18934SOL     OW59339   5.460   7.918   6.330  0.5663 -0.1926 -0.4902
18934SOL    HW159340   5.528   7.922   6.263  0.5920  1.2953 -0.3994
18934SOL    HW259341   5.459   8.006   6.368 -1.7150 -0.0366 -0.8227
18935SOL     OW59342   7.881   8.125   1.183  0.3469 -0.4443 -0.0044
18935SOL    HW159343   7.938   8.201   1.184 -3.5241  2.5986  1.9759
18935SOL    HW259344   7.858   8.111   1.274 -1.6139 -1.9365 -0.6985
18936SOL     OW59345   6.076   0.231   1.899 -0.1908  0.3296 -0.1135
18936SOL    HW159346   6.071   0.324   1.878 -1.0331 -0.3265 -2.9491
18936SOL    HW259347   6.109   0.189   1.819  0.4020 -1.7976  1.1906
18937SOL     OW59348   2.558   4.261   7.115 -0.1403  0.2900  0.1367
18937SOL    HW159349   2.573   4.343   7.162 -1.5227  0.2141  0.7297
18937SOL    HW259350   2.496   4.284   7.045  0.2727 -0.0377 -0.3428
18938SOL     OW59351   1.525   4.036   9.444  0.0296  0.2906 -0.3274
18938SOL    HW159352   1.608   4.067   9.408  0.1880  0.3750  0.1061
18938SOL    HW259353   1.473   4.012   9.367  0.5543 -0.0160 -0.5906
18939SOL     OW59354   9.756   3.724  10.024  0.3583 -0.3562 -0.0543
18939SOL    HW159355   9.693   3.773   9.971  1.6744  0.5341 -0.8223
18939SOL    HW259356   9.811   3.679   9.960  0.8371 -0.7084  0.5988
18940SOL     OW59357   7.180   0.877   0.773  0.2345  0.2287  0.5351
18940SOL    HW159358   7.207   0.909   0.687 -0.4198  1.4789  0.7921
18940SOL    HW259359   7.111   0.814   0.754 -0.3756  1.0025  0.1768
18941SOL     OW59360   1.383   6.429   6.112  0.2996 -0.5330  0.3155
18941SOL    HW159361   1.474   6.416   6.136  0.6952  0.5585 -0.5521
18941SOL    HW259362   1.336   6.359   6.158  1.5300 -0.9602  0.9518
18942SOL     OW59363   6.399   7.932   6.961 -0.2458  0.1872 -0.4402
18942SOL    HW159364   6.334   7.981   7.011  0.4625  1.5644 -0.8280
18942SOL    HW259365   6.367   7.935   6.871 -0.7839 -1.0508 -0.2916
18943SOL     OW59366   1.111   8.322   9.893 -0.1475 -0.0634 -0.5965
18943SOL    HW159367   1.078   8.410   9.911 -0.5615 -0.2745 -0.3097
18943SOL    HW259368   1.144   8.291   9.978  0.4094 -0.0126 -0.7926
18944SOL     OW59369   6.571   5.828   2.502  0.7399  0.4376 -0.1465
18944SOL    HW159370   6.593   5.873   2.583 -1.0630 -0.4496  0.8343
18944SOL    HW259371   6.596   5.736   2.517  0.4103  0.2686 -0.6089
18945SOL     OW59372   9.816   7.594   9.490 -0.5057  0.4205  0.2895
18945SOL    HW159373   9.788   7.630   9.406 -0.0512  2.7044  1.0906
18945SOL    HW259374   9.901   7.633   9.507 -0.9407  0.6072  2.1933
18946SOL     OW59375   9.917   3.997   8.780 -0.6171  0.6159  1.1057
18946SOL    HW159376   9.918   4.058   8.707 -0.0335 -0.4204  0.2380
18946SOL    HW259377   9.853   4.034   8.841 -2.7448  0.3754 -0.8965
18947SOL     OW59378   1.482   6.341   8.261  0.0894  0.0308 -0.0724
18947SOL    HW159379   1.517   6.327   8.173 -0.2826  1.1363 -0.4012
18947SOL    HW259380   1.538   6.409   8.298 -0.3974  0.2931  0.1718
18948SOL     OW59381   6.052   8.271   6.568  0.4492 -0.6900 -0.3378
18948SOL    HW159382   5.967   8.313   6.556  0.7413  0.5123  1.6812
18948SOL    HW259383   6.105   8.305   6.497  0.0609  0.7415  0.0505
18949SOL     OW59384   8.528   2.426   5.206 -0.3919 -0.1604  0.0883
18949SOL    HW159385   8.561   2.417   5.296  1.4126  0.1718 -0.5258
18949SOL    HW259386   8.522   2.336   5.174  2.5641 -0.1187 -0.7092
18950SOL     OW59387   5.788   7.478   4.288  0.1085  0.2165 -0.3995
18950SOL    HW159388   5.757   7.501   4.376 -0.3501 -2.6691  0.2546
18950SOL    HW259389   5.804   7.384   4.293 -0.4330 -0.0937 -3.5721
18951SOL     OW59390   2.371   8.795   0.972  0.2645  0.1693  0.2302
18951SOL    HW159391   2.326   8.740   1.037 -0.0754  0.6025  0.3683
18951SOL    HW259392   2.439   8.839   1.022  0.5225 -0.1077  0.1238
18952SOL     OW59393   3.984   4.064   3.016  0.2722 -0.5723 -0.2799
18952SOL    HW159394   3.933   3.985   2.997 -0.3828 -0.1019 -0.4861
18952SOL    HW259395   4.044   4.037   3.085  0.7816 -1.5457 -1.0920
18953SOL     OW59396   3.171   7.065   0.867  0.1407  0.5418  0.3959
18953SOL    HW159397   3.133   7.055   0.954 -0.8791  0.6523 -0.0358
18953SOL    HW259398   3.097   7.089   0.811  0.5047 -1.0691 -0.7980
18954SOL     OW59399   5.757   5.852   7.131  0.1473  0.0850  0.3819
18954SOL    HW159400   5.665   5.848   7.104  1.1736 -0.2004 -3.2047
18954SOL    HW259401   5.777   5.762   7.158  0.6944 -1.0661 -3.5665
18955SOL     OW59402   9.742   8.732   3.788  0.0789 -0.1971 -0.3303
18955SOL    HW159403   9.699   8.662   3.738 -0.1415  0.3004 -0.8385
18955SOL    HW259404   9.827   8.743   3.745  0.6982 -1.1104  0.6132
18956SOL     OW59405   7.927   9.006   2.997  0.5029  0.3703  0.0688
18956SOL    HW159406   8.021   9.001   3.015  0.2297 -0.2162  1.4522
18956SOL    HW259407   7.886   8.991   3.083 -0.8544 -0.0031 -0.6336
18957SOL     OW59408   6.302   2.721   6.781 -0.2031 -0.3052 -0.3681
18957SOL    HW159409   6.226   2.737   6.837 -0.2165  0.0309 -0.4842
18957SOL    HW259410   6.295   2.786   6.712 -0.2437 -0.7850 -0.8208
18958SOL     OW59411   1.406   9.338   0.641  0.1214 -0.2557 -0.1938
18958SOL    HW159412   1.416   9.256   0.689  0.9649  0.6708  1.2472
18958SOL    HW259413   1.365   9.397   0.703  1.1343  0.9233 -0.6282
18959SOL     OW59414   4.576   8.811   9.367  0.1330 -0.1207 -0.1802
18959SOL    HW159415   4.507   8.826   9.302 -0.9299 -0.4686  0.8571
18959SOL    HW259416   4.543   8.851   9.447 -1.0730 -4.5085  1.6547
18960SOL     OW59417   6.165   1.007   5.333  0.2277  0.4116 -0.1872
18960SOL    HW159418   6.122   0.924   5.312  3.0732 -1.7265  2.1522
18960SOL    HW259419   6.231   1.018   5.264  0.8514 -0.0424  0.3328
18961SOL     OW59420   5.311   5.017   6.040  0.6055 -0.0313  0.2734
18961SOL    HW159421   5.234   4.960   6.032  0.7580  0.0677 -2.1719
18961SOL    HW259422   5.375   4.981   5.979  1.4338  1.6266  0.1347
18962SOL     OW59423   3.981   4.055   4.990  0.2397 -0.1171 -0.0515
18962SOL    HW159424   4.047   4.004   5.038  1.0970 -0.4268 -1.5032
18962SOL    HW259425   3.964   4.003   4.911 -0.2161  0.9720 -0.6812
18963SOL     OW59426   7.548   2.568   9.893  0.6256  0.0762 -0.4044
18963SOL    HW159427   7.508   2.613   9.967  1.7449 -2.4035  1.7854
18963SOL    HW259428   7.637   2.549   9.922  0.7419 -1.8993 -1.9632
18964SOL     OW59429   8.329   6.308   5.607  0.3590  0.4988  0.2485
18964SOL    HW159430   8.347   6.376   5.541  1.4789  0.9389  0.9959
18964SOL    HW259431   8.245   6.333   5.645 -0.3942  0.1465 -1.1136
18965SOL     OW59432   3.873   3.454   6.608  0.0120 -0.3659 -0.0113
18965SOL    HW159433   3.879   3.411   6.522 -0.4106  3.7095 -2.2305
18965SOL    HW259434   3.780   3.448   6.630 -0.0329 -0.6533 -0.2607
18966SOL     OW59435   3.772   9.380   4.688 -0.0124  0.5620 -0.2951
18966SOL    HW159436   3.723   9.346   4.762  0.9200 -0.8060 -0.2894
18966SOL    HW259437   3.731   9.464   4.669 -1.8675 -0.2070  0.1712
18967SOL     OW59438   8.661   3.277   4.496 -0.1086  0.0795  0.2329
18967SOL    HW159439   8.593   3.337   4.466 -0.1545  0.0266  0.2308
18967SOL    HW259440   8.677   3.302   4.587 -0.9357 -0.6567  0.5833
18968SOL     OW59441   9.152   6.772   3.289  0.1677 -0.1764 -0.3093
18968SOL    HW159442   9.060   6.801   3.289 -0.1213 -1.0385  0.7175
18968SOL    HW259443   9.156   6.708   3.361  1.2943 -1.0326 -1.1182
18969SOL     OW59444   7.310   9.824   9.333 -0.0369 -0.1240 -0.4126
18969SOL    HW159445   7.258   9.744   9.328  1.3750 -0.9844 -1.6151
18969SOL    HW259446   7.296   9.856   9.422 -0.8846 -1.5266 -0.0270
18970SOL     OW59447   8.895   2.643   7.975  0.0143 -0.1382 -0.2029
18970SOL    HW159448   8.906   2.708   7.906  0.6567 -0.4550 -0.4014
18970SOL    HW259449   8.984   2.623   8.003 -0.2195 -0.4266  0.3283
18971SOL     OW59450   0.323   8.193   3.758  0.3420 -0.4866  0.4188
18971SOL    HW159451   0.266   8.148   3.820 -1.9286  1.9247  0.1569
18971SOL    HW259452   0.276   8.188   3.675  2.4202 -1.9248 -0.7384
18972SOL     OW59453   6.858   8.069   2.040  0.0418  0.0213  0.0544
18972SOL    HW159454   6.772   8.041   2.071  0.8374 -1.2406  1.1559
18972SOL    HW259455   6.899   7.989   2.007  0.2231  0.8870 -1.9057
18973SOL     OW59456   6.456   5.610   0.715 -0.1805  0.2027  0.0702
18973SOL    HW159457   6.394   5.567   0.774  0.2194 -0.1837  0.2038
18973SOL    HW259458   6.539   5.566   0.730 -0.5506 -1.4835 -2.4519
18974SOL     OW59459   0.750   7.333   9.084 -0.6461 -0.4156 -0.0436
18974SOL    HW159460   0.772   7.406   9.140  0.1689 -0.5182 -0.2251
18974SOL    HW259461   0.698   7.275   9.139 -1.1620  0.2209  0.1437
18975SOL     OW59462   2.555   1.979   2.714  0.2195 -0.5928  1.0119
18975SOL    HW159463   2.477   1.927   2.734 -1.4327  1.4078 -0.0465
18975SOL    HW259464   2.607   1.975   2.795 -1.4854 -1.0549  2.1244
18976SOL     OW59465   7.518   3.572   4.078 -0.0999  0.3390 -0.1727
18976SOL    HW159466   7.507   3.537   4.166 -0.8676  1.1451  0.0605
18976SOL    HW259467   7.480   3.660   4.082 -0.1921  0.3615 -1.3144
18977SOL     OW59468   1.591   1.943   8.814 -0.5659  0.3334 -0.6656
18977SOL    HW159469   1.589   1.876   8.882  0.2954 -0.0058 -0.9748
18977SOL    HW259470   1.624   1.899   8.737  0.8120  1.3029 -0.6513
18978SOL     OW59471   7.355   3.878   0.462  0.0873 -0.1076  0.6874
18978SOL    HW159472   7.433   3.927   0.488  0.6790 -0.2069 -0.8457
18978SOL    HW259473   7.386   3.820   0.392 -1.5469  0.5044 -0.5591
18979SOL     OW59474   7.638   2.011   2.391 -0.0597  0.5033  0.4009
18979SOL    HW159475   7.616   2.104   2.401 -0.1082  0.6228 -0.6793
18979SOL    HW259476   7.702   2.010   2.320  1.0991 -0.1497  1.4477
18980SOL     OW59477   2.414   9.209   0.099 -0.0804 -0.4933  0.5807
18980SOL    HW159478   2.328   9.175   0.078 -1.6932  3.1685  0.8687
18980SOL    HW259479   2.460   9.214   0.015 -1.1428  0.1295  0.0359
18981SOL     OW59480   9.606   2.822   7.301  0.4042  0.2186  0.2839
18981SOL    HW159481   9.688   2.871   7.303  1.9764 -2.1568 -2.0818
18981SOL    HW259482   9.584   2.818   7.208  0.1017 -3.0976  0.4615
18982SOL     OW59483   9.312   3.014   9.958 -0.2024 -0.1677  0.6907
18982SOL    HW159484   9.380   3.079   9.975 -3.1983  2.7075  2.3291
18982SOL    HW259485   9.302   2.967  10.041 -0.8611  0.0433  0.7322
18983SOL     OW59486   2.645   4.607   4.390  0.5640  0.6013 -0.0096
18983SOL    HW159487   2.699   4.554   4.449  0.7715  0.2144 -0.5445
18983SOL    HW259488   2.669   4.698   4.410  0.7470  0.4653  0.3909
18984SOL     OW59489   4.827   7.275   6.386 -0.3282  0.1879  0.1059
18984SOL    HW159490   4.869   7.349   6.431  2.8409 -1.5452  0.1394
18984SOL    HW259491   4.754   7.251   6.442 -0.1978  2.0104  1.1123
18985SOL     OW59492   5.930   5.438   5.619 -0.0505  0.5199 -0.1418
18985SOL    HW159493   5.896   5.357   5.656  1.1478 -1.3070 -2.8543
18985SOL    HW259494   6.021   5.443   5.650  0.1483  0.3451 -0.6837
18986SOL     OW59495   4.776   6.954   9.839 -0.6646 -0.0558 -0.3955
18986SOL    HW159496   4.857   7.005   9.843 -1.2534  0.8809 -0.1963
18986SOL    HW259497   4.792   6.879   9.896 -0.1206  0.3903  0.0435
18987SOL     OW59498   4.667   5.796   7.636  0.0991  0.0764  0.2772
18987SOL    HW159499   4.631   5.730   7.578 -0.9743  0.3832  0.5843
18987SOL    HW259500   4.756   5.766   7.655 -0.2428 -1.0619  0.0980
18988SOL     OW59501   1.021   2.827   5.474 -0.6441  0.4404  0.1683
18988SOL    HW159502   1.006   2.830   5.379  0.1298  1.0726  0.0589
18988SOL    HW259503   1.007   2.917   5.504  1.3303  0.7495  0.2814
18989SOL     OW59504   9.706   5.880   6.500 -0.2832  0.4216 -0.4677
18989SOL    HW159505   9.786   5.928   6.519  0.6794 -1.7001  1.1406
18989SOL    HW259506   9.730   5.821   6.429 -0.9869  1.1789 -1.3370
18990SOL     OW59507   6.545   4.866   4.680  0.2582 -0.2518 -0.2179
18990SOL    HW159508   6.463   4.915   4.680  0.7425  0.5665 -0.9127
18990SOL    HW259509   6.613   4.933   4.684  0.9142 -0.8984 -0.3785
18991SOL     OW59510   6.135   9.557   5.948  0.6065 -0.3787  0.4337
18991SOL    HW159511   6.154   9.463   5.944  2.4457 -0.0682  1.7497
18991SOL    HW259512   6.039   9.561   5.947  0.5079 -2.2433 -0.0530
18992SOL     OW59513   0.141   2.697   9.760 -0.6911  0.6520  0.2453
18992SOL    HW159514   0.133   2.768   9.697  0.4117  2.1569  1.7656
18992SOL    HW259515   0.228   2.659   9.743 -0.2141  1.3304  1.1025
18993SOL     OW59516   2.992   3.132   0.264 -0.4689 -0.3038  0.1312
18993SOL    HW159517   3.034   3.108   0.181 -2.5691 -0.0515 -1.0462
18993SOL    HW259518   2.988   3.050   0.313 -1.6721 -1.0593 -1.1717
18994SOL     OW59519   7.286   7.635   3.609 -0.4315  0.7145 -0.7446
18994SOL    HW159520   7.315   7.568   3.671 -0.7339  0.3851 -0.9603
18994SOL    HW259521   7.202   7.665   3.644 -0.2442  1.0568 -0.5885
18995SOL     OW59522   3.153   3.178   4.876 -0.0870  0.4618  0.7371
18995SOL    HW159523   3.102   3.231   4.814 -0.2077 -0.9039 -0.3678
18995SOL    HW259524   3.111   3.092   4.874  1.5707 -0.3826  0.6270
18996SOL     OW59525   0.956   8.670   5.057  0.5160  0.2335 -1.0191
18996SOL    HW159526   1.036   8.716   5.032  1.0267 -0.7015 -1.1261
18996SOL    HW259527   0.967   8.582   5.022  0.9618 -0.9444  1.9322
18997SOL     OW59528   3.202  10.068  10.133  0.0433 -0.3447  1.0776
18997SOL    HW159529   3.217  10.058  10.039  2.2083 -0.7485  1.4521
18997SOL    HW259530   3.264  10.009  10.174 -0.0691  0.6995  2.8150
18998SOL     OW59531   0.410   9.848   3.211 -0.0351 -0.0622  0.2404
18998SOL    HW159532   0.490   9.811   3.175  0.0600  1.9436 -1.6831
18998SOL    HW259533   0.441   9.913   3.275 -0.0983  1.1201 -0.9168
18999SOL     OW59534   2.644   6.517   9.188  0.1770  0.2179 -0.4109
18999SOL    HW159535   2.709   6.567   9.138  0.2465  0.0996 -0.4380
18999SOL    HW259536   2.695   6.453   9.237  0.1260  0.4738 -0.0248
19000SOL     OW59537   6.666   1.282   3.875  0.2490  0.0970 -0.3627
19000SOL    HW159538   6.584   1.237   3.856  0.8284  0.0011 -2.8071
19000SOL    HW259539   6.642   1.373   3.891 -0.3808  0.0100 -0.8007
19001SOL     OW59540   3.197   2.756   3.010  0.8543 -0.4931  0.2880
19001SOL    HW159541   3.244   2.818   2.953  0.3161 -0.6810 -0.3680
19001SOL    HW259542   3.196   2.799   3.096 -2.1668  1.8321 -0.8166
19002SOL     OW59543  10.038   1.930   6.649 -0.3361  0.2015 -0.7312
19002SOL    HW159544  10.092   2.000   6.611  0.4566  0.1192  0.2307
19002SOL    HW259545  10.014   1.875   6.575  0.3198  0.6309 -1.2638
19003SOL     OW59546   9.923   0.748   2.379 -0.7175 -0.1557 -0.7134
19003SOL    HW159547   9.844   0.769   2.430  0.2529  0.1744  0.6779
19003SOL    HW259548   9.932   0.820   2.318 -1.5005 -0.1998 -0.8929
19004SOL     OW59549   1.227   0.140   4.465  0.0708  0.1094  0.1681
19004SOL    HW159550   1.212   0.055   4.506  0.2609 -0.5122 -1.0360
19004SOL    HW259551   1.320   0.139   4.442 -0.0419  0.4482 -0.2993
19005SOL     OW59552   0.276   7.094   4.088 -0.6078  0.0400  0.1168
19005SOL    HW159553   0.219   7.146   4.032  0.7465  0.9033 -0.4694
19005SOL    HW259554   0.304   7.021   4.033  0.6671  0.8511 -0.3213
19006SOL     OW59555   2.613   5.898   1.053 -0.7759 -0.1823 -0.0550
19006SOL    HW159556   2.642   5.872   0.966 -0.3628  0.0618  0.0125
19006SOL    HW259557   2.679   5.862   1.113 -1.7580 -1.5130  0.2681
19007SOL     OW59558   9.334   4.817   3.970 -0.2053  0.4953 -0.0737
19007SOL    HW159559   9.427   4.799   3.985  0.1105  2.3653  0.4106
19007SOL    HW259560   9.326   4.824   3.875 -0.2041 -1.4162 -0.2211
19008SOL     OW59561   5.291   4.168   9.455 -0.1942 -0.6583  0.0453
19008SOL    HW159562   5.319   4.235   9.393 -0.7825 -0.2068  0.2629
19008SOL    HW259563   5.203   4.194   9.480  0.0728 -0.7986  1.1339
19009SOL     OW59564   2.288   3.988   4.263  0.0654 -0.1998 -0.2042
19009SOL    HW159565   2.247   4.026   4.341 -0.6295 -1.6546  0.1718
19009SOL    HW259566   2.246   4.033   4.190 -1.2759 -0.7278  0.2091
19010SOL     OW59567   1.418   6.026   4.758 -0.0796  0.3283  0.1407
19010SOL    HW159568   1.470   5.994   4.832  0.0284  0.7538  0.2519
19010SOL    HW259569   1.475   6.088   4.713 -0.2002  0.1835 -0.2150
19011SOL     OW59570   5.574   6.491   2.442  0.2853 -0.3539  0.0187
19011SOL    HW159571   5.588   6.515   2.534 -0.5985 -0.1587  0.1009
19011SOL    HW259572   5.544   6.401   2.444  0.5115 -0.4338 -0.0988
19012SOL     OW59573   1.042   3.182   2.343 -0.5326 -0.0901 -0.6960
19012SOL    HW159574   0.951   3.153   2.346 -0.1000 -1.5512 -1.3167
19012SOL    HW259575   1.042   3.268   2.385 -1.3842 -2.1250  3.7413
19013SOL     OW59576   0.081   4.714   3.935  0.1944 -0.1184 -0.4442
19013SOL    HW159577   0.129   4.695   3.855 -1.3484  0.1243 -1.4503
19013SOL    HW259578   0.081   4.810   3.940  1.6306 -0.1767  0.6797
19014SOL     OW59579   2.729   2.476   2.537 -0.8799 -0.4687  0.5906
19014SOL    HW159580   2.664   2.433   2.593 -2.1518 -0.0789 -0.5529
19014SOL    HW259581   2.757   2.553   2.587  1.0361 -2.2878  2.4332
19015SOL     OW59582   4.301   2.502   0.316  0.8079  0.5141 -0.6186
19015SOL    HW159583   4.395   2.483   0.308  0.8088  0.0368  0.4730
19015SOL    HW259584   4.298   2.597   0.333  1.0922  0.5027 -0.4993
19016SOL     OW59585   4.506   3.720   4.021  0.3593  0.0310 -0.1808
19016SOL    HW159586   4.527   3.633   4.055  1.2195 -0.3884 -1.7438
19016SOL    HW259587   4.543   3.780   4.085 -0.5948 -0.7510  1.1207
19017SOL     OW59588   7.631   3.047   2.137 -0.0580 -0.0750  0.0484
19017SOL    HW159589   7.605   3.091   2.218 -1.2333 -0.6770  0.0097
19017SOL    HW259590   7.589   3.098   2.068 -1.2338 -1.1096 -0.0113
19018SOL     OW59591   3.317   7.152   6.780 -0.4066  0.0157 -0.3958
19018SOL    HW159592   3.334   7.198   6.698  1.4565  0.1672  0.0556
19018SOL    HW259593   3.333   7.060   6.760 -2.3554 -0.2518 -0.8222
19019SOL     OW59594   7.622   5.065   2.230  0.0721 -0.1544  0.2600
19019SOL    HW159595   7.656   5.046   2.317  1.6466  0.4163 -0.2169
19019SOL    HW259596   7.603   5.159   2.231  1.6859  0.1919 -0.5361
19020SOL     OW59597   9.594   3.685   0.859 -0.2969  0.3086  0.2722
19020SOL    HW159598   9.498   3.683   0.866 -0.4493 -1.2279 -1.6891
19020SOL    HW259599   9.621   3.758   0.914 -2.9025  3.0624 -1.9487
19021SOL     OW59600   8.463   7.181   0.835 -0.0456 -0.0818  0.0031
19021SOL    HW159601   8.388   7.128   0.810 -0.2180 -0.2174  0.7925
19021SOL    HW259602   8.431   7.271   0.832 -0.7842 -0.2432  2.1246
19022SOL     OW59603  10.114   2.715   0.726  0.2805  0.4325  0.3331
19022SOL    HW159604  10.026   2.728   0.762 -0.4839 -0.1288 -1.2943
19022SOL    HW259605  10.111   2.628   0.686  1.2499  0.8466 -0.6567
19023SOL     OW59606   5.757   6.799   1.820 -0.0184 -0.1320 -0.7035
19023SOL    HW159607   5.749   6.761   1.908  0.7874 -0.0022 -0.5707
19023SOL    HW259608   5.671   6.786   1.781 -0.7351  0.8004  0.5140
19024SOL     OW59609   8.731   9.422   2.882 -0.5475  0.1741  0.1563
19024SOL    HW159610   8.812   9.456   2.846 -1.0298  0.8838 -0.2834
19024SOL    HW259611   8.665   9.489   2.860 -1.3810 -0.7250 -0.1210
19025SOL     OW59612   5.952   0.794   7.948  0.0980  0.2217 -0.4922
19025SOL    HW159613   5.978   0.819   7.860  1.6573  0.7146  0.0921
19025SOL    HW259614   5.964   0.873   8.000  1.1759 -0.6175  0.5647
19026SOL     OW59615   2.901   8.174   2.261 -0.1812  0.6647  0.0909
19026SOL    HW159616   2.993   8.149   2.256 -0.2400 -0.4266  3.0873
19026SOL    HW259617   2.898   8.263   2.226  2.0600  0.7636  0.1010
19027SOL     OW59618   6.573   8.547   3.941  0.3921  0.1442 -0.3307
19027SOL    HW159619   6.540   8.470   3.988 -1.5767  1.2784  0.1742
19027SOL    HW259620   6.590   8.515   3.852  0.7325 -1.1643  0.1947
19028SOL     OW59621   9.766   3.493   1.064 -0.4579 -0.1458 -0.2653
19028SOL    HW159622   9.721   3.578   1.067 -0.8144 -0.2991 -1.0354
19028SOL    HW259623   9.764   3.468   0.971  0.1515 -0.7283 -0.1269
19029SOL     OW59624   8.157   4.958   1.612 -0.2648 -0.4559  0.5297
19029SOL    HW159625   8.138   5.038   1.661 -1.6829 -0.9971  0.9018
19029SOL    HW259626   8.251   4.959   1.598 -0.3713  1.6483 -0.0957
19030SOL     OW59627   8.904   8.976   5.142  0.0323  0.0838 -0.5472
19030SOL    HW159628   8.884   9.070   5.148 -0.8803 -0.1599  0.2784
19030SOL    HW259629   8.987   8.966   5.188  0.5014  0.5933 -1.2612
19031SOL     OW59630   6.851   4.948   5.002 -0.3860  0.1734  0.0482
19031SOL    HW159631   6.931   4.974   4.956 -0.6375  0.5668 -0.1774
19031SOL    HW259632   6.780   4.980   4.946 -0.6972  0.7461  0.7507
19032SOL     OW59633   4.746   5.151   7.911  0.1857 -0.0391  0.2120
19032SOL    HW159634   4.732   5.057   7.926 -1.8060  0.0685 -0.7690
19032SOL    HW259635   4.704   5.193   7.986  0.6379  0.0841  0.3944
19033SOL     OW59636   3.162  10.104   2.799  0.4634  0.0694 -0.6752
19033SOL    HW159637   3.199  10.016   2.814  1.8238  0.9155  1.1753
19033SOL    HW259638   3.229  10.150   2.749  0.2333  0.3838 -0.6932
19034SOL     OW59639   8.826   3.789  10.020  0.1001  0.3914  0.3223
19034SOL    HW159640   8.905   3.825   9.979 -0.5946  1.4376 -0.1032
19034SOL    HW259641   8.836   3.694  10.010  0.5104  0.5792 -1.2248
19035SOL     OW59642  10.026   4.157   1.369 -0.2188  0.0421  0.0743
19035SOL    HW159643  10.063   4.173   1.283  0.0246  0.0884  0.1894
19035SOL    HW259644  10.101   4.142   1.426 -0.2016  3.0477  0.9181
19036SOL     OW59645   2.478   9.043   4.001 -0.0992  0.4428  0.9582
19036SOL    HW159646   2.441   9.074   3.918 -0.0496  2.9922  1.8493
19036SOL    HW259647   2.402   9.018   4.053 -0.3009  1.5293  1.1849
19037SOL     OW59648   1.816   2.152   8.905  0.4999 -0.1271 -0.5217
19037SOL    HW159649   1.888   2.097   8.873  0.0019 -2.1576  1.7560
19037SOL    HW259650   1.742   2.128   8.850  0.4721 -1.2018 -0.0171
19038SOL     OW59651   9.221   3.292   6.460 -0.1095  0.4237 -0.3562
19038SOL    HW159652   9.220   3.324   6.370 -1.1345 -0.6280 -0.7194
19038SOL    HW259653   9.193   3.201   6.454  0.6757  0.0781  0.9314
19039SOL     OW59654   2.058   0.499   5.335 -0.0228 -0.0431  0.0945
19039SOL    HW159655   1.980   0.552   5.323 -0.2169 -0.5895 -1.1959
19039SOL    HW259656   2.036   0.414   5.296  1.9510  0.4957 -2.3357
19040SOL     OW59657   9.487   0.666   6.466  0.2642  0.5668  0.3395
19040SOL    HW159658   9.460   0.744   6.514 -0.2693  0.4173  0.2870
19040SOL    HW259659   9.582   0.674   6.459  0.2054  1.2496  0.2698
19041SOL     OW59660   4.641   2.286   0.730  1.2756  0.1340 -0.1327
19041SOL    HW159661   4.683   2.359   0.776 -0.2457  1.4717 -0.8336
19041SOL    HW259662   4.596   2.237   0.799  0.2167  1.3008  0.0272
19042SOL     OW59663   9.865   5.704   9.784  0.2215  0.7785  0.4631
19042SOL    HW159664   9.920   5.645   9.835  0.0914  0.6357  0.4378
19042SOL    HW259665   9.777   5.667   9.790  0.3870  0.1797 -0.7186
19043SOL     OW59666   1.187   9.433   5.068 -0.1736  0.0042  0.7413
19043SOL    HW159667   1.104   9.388   5.078 -0.0680 -0.0449  1.4174
19043SOL    HW259668   1.251   9.375   5.108  0.5785 -1.1831 -2.0916
19044SOL     OW59669   9.393   4.118   3.736 -0.4393  0.5433  0.0948
19044SOL    HW159670   9.298   4.119   3.735 -0.4588 -0.8015  0.6414
19044SOL    HW259671   9.418   4.211   3.729 -1.8021  1.0882  2.0651
19045SOL     OW59672   3.594   6.794   4.434  0.3426  0.0376  0.4329
19045SOL    HW159673   3.523   6.790   4.370  0.6208  1.1510  0.0409
19045SOL    HW259674   3.605   6.704   4.464 -0.6053 -0.2906 -0.1924
19046SOL     OW59675   3.620   5.296   4.310  0.3418  0.2671  0.4322
19046SOL    HW159676   3.685   5.281   4.379  0.0949  0.7603  0.7725
19046SOL    HW259677   3.550   5.234   4.330 -0.0973  0.9833  1.0927
19047SOL     OW59678   9.344   2.276   8.796  0.1387  0.5285 -0.4492
19047SOL    HW159679   9.290   2.281   8.718 -0.4089 -0.9806 -0.1829
19047SOL    HW259680   9.323   2.356   8.845 -1.0585  0.4714 -0.8559
19048SOL     OW59681   2.157   9.456   5.506  0.1223  0.7188  0.0235
19048SOL    HW159682   2.127   9.533   5.554  0.3135 -0.5336  2.2187
19048SOL    HW259683   2.149   9.384   5.569  1.7142 -0.7322 -1.3845
19049SOL     OW59684   2.144   3.948   8.643 -0.1174 -0.1150  0.0606
19049SOL    HW159685   2.200   3.935   8.566 -0.2494  2.4328 -0.5440
19049SOL    HW259686   2.194   3.914   8.716  1.1547 -0.1607 -0.8252
19050SOL     OW59687   2.263   9.565   6.593  0.6536  0.0185  0.0930
19050SOL    HW159688   2.260   9.646   6.543  0.4424 -0.0427  0.0048
19050SOL    HW259689   2.322   9.584   6.666  1.0349  0.0800 -0.2312
19051SOL     OW59690   1.582   5.487   8.549  0.2104 -0.3926  0.4561
19051SOL    HW159691   1.591   5.578   8.522 -0.4360  0.1894  2.0880
19051SOL    HW259692   1.657   5.443   8.511  0.9498  0.9887  0.2707
19052SOL     OW59693   3.204   5.988   1.976  0.0838  0.0785  0.3785
19052SOL    HW159694   3.211   5.963   1.884  1.1004  1.4767  0.0632
19052SOL    HW259695   3.289   6.026   1.997  0.0848 -0.8642  2.1036
19053SOL     OW59696   4.353   9.558   5.827  0.2666 -0.3660 -0.7917
19053SOL    HW159697   4.422   9.531   5.887  1.0893  2.1291 -0.5482
19053SOL    HW259698   4.290   9.486   5.829  1.5688 -1.4963  1.0138
19054SOL     OW59699   9.363   6.092   9.202 -0.2375  0.3117  0.6723
19054SOL    HW159700   9.303   6.149   9.251  0.1795  1.6915 -0.3827
19054SOL    HW259701   9.420   6.055   9.269 -1.0466  0.5012  1.4745
19055SOL     OW59702   5.241   2.768   2.995 -0.0810  0.5558  0.6509
19055SOL    HW159703   5.169   2.759   2.933  0.6311  0.6872 -0.1984
19055SOL    HW259704   5.304   2.824   2.951  0.0206  1.4249  1.8717
19056SOL     OW59705   5.206   5.705   0.013  0.4852 -0.2980  0.1355
19056SOL    HW159706   5.155   5.627  -0.010 -0.0869  1.0008 -3.2934
19056SOL    HW259707   5.286   5.697  -0.039  0.3941  1.4159 -0.2804
19057SOL     OW59708   0.013   2.517   8.547  0.3856  0.6685 -0.0093
19057SOL    HW159709  -0.017   2.570   8.474 -1.1926 -0.8931 -0.5370
19057SOL    HW259710  -0.066   2.500   8.598  0.4241 -2.8563 -0.9788
19058SOL     OW59711   1.540   5.502   3.716 -0.5723 -0.1022  0.2883
19058SOL    HW159712   1.572   5.532   3.631  1.4890 -1.3447  0.6023
19058SOL    HW259713   1.473   5.437   3.695 -0.9436  0.4843 -0.3659
19059SOL     OW59714   9.186   1.175   5.564  0.0545  0.5664 -0.4988
19059SOL    HW159715   9.146   1.167   5.478  0.2153 -0.4529 -0.4780
19059SOL    HW259716   9.278   1.150   5.551  0.1887  0.8549 -0.1232
19060SOL     OW59717   8.288   4.156   9.755  0.4221 -0.3580 -0.3043
19060SOL    HW159718   8.279   4.107   9.837  1.1044 -0.7540 -0.4656
19060SOL    HW259719   8.366   4.210   9.768  0.5308 -0.4205 -0.6951
19061SOL     OW59720   8.499   8.970   4.739 -0.9840 -0.0293  0.7719
19061SOL    HW159721   8.438   8.952   4.667 -1.5088  0.6553  1.0417
19061SOL    HW259722   8.451   9.028   4.797  0.0989  0.9391  0.7262
19062SOL     OW59723   9.520   8.350   4.174  0.9105  0.3110  0.0616
19062SOL    HW159724   9.547   8.326   4.263  0.6723  1.4171  0.4435
19062SOL    HW259725   9.572   8.428   4.155  3.0543 -1.4964 -1.8645
19063SOL     OW59726   6.386   5.137   3.292 -0.3177  0.0970 -0.8411
19063SOL    HW159727   6.372   5.049   3.327  3.2596 -1.1573 -2.3468
19063SOL    HW259728   6.443   5.180   3.356 -0.0957  0.4878 -1.2980
19064SOL     OW59729   2.031   2.679   1.941 -0.1647  0.2884  0.7394
19064SOL    HW159730   2.063   2.750   1.996 -0.4964  0.3192  0.8935
19064SOL    HW259731   2.092   2.607   1.957  1.5195  1.2396 -1.1267
19065SOL     OW59732   1.761   6.550   9.243 -0.1818  0.2481  0.2604
19065SOL    HW159733   1.739   6.507   9.325 -2.3673 -0.5276 -0.6749
19065SOL    HW259734   1.716   6.635   9.247 -0.6570  0.0331 -0.2760
19066SOL     OW59735   6.050   4.898   6.606 -0.5106 -0.0307 -0.5604
19066SOL    HW159736   6.089   4.811   6.594 -0.0245  0.1929 -0.6059
19066SOL    HW259737   5.990   4.907   6.532 -0.7136 -0.4108 -0.4443
19067SOL     OW59738   9.826   2.549   1.666  0.1820 -0.8386  0.3068
19067SOL    HW159739   9.785   2.627   1.702  1.0492 -0.2004 -0.0540
19067SOL    HW259740   9.758   2.507   1.615 -0.4265 -0.5709  0.8900
19068SOL     OW59741   0.774   4.068   4.133 -0.9269 -0.5224 -0.0003
19068SOL    HW159742   0.849   4.120   4.107  0.0035 -2.3049 -0.9537
19068SOL    HW259743   0.718   4.129   4.181  0.6370  1.0675 -0.1540
19069SOL     OW59744   2.521   4.838   1.610  0.1645  0.0744  0.3996
19069SOL    HW159745   2.505   4.746   1.628  0.8697  0.1635  1.5337
19069SOL    HW259746   2.592   4.839   1.546  0.4456 -0.1637  0.7081
19070SOL     OW59747  10.101   8.505   9.639 -0.4333 -0.7636 -0.3986
19070SOL    HW159748  10.189   8.503   9.602 -1.0777  0.8426 -2.1090
19070SOL    HW259749  10.093   8.423   9.688  1.9436 -0.9847 -0.3502
19071SOL     OW59750   1.696   4.410   8.807  0.1873  0.3161 -0.2335
19071SOL    HW159751   1.687   4.448   8.894  1.1522  0.0970 -0.0343
19071SOL    HW259752   1.746   4.474   8.757  0.3831  0.0545 -0.3759
19072SOL     OW59753   3.900   4.114   2.570  0.1280 -0.2944 -0.2721
19072SOL    HW159754   3.915   4.050   2.501  1.7394  0.3339 -0.5234
19072SOL    HW259755   3.839   4.071   2.630  2.2253 -2.6088  0.2688
19073SOL     OW59756   1.380   4.284   2.867 -0.2475  0.2362 -0.1479
19073SOL    HW159757   1.450   4.242   2.918 -1.9647 -1.2213  1.0659
19073SOL    HW259758   1.301   4.268   2.918 -1.2274  3.4546 -0.5558
19074SOL     OW59759   3.244   4.225   7.155  0.6014 -0.1080  0.2148
19074SOL    HW159760   3.320   4.174   7.125 -0.7319 -2.5883  0.8709
19074SOL    HW259761   3.252   4.224   7.250 -0.5751 -0.9415  0.3135
19075SOL     OW59762   2.670   9.369   8.203  0.1651 -0.5663 -0.1602
19075SOL    HW159763   2.620   9.415   8.136 -0.3291 -1.4909 -0.4348
19075SOL    HW259764   2.660   9.423   8.282  0.3875  0.2902 -0.7129
19076SOL     OW59765   1.025   5.740   9.233  0.3474  0.6554 -0.1250
19076SOL    HW159766   1.080   5.818   9.236 -1.0156  1.6576 -0.7718
19076SOL    HW259767   1.085   5.668   9.254  1.7997  1.7664 -0.3701
19077SOL     OW59768   4.203   8.576   8.409  0.7828 -0.0978 -0.4932
19077SOL    HW159769   4.292   8.610   8.423 -0.3419  2.8728 -0.3390
19077SOL    HW259770   4.193   8.574   8.313  0.7268  0.2950 -0.4941
19078SOL     OW59771   5.707   8.706   0.098 -0.0127  0.7585 -0.1970
19078SOL    HW159772   5.770   8.763   0.054  0.6491 -0.7940 -1.3215
19078SOL    HW259773   5.663   8.660   0.027 -2.4130  1.7916  0.5819
19079SOL     OW59774   2.815   4.401   6.614  0.5482 -0.1127 -0.2173
19079SOL    HW159775   2.845   4.488   6.586  1.2402 -0.3726 -0.2971
19079SOL    HW259776   2.896   4.351   6.628  0.1553 -0.7270 -0.1140
19080SOL     OW59777   9.705   3.179   6.862  0.0453 -0.1476  0.3564
19080SOL    HW159778   9.669   3.180   6.950  0.7250 -0.5104  0.6365
19080SOL    HW259779   9.631   3.158   6.806 -0.4265  0.2709  0.8189
19081SOL     OW59780   1.999   6.517   6.410 -0.3265 -0.1506 -0.4369
19081SOL    HW159781   1.948   6.449   6.453  1.6424 -2.0360 -1.0269
19081SOL    HW259782   1.936   6.566   6.358 -1.7035 -1.7244 -0.2684
19082SOL     OW59783   6.769   4.780   0.876 -0.2587 -0.2311 -0.4268
19082SOL    HW159784   6.861   4.791   0.854 -0.0057 -2.6717 -0.7742
19082SOL    HW259785   6.730   4.742   0.797 -1.1685 -0.8990  0.3332
19083SOL     OW59786   5.159   5.857   9.819 -0.1362 -0.3279  0.7391
19083SOL    HW159787   5.242   5.833   9.778 -0.5177 -1.4837  0.6330
19083SOL    HW259788   5.183   5.918   9.889  0.8126 -0.7703  0.7979
19084SOL     OW59789   7.043   9.471   4.258  0.0539  0.0179  0.4128
19084SOL    HW159790   6.954   9.498   4.235  0.2564 -0.6641 -1.2413
19084SOL    HW259791   7.053   9.385   4.218  1.7778  0.4941 -0.2173
19085SOL     OW59792   3.921   8.018   1.286  0.4860 -0.3896  0.0549
19085SOL    HW159793   3.854   8.002   1.353 -0.1396  0.1342 -0.4416
19085SOL    HW259794   3.876   8.068   1.218  1.9292  1.9301  0.7482
19086SOL     OW59795   6.077   3.944   3.790 -0.0118  0.0127  0.2006
19086SOL    HW159796   6.060   4.013   3.725  0.2601  0.0306  0.1506
19086SOL    HW259797   6.135   3.882   3.746 -1.7801 -1.2471 -0.4212
19087SOL     OW59798   9.187   4.425   1.479 -0.0860 -0.5219  0.1132
19087SOL    HW159799   9.219   4.365   1.411  2.7291 -0.1908  1.1110
19087SOL    HW259800   9.207   4.512   1.446 -1.7625 -0.2008 -0.1122
19088SOL     OW59801   7.893   3.124   4.124 -0.1581 -0.2982 -0.1279
19088SOL    HW159802   7.890   3.137   4.218 -0.5647 -0.4819 -0.1136
19088SOL    HW259803   7.842   3.044   4.109  1.8278 -1.5881 -0.2637
19089SOL     OW59804   6.689   7.500   7.813  0.3120  0.3483  0.1822
19089SOL    HW159805   6.717   7.451   7.891  0.3603  0.3324  0.1547
19089SOL    HW259806   6.649   7.580   7.848  0.6800  0.5202  0.2104
19090SOL     OW59807   2.348   9.991   1.811  0.1531 -0.2315 -0.1432
19090SOL    HW159808   2.305   9.906   1.801  2.1204 -1.2062 -0.6191
19090SOL    HW259809   2.318  10.041   1.735 -1.2990 -0.3770  0.3300
19091SOL     OW59810   2.473   1.091   2.994 -0.2622  0.1712  0.0193
19091SOL    HW159811   2.385   1.055   3.001 -0.4139  1.1209  3.4441
19091SOL    HW259812   2.524   1.043   3.060  1.5673  0.3562 -1.2122
19092SOL     OW59813   4.638   8.950   8.826 -0.3757 -0.4579  0.3663
19092SOL    HW159814   4.722   8.916   8.856 -0.9301 -1.4893  0.7562
19092SOL    HW259815   4.596   8.982   8.905 -0.3847  0.0070  0.1761
19093SOL     OW59816   3.350   6.736   1.468  0.3619 -0.0973  0.0861
19093SOL    HW159817   3.258   6.763   1.468  0.7369  1.2351 -1.2225
19093SOL    HW259818   3.361   6.689   1.551 -1.2967  0.4161  0.6205
19094SOL     OW59819   0.083   4.979   3.913  0.2443  0.1830  0.0052
19094SOL    HW159820   0.076   5.056   3.970 -0.4855  0.1233  0.0056
19094SOL    HW259821   0.138   5.008   3.840  0.5074  0.5076  0.3262
19095SOL     OW59822   1.035   3.467   3.837  0.1188 -0.5324 -0.1985
19095SOL    HW159823   1.084   3.547   3.859  1.9538 -1.9551  1.0896
19095SOL    HW259824   1.102   3.407   3.804 -1.0311 -1.9562  0.0381
19096SOL     OW59825   3.753   9.124   4.037  0.6704  0.0052 -0.9126
19096SOL    HW159826   3.749   9.063   3.964  1.2583 -0.2360 -0.7515
19096SOL    HW259827   3.842   9.114   4.072  0.0281 -0.7266  0.5608
19097SOL     OW59828   9.851   8.998   9.997 -0.4242  0.2033 -0.0583
19097SOL    HW159829   9.895   8.978  10.079  0.3200 -1.7247 -0.8997
19097SOL    HW259830   9.904   9.067   9.957  0.3992 -0.3216  0.1174
19098SOL     OW59831   6.173   3.405   1.039 -0.5349  0.3936  0.5300
19098SOL    HW159832   6.182   3.359   0.956 -2.8278 -0.6022  0.8129
19098SOL    HW259833   6.261   3.400   1.078 -0.1150 -1.5294 -0.5705
19099SOL     OW59834   0.033   1.146   9.193 -0.3449 -0.0698  0.1183
19099SOL    HW159835  -0.039   1.144   9.256 -0.3738  0.3982  0.1011
19099SOL    HW259836   0.090   1.074   9.220 -0.6341 -0.2116  0.3538
19100SOL     OW59837   5.937   0.080   7.075  0.2714 -0.0452  0.6860
19100SOL    HW159838   5.931   0.151   7.138  3.1680  0.3517  0.5775
19100SOL    HW259839   5.971   0.120   6.996  0.5433 -1.2919  0.1560
19101SOL     OW59840   4.417   6.443   0.119  0.1891 -0.6161  0.7885
19101SOL    HW159841   4.387   6.416   0.032  0.5120 -1.1153  0.8244
19101SOL    HW259842   4.339   6.437   0.175 -0.1471  0.2587  0.4115
19102SOL     OW59843   1.205   8.665   5.646  0.2226  0.3373  0.5855
19102SOL    HW159844   1.157   8.717   5.581  0.9400  0.0078 -0.2275
19102SOL    HW259845   1.144   8.653   5.718  0.0478  2.2873  0.7753
19103SOL     OW59846   4.229   0.955   0.999 -0.0638  0.3462 -0.7291
19103SOL    HW159847   4.296   0.961   0.931  0.7506 -1.4776 -0.1256
19103SOL    HW259848   4.176   0.879   0.974 -0.6904  0.5747 -0.1240
19104SOL     OW59849   5.662   8.264   7.430 -0.0697 -0.4356 -0.0846
19104SOL    HW159850   5.621   8.341   7.391 -1.4861  0.1114  2.3882
19104SOL    HW259851   5.645   8.194   7.367 -1.9193  0.4965 -0.6704
19105SOL     OW59852   0.024   8.847  10.029  0.3074 -0.3443  0.3216
19105SOL    HW159853   0.045   8.789   9.956 -0.0321 -0.8667  0.6365
19105SOL    HW259854  -0.054   8.808  10.070 -0.0362  0.4326  0.4239
19106SOL     OW59855   5.528   2.506   8.963 -1.0512  0.6723  0.3973
19106SOL    HW159856   5.614   2.499   8.922 -1.2472  0.5131  0.0106
19106SOL    HW259857   5.546   2.532   9.054 -0.5623  0.0325  0.4862
19107SOL     OW59858   1.863   4.717   0.210 -0.2307 -0.1180  0.0437
19107SOL    HW159859   1.772   4.736   0.234 -0.0538 -0.4953  1.0460
19107SOL    HW259860   1.857   4.661   0.133 -0.8424  0.0092 -0.0005
19108SOL     OW59861   1.000   6.264   4.654 -0.1860  0.3525 -0.3532
19108SOL    HW159862   0.939   6.201   4.616  0.6097 -1.5644  1.4418
19108SOL    HW259863   1.085   6.243   4.616 -0.0591  0.8827 -0.3759
19109SOL     OW59864   5.844   2.819   0.355  0.0698 -0.2681  0.2744
19109SOL    HW159865   5.833   2.862   0.270  3.3323 -0.3121 -0.2095
19109SOL    HW259866   5.778   2.749   0.354 -1.1092  0.8278 -1.4876
19110SOL     OW59867   8.346   1.455   7.261 -0.5351  0.3679 -0.2394
19110SOL    HW159868   8.391   1.401   7.326  1.2723  0.2689 -1.5390
19110SOL    HW259869   8.335   1.540   7.305  3.4263  1.2632 -0.8198
19111SOL     OW59870   2.452   9.249   5.707 -0.1238 -0.6453 -0.0287
19111SOL    HW159871   2.462   9.311   5.779 -0.6255 -0.1140 -0.4184
19111SOL    HW259872   2.392   9.182   5.742 -0.6772 -0.1840 -0.0812
19112SOL     OW59873   0.050   8.084   2.246  0.3773 -0.5332  0.4724
19112SOL    HW159874   0.038   8.090   2.341  1.4106  0.7830  0.5445
19112SOL    HW259875   0.110   8.011   2.234  2.3077  0.9090  1.0544
19113SOL     OW59876   3.304   6.519   8.850  1.1209 -0.3760 -0.0814
19113SOL    HW159877   3.259   6.592   8.807  0.4613 -0.8150 -0.1460
19113SOL    HW259878   3.327   6.552   8.937 -0.2107 -0.4660  0.3155
19114SOL     OW59879   2.447   1.046   0.510  0.6084 -0.7358  0.0374
19114SOL    HW159880   2.429   1.139   0.496 -1.5244 -0.7609  2.3195
19114SOL    HW259881   2.394   1.002   0.443  0.7866 -0.3527 -0.3611
19115SOL     OW59882   6.393   3.168   5.650  0.1186 -0.9861  0.3399
19115SOL    HW159883   6.403   3.207   5.563  1.6456 -0.3462  0.7902
19115SOL    HW259884   6.341   3.232   5.699  2.9316  0.7072  1.1881
19116SOL     OW59885   0.440   2.790   5.882 -0.5177  0.1181 -0.2614
19116SOL    HW159886   0.450   2.782   5.787 -0.3016 -1.7294 -0.1049
19116SOL    HW259887   0.357   2.747   5.902 -0.9585  1.2096  0.3022
19117SOL     OW59888   6.752   7.219   0.913 -0.9888  0.1298 -0.5712
19117SOL    HW159889   6.746   7.176   0.827  0.3057  0.5284 -0.8773
19117SOL    HW259890   6.690   7.172   0.968 -0.2039 -1.5658 -1.1263
19118SOL     OW59891   0.688   7.947   5.258 -0.4199 -0.0117  0.3946
19118SOL    HW159892   0.706   7.853   5.250  0.3824  0.0694  1.1224
19118SOL    HW259893   0.734   7.986   5.184 -0.3530 -0.1491  0.3636
19119SOL     OW59894   1.178   1.194   0.504 -0.8240 -0.2544  0.1432
19119SOL    HW159895   1.159   1.199   0.598 -0.0101  0.5918  0.2761
19119SOL    HW259896   1.093   1.181   0.463 -1.3006  0.2512  0.9449
19120SOL     OW59897   3.390   9.514   9.185  0.2278 -0.3291  0.1852
19120SOL    HW159898   3.315   9.482   9.136 -1.0938 -0.7255  2.3997
19120SOL    HW259899   3.465   9.501   9.127 -1.0839 -2.1360 -1.1301
19121SOL     OW59900   8.528   3.223   1.060  0.1364 -0.3239 -0.4163
19121SOL    HW159901   8.592   3.169   1.106 -0.1174 -1.1077 -0.9739
19121SOL    HW259902   8.447   3.213   1.111  0.8466  1.9459  1.2138
19122SOL     OW59903   7.388  10.082   9.348 -0.0005  0.4447 -0.1100
19122SOL    HW159904   7.453  10.096   9.279  0.7322  1.0830  0.6926
19122SOL    HW259905   7.360   9.992   9.337  2.3231 -0.4131  0.5919
19123SOL     OW59906   5.395   1.381   8.071  0.2618  0.0968  0.1461
19123SOL    HW159907   5.343   1.441   8.017  0.1377  0.6545  0.8678
19123SOL    HW259908   5.413   1.431   8.151  0.4204 -0.7309  0.6311
19124SOL     OW59909   6.549   6.394   1.756  0.4896 -0.0782 -0.3206
19124SOL    HW159910   6.594   6.322   1.801 -1.4364 -0.3838  1.1856
19124SOL    HW259911   6.618   6.459   1.742  1.3534 -0.3211  2.3820
19125SOL     OW59912   9.753   8.710   6.391  0.5270  0.0448  0.1284
19125SOL    HW159913   9.706   8.659   6.325  2.2934 -0.2759 -0.9286
19125SOL    HW259914   9.821   8.756   6.341  0.8672  1.0403  1.5035
19126SOL     OW59915   2.116   1.861   1.471  0.0862 -0.3974  0.1362
19126SOL    HW159916   2.210   1.849   1.484 -0.0279 -0.7870  0.5970
19126SOL    HW259917   2.076   1.783   1.509 -0.3620 -0.7027 -0.9211
19127SOL     OW59918   2.567   0.268   3.416  0.4832  0.1009  0.2733
19127SOL    HW159919   2.606   0.355   3.418 -1.0559  0.8388 -0.6486
19127SOL    HW259920   2.509   0.270   3.340 -0.5835 -1.2892  1.0308
19128SOL     OW59921   5.354   5.940   5.012  0.4147 -0.0102 -0.2026
19128SOL    HW159922   5.444   5.936   5.042 -0.0276 -1.2272  1.0205
19128SOL    HW259923   5.301   5.921   5.089 -0.9005  0.7027 -0.8965
19129SOL     OW59924   9.492   9.349   8.878 -0.3877 -0.4415 -0.1562
19129SOL    HW159925   9.569   9.400   8.904 -0.2897 -0.2953 -0.7188
19129SOL    HW259926   9.431   9.414   8.842 -1.3109 -0.3740  1.4906
19130SOL     OW59927   5.328   6.782   9.197  0.5585  0.1391 -0.6797
19130SOL    HW159928   5.255   6.754   9.143 -0.8583  2.4841 -0.0677
19130SOL    HW259929   5.294   6.780   9.287  1.9577 -0.8836 -0.1441
19131SOL     OW59930   1.773   1.648   0.303  0.7486 -0.4266 -0.3112
19131SOL    HW159931   1.746   1.688   0.220  1.8730 -2.3439 -1.6546
19131SOL    HW259932   1.700   1.663   0.362  0.5370  2.2652 -1.2160
19132SOL     OW59933   5.024   2.350   6.078 -0.1429  0.1365  0.0691
19132SOL    HW159934   5.106   2.348   6.028 -0.1683 -0.8999  0.0682
19132SOL    HW259935   5.052   2.346   6.169 -0.2035 -0.5048  0.0604
19133SOL     OW59936   3.287   0.202   5.948 -0.1617 -0.1299  0.0853
19133SOL    HW159937   3.269   0.186   5.855 -0.0807  4.0953 -0.7615
19133SOL    HW259938   3.377   0.173   5.960 -0.0053 -0.2701 -1.2745
19134SOL     OW59939   9.249   8.872   9.950  0.1134 -0.5630  0.1084
19134SOL    HW159940   9.233   8.795   9.896  0.2819 -0.2073 -0.4478
19134SOL    HW259941   9.328   8.852   9.999 -0.4676 -1.1989  0.7975
19135SOL     OW59942   3.675   6.105   4.948 -0.0398  0.2440  0.4073
19135SOL    HW159943   3.755   6.150   4.977 -0.2245 -0.0551  1.3934
19135SOL    HW259944   3.614   6.116   5.021 -1.0753  0.9082 -0.5417
19136SOL     OW59945   3.185   7.451   3.166 -0.0575 -0.0445  0.4045
19136SOL    HW159946   3.261   7.444   3.224  1.0940 -0.2637 -1.1075
19136SOL    HW259947   3.126   7.511   3.212  1.3566  0.7424  1.2439
19137SOL     OW59948   3.475   2.636   0.944  0.0403 -0.1404 -0.1214
19137SOL    HW159949   3.510   2.716   0.983  0.8602 -0.1581 -0.8101
19137SOL    HW259950   3.524   2.566   0.987  0.4994 -0.1876 -0.7080
19138SOL     OW59951   0.008   4.837   8.008 -0.2040  0.0701 -0.6031
19138SOL    HW159952   0.005   4.888   8.089  0.4276  0.6784 -0.9574
19138SOL    HW259953  -0.056   4.880   7.950 -0.9610 -0.6168 -0.2888
19139SOL     OW59954   2.609   5.929   3.852 -0.2014 -0.4431 -0.2437
19139SOL    HW159955   2.632   5.839   3.878  1.7924  0.0028 -0.3647
19139SOL    HW259956   2.627   5.981   3.930 -0.5032 -0.0307 -0.4521
19140SOL     OW59957   2.218   0.708   3.064  0.0413 -0.5747 -0.4981
19140SOL    HW159958   2.210   0.615   3.044 -0.5595 -0.1872 -2.1147
19140SOL    HW259959   2.145   0.726   3.124 -1.6104 -0.5166 -2.4990
19141SOL     OW59960   5.387   3.339   7.306 -0.4958  0.1386  0.6023
19141SOL    HW159961   5.360   3.430   7.315  1.0804  0.6219  0.7023
19141SOL    HW259962   5.366   3.299   7.390 -1.5187  0.3183  0.4339
19142SOL     OW59963   6.375   0.545   3.067  0.0441 -0.4190 -1.0833
19142SOL    HW159964   6.357   0.469   3.011 -0.6691 -0.5081 -0.7432
19142SOL    HW259965   6.464   0.531   3.098 -0.3197 -1.4940 -0.4701
19143SOL     OW59966   8.585   0.638   2.948  0.0107 -1.0154  0.3361
19143SOL    HW159967   8.536   0.567   2.988 -1.6853 -0.7305 -1.1485
19143SOL    HW259968   8.575   0.624   2.854 -1.2994  1.7955  0.0004
19144SOL     OW59969   9.731   2.259   3.094 -0.0626  0.0906 -0.0520
19144SOL    HW159970   9.746   2.313   3.171 -0.7376  1.0967 -0.6125
19144SOL    HW259971   9.640   2.228   3.104 -0.4630  0.9817 -0.9012
19145SOL     OW59972   8.444   9.324   9.527 -0.0510  0.2957  0.1315
19145SOL    HW159973   8.420   9.275   9.448  0.4522  1.8700 -1.0256
19145SOL    HW259974   8.426   9.263   9.599 -1.4348 -0.8266 -1.1193
19146SOL     OW59975   8.119   6.185   2.759  0.5019 -0.3676 -0.4103
19146SOL    HW159976   8.137   6.091   2.763  0.4382 -0.4897 -2.2338
19146SOL    HW259977   8.026   6.190   2.736 -0.1410  0.1839  2.2120
19147SOL     OW59978   9.708   2.228   2.541  1.0006  0.1782 -0.4167
19147SOL    HW159979   9.648   2.185   2.480  0.2212  1.1425 -0.3457
19147SOL    HW259980   9.656   2.243   2.619  2.1235 -1.4386  0.6731
19148SOL     OW59981   2.909   4.273   2.708 -0.5952  0.1170 -0.4148
19148SOL    HW159982   2.962   4.196   2.687 -2.1740 -0.7986 -1.1214
19148SOL    HW259983   2.951   4.345   2.660 -0.4244 -0.7292 -1.5287
19149SOL     OW59984   4.563   7.410   8.726 -0.0561  0.1213  0.2318
19149SOL    HW159985   4.535   7.376   8.641  0.1048 -2.7384  1.2524
19149SOL    HW259986   4.605   7.335   8.769  0.5458  1.7119  2.5347
19150SOL     OW59987   8.298   6.510   7.488  0.3045  0.4931 -0.2285
19150SOL    HW159988   8.243   6.583   7.516  0.2590  0.5170 -0.3801
19150SOL    HW259989   8.236   6.438   7.473  0.4674  0.0541  1.0975
19151SOL     OW59990   6.722   3.911   5.429  0.2001 -0.5117 -0.0557
19151SOL    HW159991   6.677   3.983   5.385 -0.8297 -0.0367  1.7347
19151SOL    HW259992   6.769   3.953   5.501  0.1066 -1.5420  0.6160
19152SOL     OW59993   9.181   8.861   5.006 -0.4468 -0.0475  0.2979
19152SOL    HW159994   9.109   8.915   4.974 -0.5504 -0.2495  0.1902
19152SOL    HW259995   9.151   8.771   4.996 -0.2342 -0.1301  0.3813
19153SOL     OW59996   7.414   5.232   7.864 -0.2299 -0.4776  1.0200
19153SOL    HW159997   7.351   5.271   7.802 -2.0137  0.3943  3.2914
19153SOL    HW259998   7.499   5.244   7.822 -1.3638  0.2786 -1.1693
19154SOL     OW59999  10.160   3.213   1.996  0.0442  0.8436  0.3208
19154SOL    HW160000  10.197   3.170   2.073 -0.7923  0.1744  0.3506
19154SOL    HW260001  10.191   3.160   1.922  0.9987  1.5899  0.1705
19155SOL     OW60002   0.327   9.396   8.426  0.4324 -0.2175  0.4701
19155SOL    HW160003   0.359   9.445   8.502  2.1124 -1.4033  0.5515
19155SOL    HW260004   0.238   9.372   8.450 -0.5276  2.9162  0.3477
19156SOL     OW60005   6.342   7.551   0.247  0.0468  0.3131 -0.3891
19156SOL    HW160006   6.350   7.573   0.340 -0.1785 -1.1306 -0.0175
19156SOL    HW260007   6.311   7.460   0.247  3.1173 -0.7657 -1.8793
19157SOL     OW60008   3.377   6.499   5.406  0.3409 -0.5618  0.7578
19157SOL    HW160009   3.427   6.546   5.472 -2.8880  2.0102  1.5508
19157SOL    HW260010   3.311   6.562   5.377 -1.2279 -3.1461 -1.5863
19158SOL     OW60011   1.607   5.888   3.771 -0.0695 -0.4204 -0.3247
19158SOL    HW160012   1.662   5.815   3.802  1.3683  0.9910  0.4989
19158SOL    HW260013   1.653   5.921   3.694 -0.3847  0.0244 -0.3224
19159SOL     OW60014   0.365   5.042   5.506  0.6047 -0.7226  0.2065
19159SOL    HW160015   0.336   5.106   5.571  0.4091 -1.3605  0.7482
19159SOL    HW260016   0.427   4.987   5.553  0.9623 -0.7774 -0.3284
19160SOL     OW60017   1.893   4.421   9.140  0.0690 -0.1734  0.0865
19160SOL    HW160018   1.813   4.473   9.146 -0.1303 -0.2858 -1.5027
19160SOL    HW260019   1.934   4.432   9.226 -1.3628  0.3332  0.7275
19161SOL     OW60020   0.160   4.460   2.237  0.3884  0.3442  0.3784
19161SOL    HW160021   0.105   4.472   2.160 -3.1059 -0.0048  2.7311
19161SOL    HW260022   0.192   4.370   2.230 -0.6543  0.0170 -0.1955
19162SOL     OW60023   5.734   8.827   2.483  0.1145 -0.8046 -0.6622
19162SOL    HW160024   5.682   8.873   2.549 -0.5349 -1.7917 -0.4763
19162SOL    HW260025   5.677   8.821   2.407  0.6898 -0.1020 -1.1661
19163SOL     OW60026   0.388   1.713   5.771 -0.1087  0.0643 -0.6535
19163SOL    HW160027   0.427   1.800   5.765 -1.4104  0.7890  0.8716
19163SOL    HW260028   0.293   1.729   5.774 -0.4679 -1.5331 -2.2971
19164SOL     OW60029   3.825   1.264   9.193  0.4701  0.3655 -0.8844
19164SOL    HW160030   3.880   1.291   9.266 -0.3620  3.2956 -1.2722
19164SOL    HW260031   3.814   1.344   9.141 -3.0999 -0.4225 -1.4723
19165SOL     OW60032   9.495   4.875   4.369  0.5422  0.1698 -0.3391
19165SOL    HW160033   9.432   4.848   4.435  0.3725  0.5117 -0.3570
19165SOL    HW260034   9.517   4.795   4.322  0.2268  0.0245 -0.2419
19166SOL     OW60035   3.046  10.165   8.061  0.2302 -0.0746  0.3580
19166SOL    HW160036   3.091  10.248   8.073  1.1776 -0.7053  1.3288
19166SOL    HW260037   2.972  10.169   8.122  0.8696 -0.3527  1.1596
19167SOL     OW60038   4.026   4.238   6.085  0.3541 -0.3946 -0.2433
19167SOL    HW160039   4.052   4.312   6.030 -0.0340  1.1951  1.6251
19167SOL    HW260040   3.985   4.176   6.025  1.2366  0.6313 -1.9543
19168SOL     OW60041   4.003   9.131   2.745  0.1436 -0.0224  0.7785
19168SOL    HW160042   4.038   9.043   2.734  0.2216  0.1901 -0.7007
19168SOL    HW260043   4.079   9.185   2.768  0.2701 -0.1355  0.6233
19169SOL     OW60044   8.841   6.426   6.914  0.6047 -0.3795  0.2567
19169SOL    HW160045   8.810   6.515   6.928 -0.0458 -0.3763 -1.0709
19169SOL    HW260046   8.868   6.396   7.000  1.4604  1.3349  0.6004
19170SOL     OW60047   5.341   1.619   9.364 -0.0607  0.0150  0.0742
19170SOL    HW160048   5.259   1.629   9.411  1.1432  0.7686  2.0989
19170SOL    HW260049   5.328   1.543   9.307 -1.6442 -0.7884  1.4795
19171SOL     OW60050   8.650   4.161   1.719 -0.0911  0.0457  0.1541
19171SOL    HW160051   8.740   4.148   1.749 -0.8234 -1.3727  1.8206
19171SOL    HW260052   8.642   4.256   1.709  1.3339  0.2487  0.8022
19172SOL     OW60053   1.869   7.057   2.475 -0.7171  0.4371 -0.4255
19172SOL    HW160054   1.907   6.983   2.427 -1.1678 -0.1297  0.0875
19172SOL    HW260055   1.836   7.018   2.556 -0.0270  1.3711  0.3186
19173SOL     OW60056   9.345   4.862   0.036  0.1310 -0.1704  0.0520
19173SOL    HW160057   9.343   4.951   0.070  2.0465 -0.4608  1.0031
19173SOL    HW260058   9.417   4.863  -0.028 -0.6948 -0.7014 -0.8948
19174SOL     OW60059   3.293   0.800   0.533 -0.3020 -0.5022  0.1683
19174SOL    HW160060   3.317   0.718   0.490 -0.1524 -0.1425 -0.4447
19174SOL    HW260061   3.255   0.773   0.617  1.2326 -1.1202  0.6680
19175SOL     OW60062   6.919  10.103   2.052 -0.1028 -0.0795 -0.6544
19175SOL    HW160063   6.831  10.084   2.020  0.0614 -1.2170 -0.4446
19175SOL    HW260064   6.905  10.166   2.123 -0.6728  0.3902 -1.1787
19176SOL     OW60065   7.241   8.488   3.357 -0.5510  0.3876  0.5414
19176SOL    HW160066   7.236   8.467   3.450  0.8478  0.0139  0.5481
19176SOL    HW260067   7.324   8.450   3.329 -1.6195 -0.6908 -1.1676
19177SOL     OW60068   6.533   0.738   1.019 -0.8171  0.1592 -0.8806
19177SOL    HW160069   6.439   0.720   1.019 -0.5361 -1.4432 -2.5579
19177SOL    HW260070   6.545   0.799   0.946 -0.3896 -0.5870 -1.4341
19178SOL     OW60071   0.428   7.480   9.297  0.0707  0.2999  0.5641
19178SOL    HW160072   0.510   7.482   9.248  0.6770  0.6632  1.5655
19178SOL    HW260073   0.430   7.398   9.346 -0.2047  0.2683  0.5264
19179SOL     OW60074   8.492   5.169   8.652  0.2564 -0.1803 -0.3575
19179SOL    HW160075   8.424   5.124   8.703 -0.7545  1.9029  0.1885
19179SOL    HW260076   8.573   5.125   8.677 -0.4789 -0.5397  1.4979
19180SOL     OW60077   7.873   3.730   8.157  0.2600 -0.3605  0.6416
19180SOL    HW160078   7.897   3.779   8.078 -0.8624 -2.6461 -1.1705
19180SOL    HW260079   7.913   3.644   8.144 -0.7531 -1.0652  2.1089
19181SOL     OW60080   8.779   5.759  10.177  0.3127  0.5088 -0.0063
19181SOL    HW160081   8.820   5.802  10.252  1.1712 -0.5046  0.1082
19181SOL    HW260082   8.830   5.680  10.163 -0.3617  0.2560 -1.1355
19182SOL     OW60083   2.931   4.345   3.185  0.1532  0.1975  0.2654
19182SOL    HW160084   2.974   4.351   3.100  0.5470  0.1276  0.4574
19182SOL    HW260085   2.962   4.421   3.233 -0.0073  0.1943  0.3735
19183SOL     OW60086   6.222   9.585   9.863 -0.0228  0.5461 -0.5088
19183SOL    HW160087   6.233   9.535   9.943  1.0441 -0.7102 -1.4070
19183SOL    HW260088   6.311   9.602   9.833 -0.3647 -1.8293 -3.1130
19184SOL     OW60089   7.519   5.275   2.650  0.1433 -0.1070 -0.4301
19184SOL    HW160090   7.602   5.233   2.671 -0.0824 -1.3757 -1.9727
19184SOL    HW260091   7.453   5.216   2.686 -0.1379 -0.2182 -1.1265
19185SOL     OW60092   0.089   3.015   9.116 -0.2930 -0.3396  0.0147
19185SOL    HW160093   0.149   3.045   9.047  0.6319 -0.4936  0.7406
19185SOL    HW260094   0.141   2.954   9.168 -1.9119 -2.5941 -0.9512
19186SOL     OW60095   0.077   4.767   0.602 -0.2043 -0.1837 -0.0094
19186SOL    HW160096   0.156   4.769   0.549 -0.8193 -0.1723 -0.9308
19186SOL    HW260097   0.023   4.838   0.568 -1.5225 -1.5370 -0.7950
19187SOL     OW60098   8.893  10.056   5.244 -0.4450  0.0617  0.7007
19187SOL    HW160099   8.918  10.146   5.267  0.3882 -0.1756  0.7307
19187SOL    HW260100   8.953  10.032   5.174 -0.7046 -0.4622  0.6577
19188SOL     OW60101   4.850   9.890   6.847 -0.1711  0.0490 -0.0766
19188SOL    HW160102   4.859   9.942   6.768 -1.6775  0.4493 -0.0015
19188SOL    HW260103   4.808   9.949   6.910 -0.0996 -0.6451  0.6330
19189SOL     OW60104   3.838   3.541   4.756 -0.2250 -0.2475  0.0266
19189SOL    HW160105   3.843   3.510   4.666  0.5309 -1.0336  0.3339
19189SOL    HW260106   3.744   3.545   4.775 -0.3498 -2.2138 -0.0729
19190SOL     OW60107   6.278   6.537   5.647 -0.1461 -0.3544  0.1479
19190SOL    HW160108   6.326   6.499   5.573 -0.3844  0.3229 -0.3600
19190SOL    HW260109   6.217   6.469   5.675 -0.3911 -0.4381 -0.5922
19191SOL     OW60110   3.985   1.078   0.857  0.3442 -0.5451 -0.2211
19191SOL    HW160111   4.071   1.049   0.827 -0.6447 -4.0320  0.0774
19191SOL    HW260112   3.930   1.078   0.779  0.6088  1.8779 -0.4500
19192SOL     OW60113   0.991   5.698   6.594  0.3307 -0.5276 -0.1803
19192SOL    HW160114   0.994   5.791   6.616  1.1036 -0.9066  1.3965
19192SOL    HW260115   1.059   5.687   6.527  0.6062 -0.0440  0.0147
19193SOL     OW60116   7.688   5.694   7.194 -0.1036 -0.0878 -0.3895
19193SOL    HW160117   7.741   5.742   7.258  0.4023 -0.8214 -0.2514
19193SOL    HW260118   7.642   5.762   7.146 -0.1007  0.4979  0.4153
19194SOL     OW60119   8.012   4.855   1.400  0.8273 -0.5087  0.1405
19194SOL    HW160120   7.924   4.865   1.436 -0.1500 -2.2962 -1.6592
19194SOL    HW260121   8.070   4.878   1.472 -1.0963 -0.8106  1.8310
19195SOL     OW60122   7.977   6.319   0.511 -0.3933  0.2569  0.5549
19195SOL    HW160123   8.069   6.329   0.485 -0.4036  3.0317  1.4300
19195SOL    HW260124   7.961   6.393   0.570 -3.2339 -0.1433  0.3301
19196SOL     OW60125   8.463   0.078   8.140  0.2045 -0.0444  0.2002
19196SOL    HW160126   8.443   0.166   8.109  3.8889  0.0094 -2.3563
19196SOL    HW260127   8.405   0.021   8.090 -0.9935  0.8003  0.6164
19197SOL     OW60128   0.167   6.028   7.053  0.2925  0.2448  0.1389
19197SOL    HW160129   0.165   6.114   7.013  0.4853  0.0827 -0.2210
19197SOL    HW260130   0.181   5.967   6.980  4.4657  0.2249  0.8166
19198SOL     OW60131   0.610   6.182   6.521 -0.0958  0.1516 -0.1423
19198SOL    HW160132   0.630   6.214   6.609 -0.2900  0.4194 -0.1957
19198SOL    HW260133   0.575   6.258   6.475  0.0816  0.0302 -0.4769
19199SOL     OW60134   5.685   9.305   9.346 -0.6324  0.4764 -0.3512
19199SOL    HW160135   5.647   9.260   9.270 -1.6569  0.0888  0.3836
19199SOL    HW260136   5.630   9.383   9.356  0.3226  1.2153 -0.8117
19200SOL     OW60137   6.154   9.961   9.363 -0.0481 -0.4338  0.0035
19200SOL    HW160138   6.122   9.941   9.451  1.3242 -1.4336  0.2897
19200SOL    HW260139   6.244   9.990   9.376 -0.5541  1.6198 -0.8628
19201SOL     OW60140   0.179   6.267   1.641  0.4879  0.6895  0.4699
19201SOL    HW160141   0.092   6.235   1.665  0.9864  0.3607  1.8629
19201SOL    HW260142   0.238   6.229   1.706  1.6039  1.3502 -0.1360
19202SOL     OW60143   6.357   9.932   7.467  0.1072 -0.2077  0.1024
19202SOL    HW160144   6.368   9.996   7.398 -3.0041 -0.1641 -0.4136
19202SOL    HW260145   6.296   9.973   7.529 -0.4464 -1.9024  0.7124
19203SOL     OW60146   2.793   2.148   7.909 -0.0063  0.2192 -0.0128
19203SOL    HW160147   2.865   2.129   7.849  0.2405  0.5013  0.1937
19203SOL    HW260148   2.806   2.239   7.936 -0.2065  0.1479  0.3416
19204SOL     OW60149   0.777   2.689   0.342  0.5696 -0.3395 -0.2392
19204SOL    HW160150   0.749   2.779   0.354  0.8423 -0.5881  2.6873
19204SOL    HW260151   0.706   2.647   0.294 -0.8541  0.7319  0.9089
19205SOL     OW60152   6.192   8.493   9.681  0.2386  0.1235  0.1715
19205SOL    HW160153   6.256   8.538   9.625 -0.4300  0.7256 -0.1120
19205SOL    HW260154   6.110   8.540   9.667 -0.0616 -0.0653  1.2484
19206SOL     OW60155   4.941   6.152   9.176 -0.1772 -0.2406 -0.4687
19206SOL    HW160156   4.891   6.079   9.139 -0.7206 -0.3728  0.5243
19206SOL    HW260157   4.960   6.208   9.101  0.4694 -1.5258 -1.2889
19207SOL     OW60158   4.890   1.204   2.372 -0.0909  0.0755 -0.4079
19207SOL    HW160159   4.847   1.136   2.320 -0.0595  0.2161 -0.6177
19207SOL    HW260160   4.932   1.156   2.443  0.8453 -0.2389 -1.1621
19208SOL     OW60161   4.785   0.951   2.261  0.0686  0.3840  0.2542
19208SOL    HW160162   4.746   0.866   2.238  0.8559  0.3169 -0.9247
19208SOL    HW260163   4.716   1.015   2.242 -0.7424 -0.0381  1.7365
19209SOL     OW60164   5.667   9.488   6.373 -0.2252  0.2414 -0.0943
19209SOL    HW160165   5.602   9.557   6.388  0.4243  0.5881  1.1201
19209SOL    HW260166   5.743   9.534   6.336  0.0444  0.1151  0.3008
19210SOL     OW60167   4.810   9.311   9.339 -0.0065 -0.0182  0.0166
19210SOL    HW160168   4.850   9.259   9.269 -1.7603  0.2723 -1.2230
19210SOL    HW260169   4.884   9.334   9.396  1.1922 -1.6474 -0.8214
19211SOL     OW60170   8.498   5.916   1.825  0.1865  0.1474  0.3697
19211SOL    HW160171   8.502   5.919   1.920 -2.4556  2.4571  0.4795
19211SOL    HW260172   8.404   5.910   1.805  0.7589 -1.4678 -2.0719
19212SOL     OW60173   7.689   8.157   4.315 -0.5725  0.5130 -0.3240
19212SOL    HW160174   7.610   8.135   4.265  0.0037 -0.0441 -0.9967
19212SOL    HW260175   7.735   8.222   4.262 -0.5810  0.8582  0.0814
19213SOL     OW60176   2.322   2.146   3.527  0.2558  0.5407  0.1465
19213SOL    HW160177   2.259   2.103   3.469  0.7379 -1.6965  1.2179
19213SOL    HW260178   2.272   2.168   3.605  0.5142 -0.1724  0.5212
19214SOL     OW60179   8.660   1.167   7.240 -0.3217 -0.8784 -0.1299
19214SOL    HW160180   8.600   1.094   7.225  0.1519 -1.0241 -1.4012
19214SOL    HW260181   8.628   1.209   7.319 -1.4738 -1.5864 -0.2135
19215SOL     OW60182   2.856   5.451   8.200  0.2773 -0.1379  0.3206
19215SOL    HW160183   2.914   5.399   8.145 -0.5303 -0.2846 -0.3991
19215SOL    HW260184   2.915   5.493   8.264  1.3962  1.1726 -1.5307
19216SOL     OW60185   0.787   0.504   9.890 -0.5074  0.5094 -0.1636
19216SOL    HW160186   0.868   0.530   9.934  0.3439 -0.6400 -1.0321
19216SOL    HW260187   0.732   0.582   9.893  1.5697  2.0567 -1.7077
19217SOL     OW60188   0.010   4.978   8.233 -0.2218 -0.2066 -0.0799
19217SOL    HW160189   0.022   5.063   8.275 -0.0837 -0.9461  1.4002
19217SOL    HW260190   0.013   4.915   8.304 -1.9262 -1.3282 -0.9633
19218SOL     OW60191   6.600   7.719   7.914  0.1857 -0.1678 -0.8469
19218SOL    HW160192   6.532   7.707   7.981  1.7762  1.8918  1.1940
19218SOL    HW260193   6.601   7.813   7.898  1.6225 -0.3469 -1.8773
19219SOL     OW60194   9.360   7.224   6.279 -0.4282  0.5043  0.6431
19219SOL    HW160195   9.425   7.157   6.299 -1.8232 -0.5336  1.8161
19219SOL    HW260196   9.317   7.193   6.199  0.2910  1.0395  0.0379
19220SOL     OW60197   3.609   7.915   9.643 -0.3722 -0.4122  0.6821
19220SOL    HW160198   3.699   7.947   9.649 -0.5678  0.5071 -0.8953
19220SOL    HW260199   3.557   7.980   9.691 -0.5436  0.6857 -0.9528
19221SOL     OW60200   1.091   2.941   5.872 -0.2750  0.3618 -0.3913
19221SOL    HW160201   1.138   2.860   5.853 -1.1191  0.4371 -2.9843
19221SOL    HW260202   1.086   2.986   5.788 -0.7831  2.6030  0.8005
19222SOL     OW60203   9.014   5.335   2.992  0.3092 -0.7429  0.1653
19222SOL    HW160204   8.943   5.362   3.050  0.3868 -0.5535  0.1722
19222SOL    HW260205   9.084   5.307   3.050  1.0043  0.9893  0.2097
19223SOL     OW60206   3.930   9.034   0.386  0.0904 -0.3896 -0.2444
19223SOL    HW160207   3.886   8.977   0.323 -1.2909  0.0811  0.2620
19223SOL    HW260208   4.012   9.058   0.344 -0.8709  0.0271 -1.9477
19224SOL     OW60209   2.809   1.956   3.282 -0.4193  0.0295 -0.3781
19224SOL    HW160210   2.857   2.035   3.306 -0.1845 -0.3270  0.3377
19224SOL    HW260211   2.719   1.973   3.308  0.0542 -0.8319  1.9514
19225SOL     OW60212   2.889  10.141   3.268  0.2794  0.0605  0.4109
19225SOL    HW160213   2.917  10.195   3.341 -0.4866  0.6469  0.2720
19225SOL    HW260214   2.879  10.202   3.195 -1.1678 -0.1607  0.4086
19226SOL     OW60215   5.393   0.144   2.663 -0.3179  0.2941  0.0583
19226SOL    HW160216   5.363   0.231   2.689 -2.1736  0.4669 -2.4631
19226SOL    HW260217   5.330   0.084   2.703  0.2396  0.1617  0.7590
19227SOL     OW60218   4.624   8.298   0.928  0.0923 -0.0638 -0.4732
19227SOL    HW160219   4.638   8.337   0.842  2.3835  0.5093  0.1339
19227SOL    HW260220   4.617   8.204   0.910  3.7676 -0.3044 -0.9940
19228SOL     OW60221   0.266   9.805   5.541 -0.5345  0.2781 -0.6210
19228SOL    HW160222   0.316   9.771   5.466 -0.3632 -1.2712  0.1628
19228SOL    HW260223   0.206   9.733   5.563 -1.1039  1.0183  0.2498
19229SOL     OW60224   3.293   2.168   5.701 -0.2941 -0.0944  0.4486
19229SOL    HW160225   3.346   2.241   5.734 -1.4984  1.2423 -0.4950
19229SOL    HW260226   3.255   2.201   5.619 -1.0114 -1.7173  0.1097
19230SOL     OW60227   7.293   2.727   2.614  0.4328  0.1391  0.4206
19230SOL    HW160228   7.367   2.699   2.561 -2.0915 -1.1335 -2.5454
19230SOL    HW260229   7.281   2.656   2.678 -0.4310 -1.3790 -1.3945
19231SOL     OW60230   4.831   2.800   3.979 -0.1939 -0.2996 -0.0105
19231SOL    HW160231   4.801   2.732   3.919  0.5983  0.9751 -1.9106
19231SOL    HW260232   4.926   2.791   3.981 -0.1110  0.5156 -0.0089
19232SOL     OW60233  10.036   5.147   0.020 -0.5001 -0.3352 -0.4436
19232SOL    HW160234   9.990   5.176  -0.058 -0.3047  0.4485 -0.2771
19232SOL    HW260235  10.014   5.213   0.086  0.0975 -0.4723 -0.1043
19233SOL     OW60236   5.224   2.111   0.410  0.3508  0.2633 -0.2834
19233SOL    HW160237   5.199   2.030   0.366 -0.6403 -0.6818  1.9207
19233SOL    HW260238   5.291   2.084   0.473 -0.2780  1.0816  0.7442
19234SOL     OW60239   5.510   0.026   2.364  0.2211  0.4850 -0.3853
19234SOL    HW160240   5.570   0.097   2.341 -0.1888  1.6705  2.0358
19234SOL    HW260241   5.483   0.045   2.454 -1.4994 -1.6382 -0.3982
19235SOL     OW60242   6.786   2.318   8.067  0.1244 -0.0836 -0.0458
19235SOL    HW160243   6.790   2.299   8.161  2.0493 -0.6992 -0.2358
19235SOL    HW260244   6.754   2.237   8.027 -0.0808 -0.0283  0.0016
19236SOL     OW60245   2.619   0.899   7.028  0.2202 -0.1930  0.4016
19236SOL    HW160246   2.588   0.841   7.098  0.2736 -0.0814  0.5181
19236SOL    HW260247   2.680   0.958   7.071  1.1844 -0.8893  0.0371
19237SOL     OW60248   8.072   9.917   0.125  0.3127 -0.4372 -0.3410
19237SOL    HW160249   8.063   9.905   0.220 -0.9662 -1.1094 -0.5315
19237SOL    HW260250   8.061   9.829   0.089 -1.8139  0.1791 -1.2914
19238SOL     OW60251   2.290   8.756   1.712 -0.0897 -0.0808  0.7490
19238SOL    HW160252   2.380   8.773   1.683  0.2633 -2.7069  0.2531
19238SOL    HW260253   2.238   8.757   1.632 -0.2027 -0.5151  0.8197
19239SOL     OW60254   0.516   3.468   2.100  0.5770  0.5419 -0.0103
19239SOL    HW160255   0.457   3.502   2.032  2.2508  1.4158 -1.0545
19239SOL    HW260256   0.554   3.389   2.061 -0.9400 -0.8307  1.2142
19240SOL     OW60257   8.519   8.922   3.008 -0.1025  0.4971 -0.4251
19240SOL    HW160258   8.480   8.984   3.070 -0.1275  0.8049 -0.7472
19240SOL    HW260259   8.598   8.890   3.053 -0.3111  0.4490 -0.0895
19241SOL     OW60260   0.626   9.123   7.826 -0.1899  0.4249 -0.4938
19241SOL    HW160261   0.653   9.190   7.889  0.5975  0.0334 -0.4065
19241SOL    HW260262   0.634   9.041   7.875  1.1072  0.0525 -1.3264
19242SOL     OW60263   6.976   4.959   6.464  0.2865  0.2796 -0.5617
19242SOL    HW160264   7.051   4.987   6.411  0.4775 -1.3114 -1.1352
19242SOL    HW260265   6.916   5.034   6.460  0.5710  0.4359 -2.4977
19243SOL     OW60266   2.629   4.355   3.014  0.1559  0.2059 -0.1239
19243SOL    HW160267   2.619   4.411   3.091  2.1348  0.8228 -0.2647
19243SOL    HW260268   2.691   4.403   2.958  1.1090 -1.6628 -0.6998
19244SOL     OW60269   5.691  10.195   0.932 -0.3732 -0.4828  0.3353
19244SOL    HW160270   5.682  10.155   1.019 -0.0837  0.7627  0.9471
19244SOL    HW260271   5.780  10.230   0.930 -1.5861  2.8987  1.0382
19245SOL     OW60272   6.643   3.604   2.191 -0.2858 -0.0835 -0.4685
19245SOL    HW160273   6.570   3.662   2.212  0.8388  0.6100  1.7020
19245SOL    HW260274   6.663   3.622   2.099  0.7220  3.7710  0.4093
19246SOL     OW60275   3.467   4.515   3.743  0.0095 -0.4008  0.6406
19246SOL    HW160276   3.380   4.555   3.752  0.1964  0.0605  0.4165
19246SOL    HW260277   3.451   4.432   3.698 -0.3348 -0.3966  0.7521
19247SOL     OW60278   1.889   7.658   6.743 -0.1960 -0.8300 -0.4709
19247SOL    HW160279   1.920   7.685   6.829 -0.4848  1.0683 -0.9357
19247SOL    HW260280   1.795   7.677   6.745  0.0433  0.4945 -1.6755
19248SOL     OW60281   2.876   1.317   6.277 -0.4032 -0.1082 -0.2102
19248SOL    HW160282   2.907   1.287   6.191  0.2736 -0.5369  0.1787
19248SOL    HW260283   2.869   1.412   6.268  1.6370  0.0727 -0.1240
19249SOL     OW60284   5.124   2.524   2.224  0.4758 -0.4994  0.2537
19249SOL    HW160285   5.036   2.487   2.215  0.0258  0.8525 -1.2166
19249SOL    HW260286   5.183   2.453   2.197 -0.1400 -1.5165  1.5680
19250SOL     OW60287   2.060   4.250   8.194  0.0130  0.0053  0.0333
19250SOL    HW160288   2.080   4.323   8.135  3.5114 -0.3877  0.6746
19250SOL    HW260289   2.072   4.286   8.282  1.2088 -1.1896  0.3592
19251SOL     OW60290   0.409   2.671   7.466  0.6258  0.1575 -0.3561
19251SOL    HW160291   0.442   2.631   7.385  0.2529 -0.3904 -0.2384
19251SOL    HW260292   0.441   2.761   7.462 -1.3656  0.8340 -2.2894
19252SOL     OW60293   2.922   5.718   5.798 -0.1597 -0.0279 -0.0179
19252SOL    HW160294   2.992   5.689   5.740 -0.1120 -1.0937  0.5656
19252SOL    HW260295   2.899   5.641   5.849 -0.8125  0.6705  0.7657
19253SOL     OW60296   3.522   1.844   4.259 -0.2164  0.2916  0.0235
19253SOL    HW160297   3.517   1.937   4.240  0.2311  0.9602  2.9398
19253SOL    HW260298   3.616   1.826   4.264 -0.3086 -0.1254  0.3048
19254SOL     OW60299   1.631   8.921   9.827  0.1455  0.0307 -0.0630
19254SOL    HW160300   1.564   8.904   9.760 -1.0710 -2.0061  1.5986
19254SOL    HW260301   1.686   8.989   9.789 -0.9759 -0.5208 -2.8174
19255SOL     OW60302   8.262   6.717   0.062 -0.3126  0.2259  0.3481
19255SOL    HW160303   8.285   6.688  -0.026  1.3959  0.0750  0.8245
19255SOL    HW260304   8.185   6.772   0.050  0.4175  0.9024 -1.3495
19256SOL     OW60305   7.752   6.388   0.643  0.1252 -0.0317 -0.6261
19256SOL    HW160306   7.722   6.298   0.633  1.4066 -0.5742  0.4070
19256SOL    HW260307   7.675   6.441   0.620 -1.2859 -1.3922  0.8972
19257SOL     OW60308   8.678   8.557   9.591  0.4764  0.4952 -0.8858
19257SOL    HW160309   8.607   8.507   9.551 -0.3761  1.2475 -0.3259
19257SOL    HW260310   8.708   8.616   9.523  0.9884 -0.2443 -1.3158
19258SOL     OW60311   1.040   5.196   4.060 -0.0214  0.4200  0.5597
19258SOL    HW160312   1.112   5.152   4.015 -1.5216 -1.4786 -0.1042
19258SOL    HW260313   1.043   5.162   4.150 -0.4735 -0.2042  0.3494
19259SOL     OW60314   6.774   9.218   0.164 -0.1975 -0.0334 -0.6255
19259SOL    HW160315   6.779   9.199   0.258  0.5264 -0.5266 -0.7562
19259SOL    HW260316   6.686   9.252   0.151 -0.1635  0.4346  0.3111
19260SOL     OW60317   9.196   9.822   9.877  0.8588 -0.2472 -0.2142
19260SOL    HW160318   9.163   9.892   9.933 -2.2668 -0.6576 -1.4264
19260SOL    HW260319   9.152   9.743   9.910  1.7985 -1.1074 -0.9689
19261SOL     OW60320   8.440   9.995   2.341 -0.0350  0.0227  0.1983
19261SOL    HW160321   8.347  10.002   2.361  0.2508 -0.8874  1.9413
19261SOL    HW260322   8.481   9.969   2.423  2.0359  2.4456  0.0079
19262SOL     OW60323   2.699   6.528   8.071 -0.2666  0.1794 -0.4770
19262SOL    HW160324   2.784   6.491   8.097 -0.6372 -0.0023  0.4922
19262SOL    HW260325   2.678   6.484   7.989  0.7006  0.4096 -0.8527
19263SOL     OW60326   3.492   4.955   2.783  0.3734  0.8439  0.2972
19263SOL    HW160327   3.532   4.879   2.824 -1.0726 -0.5148 -0.7559
19263SOL    HW260328   3.403   4.957   2.819 -0.7919 -0.1479 -2.4426
19264SOL     OW60329   9.398   3.414   1.286  0.7777 -0.7235 -0.0608
19264SOL    HW160330   9.447   3.366   1.218 -0.1749 -1.3955 -0.2918
19264SOL    HW260331   9.399   3.356   1.362  1.0788 -0.3599  0.2130
19265SOL     OW60332   4.660   6.575   8.130  0.0950  0.7822  0.3825
19265SOL    HW160333   4.680   6.618   8.046 -2.1344 -0.6707 -0.9442
19265SOL    HW260334   4.733   6.515   8.145 -0.1220  0.1114 -1.1889
19266SOL     OW60335   9.545   1.560   5.952  0.2926  0.1052 -0.0075
19266SOL    HW160336   9.620   1.505   5.971  0.0872  0.1464  0.9308
19266SOL    HW260337   9.476   1.498   5.927 -0.1159 -0.1088  1.6309
19267SOL     OW60338   6.533   0.289   5.701 -0.2944 -0.5257 -0.1021
19267SOL    HW160339   6.469   0.267   5.768  0.4336 -0.1380  0.7259
19267SOL    HW260340   6.598   0.219   5.707  1.0815  0.8472  1.3072
19268SOL     OW60341   2.722   5.992   8.411  0.1052  0.5481 -0.2628
19268SOL    HW160342   2.797   6.010   8.353  0.7701 -0.4734  0.2629
19268SOL    HW260343   2.747   5.913   8.458 -1.2382  0.3075  0.0651
19269SOL     OW60344   0.475   8.178   3.344 -0.3710 -0.1534 -0.3567
19269SOL    HW160345   0.519   8.230   3.276 -1.7815  2.0402  0.3330
19269SOL    HW260346   0.545   8.154   3.405  0.1913  1.7711 -0.2036
19270SOL     OW60347   8.213   4.626   7.653 -0.1187  0.1169 -1.2148
19270SOL    HW160348   8.274   4.558   7.681 -0.9967 -1.1304 -2.2552
19270SOL    HW260349   8.127   4.584   7.660 -0.8086  1.6475 -0.3439
19271SOL     OW60350   4.479   2.486   4.564 -0.5876 -0.3212 -0.3026
19271SOL    HW160351   4.559   2.462   4.516 -0.6309 -0.1028 -0.4839
19271SOL    HW260352   4.415   2.420   4.537 -0.2103 -1.0408  0.5424
19272SOL     OW60353   2.973   6.167   5.660  0.1527  0.6649  0.0589
19272SOL    HW160354   3.041   6.100   5.656  1.1573  1.7070 -0.6381
19272SOL    HW260355   3.010   6.235   5.717 -0.4871  1.0210  0.0512
19273SOL     OW60356   0.769   5.217   8.282  0.1709 -0.2419  0.4090
19273SOL    HW160357   0.683   5.204   8.241  0.1748 -0.2627  0.4084
19273SOL    HW260358   0.749   5.262   8.364  0.1900  0.0812  0.2409
19274SOL     OW60359   8.141   8.646   4.845  0.4168 -0.0472  0.7363
19274SOL    HW160360   8.180   8.701   4.913  0.7467  1.2256 -0.4565
19274SOL    HW260361   8.056   8.687   4.827  0.5040 -0.1345  0.1144
19275SOL     OW60362   4.757   7.359   5.437 -0.3008  0.4989 -0.3902
19275SOL    HW160363   4.806   7.439   5.420 -1.2143  1.5962  2.0131
19275SOL    HW260364   4.808   7.313   5.503 -2.5959  1.7889  2.3496
19276SOL     OW60365   4.948   2.429   4.740 -0.2674 -0.5112  0.0375
19276SOL    HW160366   4.982   2.365   4.678 -0.8180 -0.4444 -0.3400
19276SOL    HW260367   4.947   2.383   4.824  1.6958 -0.1847  0.2510
19277SOL     OW60368   6.630   3.343   0.542 -0.4849 -0.7169  0.3460
19277SOL    HW160369   6.559   3.284   0.568 -0.8202  0.6493  2.6417
19277SOL    HW260370   6.586   3.425   0.521  0.4342  0.3237  2.3799
19278SOL     OW60371   6.832   9.566   6.062  0.5922 -0.3498 -0.2554
19278SOL    HW160372   6.812   9.474   6.074  2.5859 -0.9901 -1.5259
19278SOL    HW260373   6.922   9.576   6.094 -0.1698  1.5033  1.4077
19279SOL     OW60374   9.910   1.151   5.267 -0.3719  0.5654 -0.2030
19279SOL    HW160375   9.989   1.202   5.284 -0.1470 -0.1670  1.0018
19279SOL    HW260376   9.932   1.062   5.294 -1.1739  0.0782 -1.1136
19280SOL     OW60377   6.681   4.651   4.830 -0.0819  0.0604  0.2045
19280SOL    HW160378   6.605   4.691   4.787  0.1174  0.6007  0.3583
19280SOL    HW260379   6.654   4.641   4.922 -0.5325 -1.1559 -0.0404
19281SOL     OW60380   5.130   6.986   2.394  0.4352  0.3250 -0.0725
19281SOL    HW160381   5.141   6.991   2.299  1.1506  1.8280  0.0879
19281SOL    HW260382   5.123   7.077   2.423  2.3896 -0.0097  1.5805
19282SOL     OW60383   5.206   9.896   9.724 -0.2570  0.0116 -0.6081
19282SOL    HW160384   5.140   9.845   9.771 -0.4203  0.8852  0.1286
19282SOL    HW260385   5.285   9.842   9.729 -0.4769 -0.2615 -0.0108
19283SOL     OW60386   0.455   4.015  10.030  0.7977 -0.3757 -0.1460
19283SOL    HW160387   0.488   4.054  10.111  0.5800 -0.2801 -0.1013
19283SOL    HW260388   0.456   3.921  10.046 -0.9353 -0.2893  0.6504
19284SOL     OW60389   0.220   5.213   3.973 -0.1953 -0.6681 -0.7241
19284SOL    HW160390   0.304   5.241   4.008 -1.0495  0.2397  0.6164
19284SOL    HW260391   0.200   5.277   3.904  0.3564 -1.0776 -1.2718
19285SOL     OW60392   9.336   2.525   1.707 -0.0482  0.3767 -0.1300
19285SOL    HW160393   9.263   2.465   1.694  0.6922 -0.7164  0.5937
19285SOL    HW260394   9.331   2.548   1.800  1.2163 -0.6590  0.2137
19286SOL     OW60395   2.184   8.876   4.678 -0.3448 -0.2786  0.3635
19286SOL    HW160396   2.181   8.884   4.773 -0.6513 -0.0849  0.3398
19286SOL    HW260397   2.264   8.923   4.652  0.1949 -1.0644  0.5940
19287SOL     OW60398   3.901   6.644   3.694 -0.3163 -0.2503 -0.0572
19287SOL    HW160399   3.958   6.719   3.711 -2.1391  0.7291  2.0144
19287SOL    HW260400   3.871   6.657   3.604  0.8991  0.4622 -0.3694
19288SOL     OW60401   1.073   5.292   9.645 -0.1487  0.0833 -0.2322
19288SOL    HW160402   1.013   5.318   9.575 -0.0899  0.1846 -0.2447
19288SOL    HW260403   1.067   5.197   9.648  0.7966 -0.0205 -1.2239
19289SOL     OW60404   7.615   8.441   3.546 -0.5722 -0.1709  0.3479
19289SOL    HW160405   7.591   8.529   3.576 -1.0598 -0.2572  0.2100
19289SOL    HW260406   7.570   8.431   3.463 -1.2092 -0.8826  0.7803
19290SOL     OW60407   6.000   3.796   6.181  0.3936  0.1841  0.1364
19290SOL    HW160408   6.083   3.779   6.227  1.5726  0.6502 -1.7520
19290SOL    HW260409   5.969   3.879   6.218  0.3310 -0.4161  1.4524
19291SOL     OW60410   0.747   7.109   8.931 -0.7117 -0.8427  0.8492
19291SOL    HW160411   0.728   7.198   8.963  2.2621  0.6806 -1.3233
19291SOL    HW260412   0.830   7.086   8.972  0.7127 -0.8062 -1.8846
19292SOL     OW60413   8.678   0.477   3.383  0.4028 -0.1169  0.2407
19292SOL    HW160414   8.665   0.571   3.375  1.7838 -0.0553 -1.7149
19292SOL    HW260415   8.773   0.465   3.372  0.3647 -1.6462  1.4406
19293SOL     OW60416   4.943   4.259   2.881 -0.5708 -0.5477 -0.0353
19293SOL    HW160417   5.007   4.306   2.935  0.0683 -0.6307 -0.7186
19293SOL    HW260418   4.899   4.328   2.831  0.4896 -0.6775 -1.1696
19294SOL     OW60419   8.715   0.154   1.780  0.2352  0.1778  0.6137
19294SOL    HW160420   8.693   0.136   1.871  0.9040  0.7675  0.8926
19294SOL    HW260421   8.747   0.070   1.746  0.7356  0.1567  1.1414
19295SOL     OW60422   2.891   8.503   6.741 -0.0547  0.2852  0.5321
19295SOL    HW160423   2.930   8.441   6.802  0.2986  0.9876  1.0341
19295SOL    HW260424   2.919   8.473   6.655 -0.6485 -0.7777  0.7004
19296SOL     OW60425   2.676   1.733   0.364  0.4905 -0.0912  0.2639
19296SOL    HW160426   2.743   1.687   0.313 -0.4141 -0.2291 -0.8328
19296SOL    HW260427   2.606   1.668   0.375 -0.3109  0.6571 -0.3323
19297SOL     OW60428  10.116   6.724   3.603  0.3002 -0.1577  0.1353
19297SOL    HW160429  10.104   6.679   3.519 -0.1420  1.2785 -0.5899
19297SOL    HW260430  10.121   6.817   3.580 -0.1232  0.2778  1.7308
19298SOL     OW60431   3.939   9.339   5.326  0.1935  0.1024  0.1474
19298SOL    HW160432   3.853   9.299   5.336  0.2340 -0.1474 -0.4896
19298SOL    HW260433   3.924   9.432   5.345  0.1536 -0.2404  1.8622
19299SOL     OW60434  10.186   8.394   0.839 -0.0708 -0.1569  0.2678
19299SOL    HW160435  10.258   8.420   0.897 -0.5598  0.2141  0.7114
19299SOL    HW260436  10.184   8.462   0.772 -1.1977  0.8542  1.2967
19300SOL     OW60437   9.422   1.021   4.022  0.5836 -0.0556  0.0885
19300SOL    HW160438   9.415   1.116   4.035 -0.2499 -0.1241  0.1441
19300SOL    HW260439   9.516   1.004   4.025  0.7067  0.6845  0.6817
19301SOL     OW60440   6.291   1.666   6.433  0.1774  0.1665  0.4951
19301SOL    HW160441   6.352   1.710   6.375 -0.3883 -2.2442 -2.0224
19301SOL    HW260442   6.216   1.724   6.438 -0.3505 -0.2256 -2.3680
19302SOL     OW60443   8.370   8.249   7.147  0.6589  0.3126  0.2188
19302SOL    HW160444   8.278   8.278   7.153 -0.4206 -2.6904 -0.9559
19302SOL    HW260445   8.380   8.186   7.219  1.9351  0.9347  0.5933
19303SOL     OW60446   1.318  10.107   3.433 -0.4219  0.1356  0.1355
19303SOL    HW160447   1.235  10.139   3.467  0.2601  3.1003 -0.8602
19303SOL    HW260448   1.352  10.050   3.503 -2.1498  0.7818  1.5328
19304SOL     OW60449   5.694   5.466   0.302 -0.2374  0.0296 -0.0158
19304SOL    HW160450   5.788   5.470   0.282 -0.5803  1.2637 -1.5174
19304SOL    HW260451   5.689   5.414   0.381  1.4637 -2.7294 -1.6206
19305SOL     OW60452   4.414   2.170   1.490 -0.0173  0.1877  0.0575
19305SOL    HW160453   4.488   2.148   1.546  0.0619 -0.1893 -0.1946
19305SOL    HW260454   4.452   2.177   1.402 -0.1653  0.6303  0.0255
19306SOL     OW60455   3.671   7.563   1.657  0.4004  0.7223 -0.2547
19306SOL    HW160456   3.641   7.561   1.566  0.1571  0.0953 -0.1621
19306SOL    HW260457   3.598   7.529   1.708  1.6123 -1.7927 -0.1224
19307SOL     OW60458   1.471   9.352   3.838 -0.4205 -0.4669 -0.4523
19307SOL    HW160459   1.401   9.298   3.803  0.8333 -2.3007 -0.1984
19307SOL    HW260460   1.440   9.379   3.925 -1.3929 -0.0579 -0.9143
19308SOL     OW60461   4.381  10.125   9.561 -0.8965 -0.5452 -0.2911
19308SOL    HW160462   4.430  10.157   9.637 -0.6955 -1.0773 -0.1966
19308SOL    HW260463   4.436  10.146   9.486 -0.2518 -1.6585 -0.1391
19309SOL     OW60464   2.208   3.757   1.846 -0.4399  0.7759 -0.5712
19309SOL    HW160465   2.153   3.681   1.865 -1.5255  1.6382 -0.2041
19309SOL    HW260466   2.257   3.772   1.928  0.1125  0.1947 -0.7963
19310SOL     OW60467   1.737   2.556   4.946 -0.0067 -0.5676  0.6631
19310SOL    HW160468   1.659   2.563   4.890  0.2870  3.0672  0.5741
19310SOL    HW260469   1.811   2.561   4.885  0.3148 -2.5590  0.8784
19311SOL     OW60470   9.497   1.946   2.786  0.9254  1.2690  0.0598
19311SOL    HW160471   9.462   2.035   2.779 -0.3391  0.6490 -1.7911
19311SOL    HW260472   9.550   1.934   2.708 -0.5886 -0.2988 -0.7734
19312SOL     OW60473   2.842   9.025   4.264 -0.2646  0.5187 -0.3329
19312SOL    HW160474   2.841   9.065   4.351  1.1291  2.1510 -1.0331
19312SOL    HW260475   2.926   8.979   4.259 -0.7245 -0.3193 -0.5051
19313SOL     OW60476   8.310   8.785   0.091 -0.2175 -0.4719  0.0215
19313SOL    HW160477   8.308   8.785  -0.005  0.6128 -1.4260  0.0039
19313SOL    HW260478   8.352   8.703   0.115  0.6092  0.2796  1.1862
19314SOL     OW60479   6.038  10.165   3.933  0.0611  0.0128  0.0452
19314SOL    HW160480   6.022  10.089   3.988 -1.2276  1.7605  2.1362
19314SOL    HW260481   5.953  10.186   3.894  0.1930  0.9584  0.2385
19315SOL     OW60482   5.428   4.908   2.398  0.1258 -0.5626  0.3215
19315SOL    HW160483   5.356   4.954   2.439 -0.4435 -0.7875 -0.4199
19315SOL    HW260484   5.485   4.882   2.471 -0.0648  0.4071  0.8277
19316SOL     OW60485   2.787   1.514   3.344 -0.9990  0.1723 -0.2698
19316SOL    HW160486   2.827   1.482   3.263 -2.3064 -1.6101 -0.2472
19316SOL    HW260487   2.742   1.594   3.319 -0.4653  0.2227 -1.0733
19317SOL     OW60488   2.095   3.675   0.790 -0.0437 -0.4663 -0.4613
19317SOL    HW160489   2.180   3.698   0.753 -0.1972  0.4181 -0.2747
19317SOL    HW260490   2.074   3.747   0.850 -0.2360 -1.4068  0.6357
19318SOL     OW60491   4.886   4.580   3.368 -0.4239  0.2962 -0.5600
19318SOL    HW160492   4.854   4.533   3.445 -0.4788 -0.8755 -1.2830
19318SOL    HW260493   4.825   4.555   3.298  1.0603 -0.6266 -1.5617
19319SOL     OW60494   3.643   7.206   0.610 -0.1877  0.1429  0.8433
19319SOL    HW160495   3.557   7.195   0.569 -0.1777  1.3587  0.4945
19319SOL    HW260496   3.626   7.254   0.691  0.1967  0.6967  0.5998
19320SOL     OW60497   5.898   8.453   3.597  0.2806  0.3655 -0.0458
19320SOL    HW160498   5.993   8.467   3.590  0.1661  1.3872  0.3871
19320SOL    HW260499   5.865   8.473   3.509  0.1932  2.3034  0.4043
19321SOL     OW60500   2.340   4.937   1.843 -0.0434 -0.1997 -0.1002
19321SOL    HW160501   2.404   4.893   1.786  1.4936 -1.4515  2.4922
19321SOL    HW260502   2.366   5.029   1.841 -0.7294 -0.0240 -2.2965
19322SOL     OW60503   6.838   4.332   4.436  0.1785  0.0858 -0.0032
19322SOL    HW160504   6.810   4.390   4.507 -0.9664  1.1831 -1.3321
19322SOL    HW260505   6.900   4.272   4.478 -1.2250  0.0792  2.1338
19323SOL     OW60506   7.077   4.592   9.505  0.1894  0.1482  0.4300
19323SOL    HW160507   7.117   4.676   9.531  0.9160 -0.0849  0.0980
19323SOL    HW260508   7.090   4.589   9.410 -1.0058  0.2593  0.2575
19324SOL     OW60509   6.530   9.576   2.962 -0.2637  0.7322  0.3219
19324SOL    HW160510   6.453   9.523   2.982 -0.4294  0.9629  0.3010
19324SOL    HW260511   6.507   9.622   2.881 -0.2404  1.0749  0.5103
19325SOL     OW60512   1.996   2.168   8.038  0.0157  0.2489  0.0686
19325SOL    HW160513   2.060   2.152   7.969 -0.2628 -0.2705 -0.0708
19325SOL    HW260514   2.034   2.240   8.090  0.1380  0.7676 -0.7267
19326SOL     OW60515   6.523   9.827   1.522  0.3674  0.2136 -0.0519
19326SOL    HW160516   6.485   9.904   1.564  1.2934  0.2251  0.7924
19326SOL    HW260517   6.511   9.842   1.429  0.5372  1.3814  0.1042
19327SOL     OW60518   5.407   5.560   1.951  0.0104 -0.1817 -0.7410
19327SOL    HW160519   5.429   5.547   1.859 -0.0234 -0.7239 -0.6753
19327SOL    HW260520   5.387   5.653   1.959  0.3982 -0.0610 -1.1998
19328SOL     OW60521   8.244   4.082   3.444 -0.2237  0.0293  0.1004
19328SOL    HW160522   8.296   4.002   3.452  0.1456  0.3326  0.7979
19328SOL    HW260523   8.154   4.054   3.461 -0.1431 -0.3069 -0.0315
19329SOL     OW60524   0.852   0.932   0.338 -0.3034 -0.1252 -0.3625
19329SOL    HW160525   0.870   0.928   0.244 -2.0074  0.4199 -0.7284
19329SOL    HW260526   0.758   0.920   0.345 -0.1062 -0.8461  1.3394
19330SOL     OW60527   5.870   1.521   6.518 -0.3338 -0.1353 -0.0011
19330SOL    HW160528   5.851   1.478   6.601 -0.9161  2.7404  1.4423
19330SOL    HW260529   5.963   1.502   6.502 -0.7454 -2.4398  0.2013
19331SOL     OW60530   7.763   6.282   2.992 -0.2485  0.0434 -0.1778
19331SOL    HW160531   7.800   6.237   3.068  1.7665 -0.1456 -1.2352
19331SOL    HW260532   7.834   6.284   2.928 -0.9917  2.7801 -0.9880
19332SOL     OW60533   0.496   2.908   7.420  0.0070  0.2280 -0.1599
19332SOL    HW160534   0.587   2.881   7.409  0.2863  0.9484  0.3268
19332SOL    HW260535   0.496   3.001   7.398 -0.1264  0.8287  2.2775
19333SOL     OW60536   6.977   8.353  10.142 -0.9306  0.6314 -0.4871
19333SOL    HW160537   6.893   8.317  10.114 -0.2926 -0.6458 -0.8219
19333SOL    HW260538   6.955   8.434  10.187 -2.3210  0.4313 -0.7880
19334SOL     OW60539   5.389   9.686   1.222 -0.0053 -0.4570 -0.0379
19334SOL    HW160540   5.447   9.611   1.235 -0.6798 -0.7483  1.3565
19334SOL    HW260541   5.404   9.742   1.299  0.5870  0.9095 -1.1180
19335SOL     OW60542   4.593   5.264   1.604 -0.3935 -0.1324 -0.0811
19335SOL    HW160543   4.637   5.223   1.679 -0.6362 -1.8349 -0.8526
19335SOL    HW260544   4.636   5.350   1.596  0.6694 -0.5309  1.0803
19336SOL     OW60545   4.805   6.916   4.483 -0.2074  0.0416 -0.0648
19336SOL    HW160546   4.741   6.954   4.423  1.1436  1.7011 -0.5032
19336SOL    HW260547   4.889   6.951   4.453  0.5605  0.4243  2.4306
19337SOL     OW60548   9.450   5.568   0.956  0.4021 -0.1652 -0.3665
19337SOL    HW160549   9.372   5.606   0.915 -0.7424  0.1254  2.0035
19337SOL    HW260550   9.440   5.474   0.943 -0.8541 -0.2040  0.7200
19338SOL     OW60551   4.382   7.750   5.653 -0.3538 -0.0891  0.6264
19338SOL    HW160552   4.451   7.693   5.617 -0.8073  0.4305 -1.1271
19338SOL    HW260553   4.417   7.838   5.643 -0.9801  0.1338  0.3765
19339SOL     OW60554   3.421   9.795   6.700 -0.1898 -0.8086  0.1069
19339SOL    HW160555   3.343   9.740   6.707  0.0891 -1.3592 -1.0505
19339SOL    HW260556   3.458   9.774   6.614  0.4608  0.4766  0.0618
19340SOL     OW60557   0.738   2.670   8.933 -0.4250 -0.5212 -0.0362
19340SOL    HW160558   0.733   2.602   8.866 -0.4646 -0.9943  0.4429
19340SOL    HW260559   0.829   2.671   8.961 -0.6193 -1.0186  0.6180
19341SOL     OW60560   8.961   2.083   8.226  0.3272 -0.0001 -0.3388
19341SOL    HW160561   8.967   2.171   8.263 -0.0287  0.1070 -0.5390
19341SOL    HW260562   9.049   2.065   8.193  0.7521 -0.2321  0.8677
19342SOL     OW60563   2.773   6.113   1.592 -0.1905  0.1980  0.0020
19342SOL    HW160564   2.787   6.020   1.570 -0.0120  0.3953 -0.7451
19342SOL    HW260565   2.728   6.149   1.516 -2.9833  0.0582  1.5524
19343SOL     OW60566   3.551   0.555   6.566  0.2417 -0.0768 -0.1156
19343SOL    HW160567   3.588   0.478   6.523 -0.0248 -0.1877 -0.1487
19343SOL    HW260568   3.550   0.533   6.659  1.4786  0.4393  0.0328
19344SOL     OW60569   1.457   2.564   4.337  0.2617 -0.0807  0.0484
19344SOL    HW160570   1.413   2.649   4.346 -1.0115 -0.6500 -0.7715
19344SOL    HW260571   1.420   2.510   4.406 -0.5618 -0.6653 -0.8573
19345SOL     OW60572   6.215   6.573   6.625 -0.1172 -0.0615  0.0187
19345SOL    HW160573   6.236   6.529   6.543  1.8795  0.7895  0.0578
19345SOL    HW260574   6.207   6.665   6.601  0.0844  0.1369  0.7071
19346SOL     OW60575   8.113   6.443   5.977 -0.3601  0.9214  0.0023
19346SOL    HW160576   8.088   6.470   6.066  1.1291  0.0111  0.7092
19346SOL    HW260577   8.208   6.455   5.975 -0.3664  0.7158 -1.4044
19347SOL     OW60578   6.575   1.460   1.795 -0.1531  0.3845 -0.2802
19347SOL    HW160579   6.563   1.421   1.708  1.2374  1.1054 -0.8045
19347SOL    HW260580   6.651   1.414   1.832 -0.8782 -0.0817  0.6516
19348SOL     OW60581   6.159   1.337   2.497  0.6590  0.6361 -0.2106
19348SOL    HW160582   6.084   1.278   2.505  0.5720  0.8577  0.6070
19348SOL    HW260583   6.130   1.418   2.539  1.1309  0.9385 -0.4629
19349SOL     OW60584   7.945   0.892   0.826 -0.1162 -0.3091  0.5675
19349SOL    HW160585   7.950   0.911   0.920 -0.6639  0.4807  0.4435
19349SOL    HW260586   8.025   0.844   0.807 -2.3914 -5.2441  2.4890
19350SOL     OW60587   1.102   8.350   7.301  0.2146  0.3595  0.0411
19350SOL    HW160588   1.085   8.264   7.264  1.1605 -0.0452  0.5467
19350SOL    HW260589   1.019   8.375   7.343  0.0045 -0.3909  0.0672
19351SOL     OW60590   3.307   0.394   1.503 -0.0810  0.2634  0.3823
19351SOL    HW160591   3.226   0.444   1.491 -0.6776 -0.3443  1.7617
19351SOL    HW260592   3.283   0.305   1.480  0.8312  0.4842 -1.5016
19352SOL     OW60593   2.800   4.391   4.518 -0.4035 -0.1906 -0.6141
19352SOL    HW160594   2.842   4.367   4.435 -1.3466 -1.4083 -0.7642
19352SOL    HW260595   2.852   4.345   4.585  0.6351  1.1595 -0.4768
19353SOL     OW60596   3.756   0.273   2.553  0.2500 -0.0730 -0.2129
19353SOL    HW160597   3.752   0.368   2.565 -1.2456 -0.2458  0.8205
19353SOL    HW260598   3.739   0.260   2.460  0.5042  0.6721 -0.3704
19354SOL     OW60599   8.559   5.906   5.126 -0.1072 -0.0723  0.0667
19354SOL    HW160600   8.469   5.938   5.128 -0.2451 -0.3199 -1.6898
19354SOL    HW260601   8.551   5.811   5.135  0.1760  0.1071  2.8682
19355SOL     OW60602   4.029   0.256   9.647 -0.3403 -0.9082  0.0037
19355SOL    HW160603   3.996   0.266   9.736  2.8046  0.0643  1.1297
19355SOL    HW260604   4.076   0.173   9.647  0.6154 -0.3851 -0.4079
19356SOL     OW60605   7.001   4.246   9.874  0.0829 -0.1273  0.3260
19356SOL    HW160606   6.935   4.303   9.912  0.9301  0.7611  0.4661
19356SOL    HW260607   7.021   4.286   9.789  0.8541 -0.0889  0.5303
19357SOL     OW60608   2.269   3.829   1.136  0.4976 -0.5062 -0.1629
19357SOL    HW160609   2.297   3.891   1.203  1.0110  0.2648 -1.0807
19357SOL    HW260610   2.257   3.882   1.057 -1.6061 -1.1510 -0.3066
19358SOL     OW60611   6.129   9.480   9.055  0.0336 -0.1109 -0.2056
19358SOL    HW160612   6.046   9.434   9.041  0.8134 -1.5898 -0.0202
19358SOL    HW260613   6.110   9.543   9.125 -1.1305  0.0983 -0.6974
19359SOL     OW60614   8.541   9.758   6.750  0.4404  0.0292  0.2446
19359SOL    HW160615   8.491   9.718   6.680 -0.1511  2.3434 -0.7138
19359SOL    HW260616   8.476   9.800   6.806  1.1792  2.4083 -0.5871
19360SOL     OW60617   3.515   5.604   7.408 -0.2062  0.1709 -0.4630
19360SOL    HW160618   3.575   5.651   7.350 -0.8126 -0.4495 -1.5988
19360SOL    HW260619   3.565   5.527   7.436 -0.3316 -0.1441 -1.0995
19361SOL     OW60620   7.152   5.853   5.859  0.2741  0.6492  0.1911
19361SOL    HW160621   7.174   5.924   5.799 -2.1140  0.0518 -1.4592
19361SOL    HW260622   7.204   5.871   5.938  2.0944  2.4305 -1.3732
19362SOL     OW60623   7.296   6.980   1.917 -0.2801  0.4166 -0.5771
19362SOL    HW160624   7.298   6.891   1.954 -2.0322  0.2408 -0.8847
19362SOL    HW260625   7.271   6.968   1.826 -1.0294  1.2819 -0.4859
19363SOL     OW60626   9.990   6.211   5.032  0.3256 -0.2955 -0.0139
19363SOL    HW160627   9.915   6.208   4.972  0.5684 -0.2341 -0.3189
19363SOL    HW260628  10.024   6.300   5.024 -0.8902  0.3648  1.7431
19364SOL     OW60629   4.222  10.131   1.447  0.4613 -0.4988 -0.0337
19364SOL    HW160630   4.174  10.118   1.365  1.5473 -3.0637 -0.2907
19364SOL    HW260631   4.164  10.094   1.514 -1.5627  3.8045  0.7870
19365SOL     OW60632   4.616   8.375   8.465 -0.0844  0.6522 -0.0905
19365SOL    HW160633   4.530   8.412   8.449 -1.1835  0.0470  3.8639
19365SOL    HW260634   4.599   8.288   8.501  2.2284 -0.1693 -0.8398
19366SOL     OW60635   5.491   0.780   0.565 -0.3373 -0.3649  0.1593
19366SOL    HW160636   5.543   0.762   0.486 -1.2960 -0.1269 -0.5328
19366SOL    HW260637   5.465   0.871   0.557  1.0949  0.2011  1.6743
19367SOL     OW60638   9.537   0.516   8.076  0.0533 -0.0507  0.0386
19367SOL    HW160639   9.604   0.582   8.091 -1.0136  0.9745  0.3665
19367SOL    HW260640   9.540   0.499   7.981  1.3563 -0.6528  0.1853
19368SOL     OW60641   6.825   5.223   8.978 -0.3339 -0.0255 -0.5883
19368SOL    HW160642   6.785   5.310   8.983  1.0412  0.6982 -1.6211
19368SOL    HW260643   6.887   5.230   8.905  0.6654 -1.5129  0.0934
19369SOL     OW60644   0.777   0.240   3.541 -0.2230  0.5604 -0.6655
19369SOL    HW160645   0.855   0.238   3.597 -0.6383  1.9059 -0.0345
19369SOL    HW260646   0.709   0.196   3.592 -0.0321 -0.1288 -0.9961
19370SOL     OW60647   4.774   2.175   4.262 -0.1745 -0.7176  0.1530
19370SOL    HW160648   4.842   2.137   4.207  0.8639 -1.1501  1.7144
19370SOL    HW260649   4.703   2.111   4.260  0.2446 -1.1814  0.1022
19371SOL     OW60650   4.289   6.012   4.530  0.1742  0.1775 -0.1741
19371SOL    HW160651   4.212   6.066   4.512  0.2874  0.3048 -0.2869
19371SOL    HW260652   4.306   6.024   4.623 -0.7074 -0.8711  0.1291
19372SOL     OW60653   1.199   3.081   4.088  0.1013 -0.0382  0.0983
19372SOL    HW160654   1.162   3.168   4.074 -2.3803 -0.9645  0.6185
19372SOL    HW260655   1.205   3.073   4.183  1.0053 -0.1592  0.0309
19373SOL     OW60656   1.589   6.231   4.698  0.3999 -0.0004 -0.3052
19373SOL    HW160657   1.573   6.313   4.651 -0.6210 -0.2950 -0.4768
19373SOL    HW260658   1.613   6.259   4.787  1.2670  0.5173 -0.6979
19374SOL     OW60659   6.822   6.207   1.410  0.3802 -0.7215 -0.1926
19374SOL    HW160660   6.747   6.189   1.468  1.6703  0.2370  1.8210
19374SOL    HW260661   6.800   6.289   1.367 -0.5491 -1.3926 -1.0207
19375SOL     OW60662   4.896  10.141   2.968  0.0882 -0.0264  0.5632
19375SOL    HW160663   4.882  10.189   2.886  2.3195 -0.3831 -0.0639
19375SOL    HW260664   4.843  10.187   3.033  0.6815  2.1319 -0.4503
19376SOL     OW60665   9.150   8.972   4.105  0.3297 -0.0141  0.6313
19376SOL    HW160666   9.128   8.916   4.031 -0.1628 -1.1119  1.5861
19376SOL    HW260667   9.099   9.052   4.090 -2.3138 -1.4774  1.4241
19377SOL     OW60668   4.818   5.097   2.961  0.5724 -0.1876 -0.6589
19377SOL    HW160669   4.793   5.055   3.043 -1.6954 -0.3731 -1.4313
19377SOL    HW260670   4.899   5.144   2.982 -0.5647  0.6503  1.9411
19378SOL     OW60671   4.636   3.948   5.799 -0.1995  0.7137 -0.5169
19378SOL    HW160672   4.723   3.917   5.773 -0.0737  0.7092 -0.0999
19378SOL    HW260673   4.578   3.919   5.729 -0.5057 -2.6562  1.0727
19379SOL     OW60674   5.465   8.833   2.364 -0.2551  0.0040 -0.0555
19379SOL    HW160675   5.422   8.750   2.344 -0.1962  0.1984 -1.0159
19379SOL    HW260676   5.393   8.891   2.390 -0.3996 -0.1205 -0.1688
19380SOL     OW60677   5.122   4.258   3.553  0.0120  0.0185 -0.1165
19380SOL    HW160678   5.173   4.339   3.556  1.2204 -0.7675  1.8049
19380SOL    HW260679   5.187   4.188   3.546 -0.9576 -0.8370 -0.7663
19381SOL     OW60680   9.341   2.241   0.895 -0.0668 -0.1180  0.9442
19381SOL    HW160681   9.274   2.207   0.955 -0.3228  0.5099  1.0161
19381SOL    HW260682   9.422   2.198   0.923 -0.0595  0.6497  2.1518
19382SOL     OW60683   6.747   2.301   0.133  0.1437 -0.4351 -0.1372
19382SOL    HW160684   6.767   2.212   0.104 -0.7311 -0.6641 -0.0549
19382SOL    HW260685   6.655   2.313   0.113  0.3947  0.6734 -0.6870
19383SOL     OW60686   1.003   6.020   7.386 -0.3186  0.1542 -0.2344
19383SOL    HW160687   1.022   5.996   7.477  1.3993  0.5425 -0.4612
19383SOL    HW260688   1.031   6.112   7.379  3.4335 -1.0265 -2.1593
19384SOL     OW60689   6.331   0.803   9.949 -0.4968 -0.5557  0.3860
19384SOL    HW160690   6.330   0.831  10.041 -0.4714 -0.1725  0.2714
19384SOL    HW260691   6.252   0.840   9.912  0.2511  0.5570 -0.1206
19385SOL     OW60692   7.649   4.574   5.151 -0.2811  0.4083 -0.1992
19385SOL    HW160693   7.608   4.491   5.173  1.6700  0.2182  3.0553
19385SOL    HW260694   7.687   4.560   5.064 -1.2627 -1.5605 -0.3369
19386SOL     OW60695   1.566   4.073   5.481  0.0991 -0.3599  0.0071
19386SOL    HW160696   1.588   4.114   5.397 -0.1901  1.6427  0.8861
19386SOL    HW260697   1.472   4.085   5.489  0.2352  0.0973  0.9552
19387SOL     OW60698   0.055   9.042   1.386  0.0067  0.3338  0.4496
19387SOL    HW160699  -0.010   9.046   1.456 -2.1210  1.1755 -1.5013
19387SOL    HW260700   0.074   8.949   1.376 -1.0260  0.0589  0.9404
19388SOL     OW60701   7.160   8.278   6.758 -0.3220  0.3547  0.3185
19388SOL    HW160702   7.087   8.253   6.816 -2.1682  0.1275 -2.0363
19388SOL    HW260703   7.221   8.205   6.764 -0.4418  0.3796  2.0483
19389SOL     OW60704   5.557   1.387   5.339  0.2215  0.2383  0.1218
19389SOL    HW160705   5.609   1.370   5.260 -0.1650  1.8828 -0.5114
19389SOL    HW260706   5.468   1.359   5.316  0.5137 -1.2163  0.7044
19390SOL     OW60707   8.010   9.161   0.860  0.1029 -0.1476 -0.1501
19390SOL    HW160708   8.092   9.130   0.823  0.8115  1.0801  0.3302
19390SOL    HW260709   8.023   9.156   0.955  0.3150  1.7093 -0.0525
19391SOL     OW60710   5.448   1.745   8.680  0.2628 -0.2148 -0.1707
19391SOL    HW160711   5.534   1.768   8.713  0.7480  0.1003 -1.5966
19391SOL    HW260712   5.437   1.800   8.602 -1.3665 -0.0072  0.1841
19392SOL     OW60713   4.817   5.963   5.864 -0.2120 -0.0497 -0.1689
19392SOL    HW160714   4.768   5.884   5.841  1.5613 -1.4028  0.5282
19392SOL    HW260715   4.764   6.035   5.830 -1.7042 -1.5498 -1.1266
19393SOL     OW60716   3.135   3.700   8.851  0.3219  0.2467 -0.6074
19393SOL    HW160717   3.126   3.795   8.864  1.3701  0.3317 -0.5024
19393SOL    HW260718   3.178   3.692   8.766 -0.3802 -0.1607 -0.9351
19394SOL     OW60719   2.798   2.806   4.888  0.2258  0.0458 -0.1644
19394SOL    HW160720   2.793   2.738   4.822 -2.4042  0.5812 -0.5808
19394SOL    HW260721   2.765   2.765   4.968 -0.1037  0.4525 -0.0903
19395SOL     OW60722   1.162   9.067   4.483 -0.5215  0.0742  0.3057
19395SOL    HW160723   1.128   8.980   4.461  0.9960 -0.3701 -0.3283
19395SOL    HW260724   1.252   9.067   4.451 -0.7480  2.1738 -0.4101
19396SOL     OW60725   9.382   9.509   9.421 -0.1329  0.3129  0.1664
19396SOL    HW160726   9.295   9.500   9.382  0.3253  0.1366 -0.8195
19396SOL    HW260727   9.392   9.430   9.475 -1.7699  1.7364  2.6734
19397SOL     OW60728   3.454   2.163   0.312 -0.1279  0.0955  0.1037
19397SOL    HW160729   3.519   2.096   0.333  0.8551  0.6477 -1.0997
19397SOL    HW260730   3.475   2.190   0.222 -1.3165  1.0877  0.1046
19398SOL     OW60731   3.623   5.164   3.237 -0.0350 -0.0721  0.4130
19398SOL    HW160732   3.533   5.197   3.239 -0.3233 -0.8447  0.5286
19398SOL    HW260733   3.613   5.069   3.225  0.8050  0.1035 -1.9657
19399SOL     OW60734   6.744   2.161   4.203  0.0220 -0.5159 -0.6763
19399SOL    HW160735   6.805   2.235   4.195  0.8718 -1.1260  0.0797
19399SOL    HW260736   6.745   2.119   4.117  0.0412 -0.0378 -0.9100
19400SOL     OW60737   8.350   3.136   9.871  0.2927  0.3915 -0.1698
19400SOL    HW160738   8.432   3.095   9.842  0.2052 -0.3603  0.6301
19400SOL    HW260739   8.294   3.062   9.893 -0.2260  0.9365  0.3304
19401SOL     OW60740   9.517   4.253   1.204 -0.2736 -0.0093  0.3943
19401SOL    HW160741   9.552   4.329   1.158 -1.3172  0.6743  0.6947
19401SOL    HW260742   9.474   4.290   1.281 -2.6508 -0.7035 -0.5556
19402SOL     OW60743   7.207   6.244   3.196  0.6250  0.2287 -0.2348
19402SOL    HW160744   7.159   6.241   3.279 -0.8266  1.1613 -1.0094
19402SOL    HW260745   7.299   6.247   3.221  0.2356 -0.2253  1.3210
19403SOL     OW60746   0.854   4.054   8.695  0.1048 -0.6673  0.0454
19403SOL    HW160747   0.771   4.096   8.671  0.3845  0.5222  1.0618
19403SOL    HW260748   0.864   3.982   8.633 -1.8115 -0.9719  0.0519
19404SOL     OW60749   3.320   4.858   6.399 -0.0182  0.3070 -0.1891
19404SOL    HW160750   3.401   4.849   6.450 -0.4497 -1.0160  0.2813
19404SOL    HW260751   3.250   4.852   6.464 -0.5663 -1.0611 -0.8776
19405SOL     OW60752   3.247   0.222   0.190  0.1950  0.0518  0.2485
19405SOL    HW160753   3.310   0.153   0.168  0.8253  0.6135  0.2895
19405SOL    HW260754   3.243   0.221   0.286 -1.2688 -1.2401  0.1974
19406SOL     OW60755   2.512   3.884   6.849  0.1364 -0.2650  0.3691
19406SOL    HW160756   2.426   3.842   6.853  0.5320 -1.2119 -0.6543
19406SOL    HW260757   2.501   3.958   6.790  0.5046 -1.6092 -1.4198
19407SOL     OW60758   1.791   7.713   0.979 -0.9616 -0.1793  0.3494
19407SOL    HW160759   1.819   7.696   0.889  0.8270  0.7913  0.7016
19407SOL    HW260760   1.699   7.736   0.971 -1.0865 -1.0810 -1.1190
19408SOL     OW60761   4.210   9.286   6.643 -0.0636 -0.2334 -0.5011
19408SOL    HW160762   4.272   9.323   6.706 -0.0605 -0.8227 -0.1534
19408SOL    HW260763   4.239   9.196   6.631 -0.8714 -0.5223 -0.3065
19409SOL     OW60764   1.000   3.499   9.727 -0.4770  0.5000  0.4887
19409SOL    HW160765   0.944   3.537   9.660 -0.2724 -0.1900 -0.0765
19409SOL    HW260766   1.074   3.463   9.678 -0.8011 -0.8591  0.9997
19410SOL     OW60767   2.711   8.442   8.224  0.5559  0.7784 -0.0409
19410SOL    HW160768   2.702   8.497   8.146  3.2775  2.5283  0.8082
19410SOL    HW260769   2.694   8.353   8.193 -0.2952  1.6678 -2.2154
19411SOL     OW60770   4.919   3.819   4.850 -0.2847  0.1335 -0.2185
19411SOL    HW160771   4.831   3.827   4.812 -0.4511 -2.6824 -0.5446
19411SOL    HW260772   4.911   3.744   4.910  2.1817 -0.8920 -1.1293
19412SOL     OW60773   0.591   7.488   3.345  0.0411  0.4488  0.7008
19412SOL    HW160774   0.679   7.467   3.314 -0.8279 -1.2635 -0.6721
19412SOL    HW260775   0.533   7.454   3.277 -1.6258  3.2993  0.6321
19413SOL     OW60776   4.775   3.365   0.871 -0.3521 -0.1097  0.4438
19413SOL    HW160777   4.777   3.450   0.916  0.2523  0.5362 -0.7820
19413SOL    HW260778   4.691   3.365   0.824 -0.1636 -0.0182  0.1083
19414SOL     OW60779   1.088   8.204   3.272  0.5540 -0.0701  0.1133
19414SOL    HW160780   1.021   8.179   3.336  0.6941 -0.3016  0.1731
19414SOL    HW260781   1.127   8.121   3.245 -0.3959 -0.0824 -1.2683
19415SOL     OW60782   8.382   1.967   7.833 -0.0688 -0.2215 -0.2931
19415SOL    HW160783   8.338   2.049   7.858 -0.4678 -0.2892 -0.7741
19415SOL    HW260784   8.475   1.988   7.838 -0.1515 -0.0983  0.8028
19416SOL     OW60785   6.920   7.370   9.416 -0.1906  0.2775 -0.0275
19416SOL    HW160786   6.946   7.349   9.327 -0.7701  2.1427 -0.6529
19416SOL    HW260787   6.897   7.286   9.455 -0.8103 -0.4418 -1.9168
19417SOL     OW60788  10.150  10.167   8.132  0.2505  0.7119  0.0450
19417SOL    HW160789  10.071  10.212   8.161 -0.6579 -2.2070  2.3676
19417SOL    HW260790  10.196  10.145   8.213  1.7388 -0.6241 -1.1257
19418SOL     OW60791   2.202   1.282   5.990  0.7222 -0.0619  0.1219
19418SOL    HW160792   2.221   1.371   6.019  1.6052 -0.9939  2.5120
19418SOL    HW260793   2.230   1.280   5.898 -0.5718  2.4778 -0.3670
19419SOL     OW60794   2.383   4.884   5.395 -0.2140  0.8045  0.2143
19419SOL    HW160795   2.455   4.837   5.437 -1.4518 -1.1487  0.1983
19419SOL    HW260796   2.347   4.940   5.464 -0.3663 -0.1964  0.9542
19420SOL     OW60797   7.571   1.125   9.688 -0.1279 -0.2652 -0.4955
19420SOL    HW160798   7.530   1.160   9.609 -1.9302 -1.2457 -0.0124
19420SOL    HW260799   7.643   1.071   9.656  0.4264  0.9792 -1.3790
19421SOL     OW60800   1.947   3.453   9.497  0.0048 -0.5467  0.4574
19421SOL    HW160801   1.893   3.459   9.418 -0.7891  0.9664  1.0832
19421SOL    HW260802   2.003   3.531   9.493 -0.8591  0.1751  1.9577
19422SOL     OW60803   9.319   2.166   2.791  0.3069  0.2860  0.0926
19422SOL    HW160804   9.258   2.168   2.864 -0.1195  2.1807 -0.2818
19422SOL    HW260805   9.263   2.156   2.713  0.5764  0.5850 -0.1417
19423SOL     OW60806   1.841   0.254   0.790 -0.1815  0.0767  0.7723
19423SOL    HW160807   1.781   0.294   0.853  1.0732 -1.3692  2.8987
19423SOL    HW260808   1.795   0.176   0.760 -0.6397  0.5961  0.0809
19424SOL     OW60809   3.036   9.517   3.028 -0.3121  0.2594 -0.4882
19424SOL    HW160810   3.028   9.463   2.949 -1.7533 -1.8680  1.0510
19424SOL    HW260811   2.958   9.573   3.027 -0.7922 -0.3989 -0.1229
19425SOL     OW60812   0.162   2.050   7.948 -0.4247  0.2968 -0.0932
19425SOL    HW160813   0.125   1.971   7.987  0.2877  0.0768  0.1345
19425SOL    HW260814   0.146   2.041   7.854 -0.6252  0.0338 -0.0348
19426SOL     OW60815  10.093   5.086   4.667 -0.9316 -0.0387  0.2888
19426SOL    HW160816  10.054   5.162   4.712 -0.9393  0.2440 -0.1864
19426SOL    HW260817  10.134   5.035   4.736  0.1795  1.0661  0.4583
19427SOL     OW60818   2.605   3.734   5.257  0.1561  0.1420  0.5988
19427SOL    HW160819   2.566   3.796   5.317 -1.5213 -0.3437  0.0428
19427SOL    HW260820   2.533   3.707   5.200  1.1386 -1.3319  0.0161
19428SOL     OW60821   5.885   8.013   9.120 -0.5072 -0.0954 -0.1776
19428SOL    HW160822   5.867   7.938   9.063  0.2293 -2.1139  2.1618
19428SOL    HW260823   5.914   7.974   9.203  0.0695  2.7861  1.0400
19429SOL     OW60824   8.342   0.665   5.068  1.0210 -1.0404  0.0327
19429SOL    HW160825   8.413   0.704   5.017  0.8390  0.5421  0.9538
19429SOL    HW260826   8.383   0.640   5.151  0.5587 -0.3373  0.4765
19430SOL     OW60827   6.599   1.090   7.553  0.2274  0.2219  0.8248
19430SOL    HW160828   6.660   1.093   7.480  0.2378  0.0239  0.8266
19430SOL    HW260829   6.516   1.061   7.514  1.2253 -3.8855  1.5771
19431SOL     OW60830   9.062   2.040   6.894 -0.1278  0.5266 -0.5394
19431SOL    HW160831   9.153   2.033   6.864 -0.0898 -0.3295 -0.2289
19431SOL    HW260832   9.010   2.033   6.814  0.0342 -0.1974 -0.5868
19432SOL     OW60833   0.964   6.163   1.911 -0.3000 -0.2786 -0.1633
19432SOL    HW160834   0.895   6.096   1.904 -1.0120  0.4237  0.0712
19432SOL    HW260835   0.967   6.184   2.004 -1.3882  1.3605 -0.4651
19433SOL     OW60836   7.266   6.600   9.052  0.3452  0.2856  0.2677
19433SOL    HW160837   7.192   6.539   9.052  0.7872 -0.2622  0.9329
19433SOL    HW260838   7.272   6.631   8.962  0.0179 -0.5331 -0.0385
19434SOL     OW60839   9.697   0.279   1.626  0.0887 -0.4962  0.1915
19434SOL    HW160840   9.617   0.229   1.639  0.0834 -0.3001  0.9232
19434SOL    HW260841   9.689   0.353   1.686 -0.0318  0.5430 -1.0614
19435SOL     OW60842   3.373   3.184   7.355  0.2255 -0.2501  0.2364
19435SOL    HW160843   3.452   3.135   7.378 -0.2805 -1.8201 -1.2047
19435SOL    HW260844   3.302   3.136   7.398 -0.1894 -0.3308 -0.5297
19436SOL     OW60845   5.605   3.263   9.277 -0.3560 -0.0385 -0.0838
19436SOL    HW160846   5.540   3.315   9.324 -0.6795 -0.2641 -0.2772
19436SOL    HW260847   5.667   3.327   9.243  0.0102  0.1111  0.8419
19437SOL     OW60848   5.802   8.668   6.282  0.2808  0.5381 -0.6973
19437SOL    HW160849   5.776   8.577   6.274 -1.6963  1.1247 -1.1005
19437SOL    HW260850   5.782   8.692   6.373 -0.1785  0.8700 -0.8843
19438SOL     OW60851   4.364   8.461   3.648  0.1879 -0.5799  0.2340
19438SOL    HW160852   4.344   8.535   3.705  0.2336  0.2091 -0.7636
19438SOL    HW260853   4.423   8.496   3.582  0.3559 -1.5495 -0.1398
19439SOL     OW60854   4.588   6.577   5.875  0.0101  0.0528 -0.0003
19439SOL    HW160855   4.547   6.530   5.802 -0.4006  1.6950 -0.8414
19439SOL    HW260856   4.518   6.590   5.938  0.0843 -0.2701  0.1545
19440SOL     OW60857   1.080   1.504   4.964 -0.5445  0.0149 -0.5286
19440SOL    HW160858   1.077   1.417   4.925  0.0109  0.2188 -1.0232
19440SOL    HW260859   0.993   1.541   4.945 -1.7251 -1.3588  1.8728
19441SOL     OW60860   4.800   6.755   9.170 -0.2841  0.6808 -0.2349
19441SOL    HW160861   4.876   6.766   9.226 -0.6081  0.4526  0.2525
19441SOL    HW260862   4.807   6.665   9.137  0.2049  0.9980 -1.0076
19442SOL     OW60863   9.761   3.450   7.966  0.9287  0.1457 -0.3190
19442SOL    HW160864   9.677   3.445   7.920  1.5101  0.6310 -1.4377
19442SOL    HW260865   9.740   3.492   8.050 -0.2146 -1.1788  0.0801
19443SOL     OW60866   4.439   8.612   8.141  0.0891  0.2907 -0.1097
19443SOL    HW160867   4.433   8.533   8.088 -0.5593  0.0439  0.3183
19443SOL    HW260868   4.369   8.668   8.107 -0.2266  0.1945  0.3705
19444SOL     OW60869   1.578   8.746   4.209 -0.5159  0.0215 -0.2412
19444SOL    HW160870   1.559   8.713   4.121  2.9073 -0.1033 -1.0045
19444SOL    HW260871   1.614   8.834   4.195  1.4488 -0.5630  0.8627
19445SOL     OW60872   9.953   7.234   6.694 -0.3625  0.6537  0.1845
19445SOL    HW160873   9.983   7.321   6.719  0.5714  0.1197  0.9520
19445SOL    HW260874  10.033   7.182   6.688 -1.1330 -0.9554  2.8976
19446SOL     OW60875   0.102   8.365   6.979 -0.5626 -0.2349 -0.1088
19446SOL    HW160876   0.150   8.436   7.021 -1.5476  0.8987 -0.8603
19446SOL    HW260877   0.086   8.302   7.050  0.6677  0.0966  0.4734
19447SOL     OW60878   8.111   4.590   7.972  0.2695 -0.3558 -0.3203
19447SOL    HW160879   8.119   4.495   7.978  1.0773 -0.2466  0.4785
19447SOL    HW260880   8.018   4.605   7.955 -0.0099 -1.2618  0.3336
19448SOL     OW60881   2.966   2.949   5.348 -0.0125 -0.2219  0.1150
19448SOL    HW160882   2.992   2.863   5.382  1.2335  0.1901  0.2272
19448SOL    HW260883   2.936   2.998   5.425 -0.8023 -0.5723  0.0390
19449SOL     OW60884   9.098   3.544   7.149 -0.1133  0.8800 -0.0568
19449SOL    HW160885   9.099   3.601   7.226  0.3779  0.9010 -0.0805
19449SOL    HW260886   9.005   3.533   7.129 -0.3368 -0.8291  1.8213
19450SOL     OW60887   7.255   3.603   2.695  0.1525  0.1840 -0.2970
19450SOL    HW160888   7.256   3.510   2.673  0.7856  0.0117  0.4257
19450SOL    HW260889   7.277   3.647   2.613 -0.4159 -0.2817 -0.7089
19451SOL     OW60890   6.139   3.991   5.271 -0.4142 -0.3143 -0.1488
19451SOL    HW160891   6.047   3.981   5.244 -0.4220  1.6942 -0.9031
19451SOL    HW260892   6.136   4.044   5.350 -0.2469 -4.6916  2.9471
19452SOL     OW60893   7.728   2.604   9.328  0.1998 -0.2764  0.4245
19452SOL    HW160894   7.667   2.576   9.260  0.7470  1.7587 -0.9475
19452SOL    HW260895   7.690   2.684   9.362  0.9061 -0.2769  1.2128
19453SOL     OW60896   5.429   9.206   1.657 -0.6288  0.6025 -0.0771
19453SOL    HW160897   5.460   9.117   1.672 -0.0583  1.0073  1.1681
19453SOL    HW260898   5.501   9.248   1.608 -0.8416  0.4175 -0.5488
19454SOL     OW60899   8.851   5.327   5.072  0.1794  0.1933  0.1038
19454SOL    HW160900   8.875   5.369   5.155  0.7175  0.7928 -0.3455
19454SOL    HW260901   8.924   5.268   5.052  0.3116  0.4614 -0.2158
19455SOL     OW60902   4.326   0.637   9.725 -0.2492 -0.2587 -0.0906
19455SOL    HW160903   4.350   0.705   9.662 -1.3043  0.0226 -0.2046
19455SOL    HW260904   4.311   0.559   9.671 -3.4090  0.5496 -0.5025
19456SOL     OW60905   6.948   2.347   4.194 -0.2173 -0.1986 -0.0152
19456SOL    HW160906   6.913   2.383   4.276  0.5269  0.7534 -0.1122
19456SOL    HW260907   7.006   2.415   4.161 -1.0638 -0.2675 -1.7089
19457SOL     OW60908   3.964   9.867   1.169 -0.1238 -0.4139 -0.1820
19457SOL    HW160909   3.976   9.946   1.222  0.4872  0.9484 -2.2909
19457SOL    HW260910   3.870   9.865   1.149 -0.4058 -1.0954  1.1670
19458SOL     OW60911   4.511   9.893   9.476  0.2427  0.0526  0.3663
19458SOL    HW160912   4.531   9.982   9.505 -2.1510  0.5504  0.5883
19458SOL    HW260913   4.464   9.854   9.550 -1.9417 -0.1768 -1.1023
19459SOL     OW60914   8.371   7.940   6.893 -0.7831  0.0196  0.6482
19459SOL    HW160915   8.297   7.977   6.941 -0.2185  0.9951  0.7770
19459SOL    HW260916   8.332   7.872   6.838 -1.7106  0.2253  1.0416
19460SOL     OW60917   9.008   2.160  10.113  0.2563  0.0945  0.0175
19460SOL    HW160918   8.986   2.123  10.199  1.0032  0.5672  0.4150
19460SOL    HW260919   8.953   2.238  10.106 -0.5743 -0.5175 -0.3868
19461SOL     OW60920   9.099   4.325   2.308 -0.3492 -0.1123 -0.0147
19461SOL    HW160921   9.042   4.265   2.261 -0.5059 -0.0264  0.0654
19461SOL    HW260922   9.062   4.412   2.292 -2.4707 -0.3594  3.0846
19462SOL     OW60923   2.126   9.676   3.065  0.2657 -0.4809 -0.2076
19462SOL    HW160924   2.190   9.702   2.999 -0.4283  0.9334 -0.3391
19462SOL    HW260925   2.161   9.709   3.147 -0.4817  0.6486 -0.3360
19463SOL     OW60926   4.244   8.316   3.836  0.4389 -0.3009  0.0886
19463SOL    HW160927   4.304   8.320   3.910  0.0469  0.6788  0.3538
19463SOL    HW260928   4.285   8.369   3.768 -0.8594  1.6866  0.8120
19464SOL     OW60929   2.709   2.122   3.981 -0.1269  0.7378 -0.1204
19464SOL    HW160930   2.722   2.157   4.069  1.0717  1.0795 -0.4289
19464SOL    HW260931   2.784   2.065   3.966  0.9404  2.5053 -1.8096
19465SOL     OW60932   9.113  10.065   3.684 -0.1253  0.0845 -0.1350
19465SOL    HW160933   9.130   9.991   3.743 -0.0278 -0.3182 -0.6648
19465SOL    HW260934   9.163  10.044   3.605  1.6678  1.7612  0.5108
19466SOL     OW60935   4.592   8.793   4.743  0.5784  0.4800  0.2572
19466SOL    HW160936   4.596   8.875   4.793 -1.1421  1.5932 -1.3642
19466SOL    HW260937   4.661   8.800   4.678  2.3539 -0.6606  1.9735
19467SOL     OW60938   0.399   3.434   4.517 -0.1974 -0.3224 -0.2927
19467SOL    HW160939   0.387   3.341   4.498  0.4264 -0.4178 -0.2559
19467SOL    HW260940   0.397   3.440   4.613 -3.1103  0.1256 -0.3564
19468SOL     OW60941   8.767   0.399   7.881 -0.5554 -0.0044  0.1815
19468SOL    HW160942   8.751   0.322   7.827 -0.2943 -0.9281  1.4259
19468SOL    HW260943   8.862   0.412   7.877 -0.4220 -0.6323  1.1738
19469SOL     OW60944   0.051   6.707   4.639 -0.0601 -0.1236 -0.4567
19469SOL    HW160945   0.103   6.718   4.558  0.7520 -1.4655 -0.1350
19469SOL    HW260946   0.111   6.663   4.699 -0.8794  0.2987  0.6751
19470SOL     OW60947   6.311   7.039   0.465 -0.2598 -0.1310 -0.0676
19470SOL    HW160948   6.282   6.948   0.469 -0.0545 -0.1235  2.3066
19470SOL    HW260949   6.236   7.089   0.497 -0.0896  0.4971 -0.6176
19471SOL     OW60950   4.233   1.136   6.123 -0.0028  0.0494  0.2231
19471SOL    HW160951   4.261   1.048   6.148 -0.5648 -0.3494 -0.5299
19471SOL    HW260952   4.138   1.135   6.129  0.0171  0.7825  0.7662
19472SOL     OW60953   6.900   3.169   1.837 -0.8062  0.1626  0.4768
19472SOL    HW160954   6.936   3.195   1.921 -0.0767  0.5157  0.0606
19472SOL    HW260955   6.976   3.156   1.781 -1.3097  0.6487 -0.3311
19473SOL     OW60956   7.935   0.716   3.559  0.6276 -0.3105  0.7086
19473SOL    HW160957   7.968   0.804   3.545  1.2050 -0.7631 -0.8333
19473SOL    HW260958   8.006   0.659   3.530 -0.3908 -1.2927  0.1097
19474SOL     OW60959   7.968   0.118   8.101  0.0870 -0.2468 -0.3990
19474SOL    HW160960   8.052   0.106   8.057  0.3801  0.7962 -0.1432
19474SOL    HW260961   7.915   0.169   8.039 -0.3702 -0.9369 -0.5775
19475SOL     OW60962   0.966   9.440   1.556  0.3783 -0.8222 -0.2157
19475SOL    HW160963   0.905   9.500   1.513 -0.1060 -2.8816 -2.5358
19475SOL    HW260964   1.049   9.489   1.560 -0.9638  1.3886  1.4910
19476SOL     OW60965   6.417   1.177   4.102 -0.1918 -0.1092 -0.1591
19476SOL    HW160966   6.402   1.140   4.015  1.0461  0.5815 -0.6719
19476SOL    HW260967   6.343   1.237   4.115 -0.3184 -0.1246 -0.7812
19477SOL     OW60968   9.083   2.568   3.880  0.2459 -0.2969  0.6293
19477SOL    HW160969   9.102   2.597   3.970 -0.1108 -0.3179  0.7099
19477SOL    HW260970   9.069   2.650   3.832  0.6918 -0.2750  0.5355
19478SOL     OW60971   1.072   3.650   5.044  0.1432  0.0779 -0.0050
19478SOL    HW160972   1.008   3.717   5.021  1.8126  1.6545 -0.2447
19478SOL    HW260973   1.127   3.691   5.111 -0.2633 -1.9179  1.5918
19479SOL     OW60974   4.851   3.515   6.802  0.0272  0.4520 -0.3857
19479SOL    HW160975   4.777   3.455   6.792  0.7019 -0.4200 -0.2098
19479SOL    HW260976   4.886   3.497   6.890 -0.1215  1.5148 -0.0988
19480SOL     OW60977   9.101   5.185   6.322 -0.9435 -0.6409  0.1981
19480SOL    HW160978   9.148   5.105   6.348 -0.3702  0.0820  1.4577
19480SOL    HW260979   9.100   5.238   6.402  0.9550  1.7066 -1.3003
19481SOL     OW60980   6.433   7.607   3.214 -0.3802  0.2364 -0.1352
19481SOL    HW160981   6.397   7.695   3.219  0.8292  0.7784 -0.5756
19481SOL    HW260982   6.455   7.596   3.121 -2.3334 -1.2818 -0.4395
19482SOL     OW60983   3.591   0.232   0.979 -0.4948  0.1861  0.0720
19482SOL    HW160984   3.665   0.179   1.009  0.0666  0.1909 -1.2892
19482SOL    HW260985   3.580   0.208   0.887 -1.3492  1.1490 -0.0857
19483SOL     OW60986   4.237   0.692   6.481 -1.1418 -0.5582  0.2579
19483SOL    HW160987   4.324   0.668   6.448 -0.9845  0.4498 -0.0880
19483SOL    HW260988   4.250   0.703   6.576 -0.1896  2.4591 -0.1634
19484SOL     OW60989   9.611   0.313   9.054  0.4584 -0.3034 -0.5808
19484SOL    HW160990   9.620   0.325   9.148  1.5400  4.2476 -1.1369
19484SOL    HW260991   9.533   0.363   9.030  0.5886 -0.8337 -2.2157
19485SOL     OW60992   6.861   6.133   6.152  0.4325  0.4622 -0.6026
19485SOL    HW160993   6.778   6.159   6.113  0.2122 -0.5182 -0.7934
19485SOL    HW260994   6.926   6.191   6.112 -0.1540  1.1942 -0.4878
19486SOL     OW60995   1.816   2.254   7.524 -0.2303  0.0029 -0.2314
19486SOL    HW160996   1.850   2.184   7.468 -0.8952  0.3203 -1.0337
19486SOL    HW260997   1.746   2.212   7.574 -0.4136  0.0088 -0.4810
19487SOL     OW60998   6.741   0.089   7.568 -0.2153 -0.0969 -0.2948
19487SOL    HW160999   6.669   0.098   7.630 -2.1331 -2.7199 -2.0475
19487SOL    HW261000   6.732   0.165   7.509  1.3661  2.1671  2.2752
19488SOL     OW61001   5.652   2.641   5.352 -0.1998 -0.0820 -0.0213
19488SOL    HW161002   5.697   2.673   5.430 -0.1491 -2.8057  1.1186
19488SOL    HW261003   5.717   2.648   5.282  0.2558  0.9367  0.5024
19489SOL     OW61004   5.644  10.063   1.173 -0.2430  0.0734  0.2062
19489SOL    HW161005   5.709   9.994   1.156 -0.5089 -0.2642  0.5437
19489SOL    HW261006   5.654  10.082   1.266 -0.0376  0.6270  0.0686
19490SOL     OW61007   4.709   3.922   1.014  0.6547 -0.0211  0.2791
19490SOL    HW161008   4.799   3.943   1.038  1.4040 -1.6794 -0.9962
19490SOL    HW261009   4.660   4.002   1.036  2.1741  0.4361  2.2175
19491SOL     OW61010   9.985   3.920   0.385  0.0845  0.1826 -0.0756
19491SOL    HW161011  10.061   3.976   0.366 -0.3751  0.7846 -0.1332
19491SOL    HW261012   9.931   3.972   0.444 -2.0344  1.2249 -2.8017
19492SOL     OW61013   3.452   1.965   5.203 -1.0767 -0.1615 -0.0562
19492SOL    HW161014   3.414   1.878   5.212 -2.3048  0.4733  1.0275
19492SOL    HW261015   3.392   2.012   5.145  0.7713 -0.6883 -2.4963
19493SOL     OW61016   0.123   7.443   6.854 -0.2679 -0.2842  0.3565
19493SOL    HW161017   0.126   7.522   6.800  0.5031 -1.0456 -0.7344
19493SOL    HW261018   0.115   7.371   6.791  1.5608 -1.2525  1.1995
19494SOL     OW61019   4.799   4.101   0.121 -0.1287  0.6128  0.1932
19494SOL    HW161020   4.825   4.033   0.182 -0.9284 -1.1878 -1.4413
19494SOL    HW261021   4.880   4.122   0.073 -0.4044 -0.9843 -1.0112
19495SOL     OW61022   5.863   7.208   7.162  0.1105 -0.0749 -0.7310
19495SOL    HW161023   5.855   7.288   7.111  0.0990 -0.2907 -1.0668
19495SOL    HW261024   5.805   7.145   7.119 -0.9073  0.1251  0.3121
19496SOL     OW61025   4.325   0.648   2.537 -0.4039  0.1131 -0.6920
19496SOL    HW161026   4.299   0.560   2.509  1.0144  0.2262 -2.4295
19496SOL    HW261027   4.320   0.645   2.633 -0.5591 -1.7961 -0.7347
19497SOL     OW61028   8.996   3.887   7.114  0.2016 -0.4913 -0.3680
19497SOL    HW161029   9.013   3.793   7.118  1.6605 -0.2090  0.6290
19497SOL    HW261030   8.943   3.904   7.192  0.4913 -0.3864 -0.1926
19498SOL     OW61031   3.527   6.509   5.779 -0.5248 -0.1065 -0.1850
19498SOL    HW161032   3.562   6.462   5.855 -2.3542  1.5694  1.7478
19498SOL    HW261033   3.563   6.597   5.785 -1.6494  0.3938 -0.5808
19499SOL     OW61034   6.453   9.711   1.019  0.9116  0.2259 -0.0142
19499SOL    HW161035   6.393   9.662   0.963  0.3804 -0.1981  0.9066
19499SOL    HW261036   6.530   9.654   1.027  0.9752  0.2729 -0.2809
19500SOL     OW61037   6.291   8.190   8.354 -0.4776  0.2034 -0.1796
19500SOL    HW161038   6.200   8.165   8.337 -0.7675  0.4133  0.9766
19500SOL    HW261039   6.317   8.136   8.429  0.6004 -0.4056 -0.9802
19501SOL     OW61040   5.684   3.384   4.324  0.1234 -0.3409 -0.4031
19501SOL    HW161041   5.592   3.362   4.311  0.2415 -0.2775 -1.3907
19501SOL    HW261042   5.705   3.443   4.251  0.6702  0.4720  0.3906
19502SOL     OW61043   9.763   2.994   2.146  0.1403 -0.3669 -0.0411
19502SOL    HW161044   9.695   2.937   2.109  1.8928 -1.1945 -2.0593
19502SOL    HW261045   9.761   2.976   2.240 -1.2686 -1.6341 -0.2962
19503SOL     OW61046   8.917   7.720   6.211 -0.4278 -0.1048 -0.4445
19503SOL    HW161047   8.956   7.639   6.242 -1.4978 -0.6493 -0.4726
19503SOL    HW261048   8.920   7.713   6.115 -2.5019 -1.1370 -0.4779
19504SOL     OW61049   2.729  10.102   4.356  0.2397  0.1435  0.4330
19504SOL    HW161050   2.638  10.100   4.384  0.0723  1.0186 -0.0378
19504SOL    HW261051   2.732  10.048   4.278  0.4031 -1.0268  1.2359
19505SOL     OW61052   3.681   1.457   3.964 -0.2455 -0.3390 -0.3176
19505SOL    HW161053   3.679   1.367   3.933 -1.2569 -0.3402 -0.2671
19505SOL    HW261054   3.671   1.451   4.059 -0.1995 -0.1740 -0.3009
19506SOL     OW61055   2.018   1.708   4.092 -0.3473 -0.4745  0.1938
19506SOL    HW161056   2.088   1.771   4.080 -0.8644  0.2160  0.7998
19506SOL    HW261057   1.952   1.732   4.027 -1.6223  1.1299  2.0551
19507SOL     OW61058   8.084   7.436   4.343  0.1598 -0.5647  0.3604
19507SOL    HW161059   8.002   7.485   4.357  0.3529 -0.3132  0.6275
19507SOL    HW261060   8.142   7.499   4.300  0.0747 -0.8725 -0.2019
19508SOL     OW61061   7.323   7.761   5.958  0.2330 -0.5534 -0.3262
19508SOL    HW161062   7.270   7.782   5.881 -0.6221  0.6085  0.5594
19508SOL    HW261063   7.364   7.677   5.937 -1.4033 -1.1256 -1.3171
19509SOL     OW61064   6.559   8.600   5.097  0.1560 -0.3198 -0.2063
19509SOL    HW161065   6.484   8.568   5.147  0.7358 -1.5708 -0.1231
19509SOL    HW261066   6.562   8.545   5.019  0.2248  0.5591 -0.8302
19510SOL     OW61067   3.286   8.013   3.121 -0.0470  0.0446  0.1470
19510SOL    HW161068   3.308   7.953   3.193 -1.6216 -0.7502  0.0015
19510SOL    HW261069   3.286   7.958   3.043  1.5405  0.8843 -0.4492
19511SOL     OW61070   4.210   8.333   1.778  0.3762 -0.0017 -0.4390
19511SOL    HW161071   4.140   8.322   1.842  1.2384  0.8994  0.7064
19511SOL    HW261072   4.166   8.349   1.695 -0.7639 -0.5499  0.0588
19512SOL     OW61073   5.121   9.712   9.926  0.3627 -0.4715 -0.2209
19512SOL    HW161074   5.086   9.731  10.013  0.8556  0.0184 -0.1242
19512SOL    HW261075   5.214   9.694   9.941  0.0439 -2.2878 -0.4094
19513SOL     OW61076   8.891   7.429   1.988 -1.0872 -0.1016  0.3070
19513SOL    HW161077   8.844   7.461   1.911  1.8806 -1.2857 -2.0634
19513SOL    HW261078   8.873   7.336   1.991 -1.8529  0.0765  1.5522
19514SOL     OW61079   5.907   0.773   4.418 -0.3468 -0.7358  0.5658
19514SOL    HW161080   5.917   0.801   4.509 -1.6701 -1.6526  0.9900
19514SOL    HW261081   5.982   0.814   4.373  0.6607 -0.7734  2.1590
19515SOL     OW61082   5.162   6.149   2.594 -0.4886 -0.1740  0.3979
19515SOL    HW161083   5.097   6.085   2.563  0.2162 -0.6433 -0.1475
19515SOL    HW261084   5.177   6.125   2.685 -0.5776 -0.4952  0.3308
19516SOL     OW61085   1.030   2.005   2.280  0.0913 -0.5479 -0.0466
19516SOL    HW161086   1.093   2.060   2.327  2.4236 -0.4245 -3.1549
19516SOL    HW261087   0.945   2.046   2.296  1.2031  1.1822  1.5571
19517SOL     OW61088   8.016   8.507   4.224 -0.3195 -0.1542 -0.9343
19517SOL    HW161089   8.107   8.478   4.237 -0.2177  0.3357 -0.5173
19517SOL    HW261090   8.025   8.599   4.196 -0.7202  0.2011  0.0856
19518SOL     OW61091   2.708   7.954   0.851 -0.3495 -0.1430  0.6741
19518SOL    HW161092   2.629   8.007   0.846 -0.7665 -0.8620 -0.6421
19518SOL    HW261093   2.763   7.999   0.915 -0.9602  1.5061  0.0754
19519SOL     OW61094   4.067   2.676   1.305  0.2001  0.3766 -0.5398
19519SOL    HW161095   4.159   2.665   1.283  1.3061  2.4564  2.5751
19519SOL    HW261096   4.053   2.771   1.304 -1.6985  0.1238 -0.2124
19520SOL     OW61097   6.517   1.839   4.310 -0.6340 -0.1800 -0.1254
19520SOL    HW161098   6.427   1.821   4.337 -1.3230  2.1966 -0.6913
19520SOL    HW261099   6.508   1.890   4.229  1.2690 -1.6786 -1.3312
19521SOL     OW61100   0.974   2.921   6.371 -0.0331  0.3460  0.2664
19521SOL    HW161101   1.024   2.988   6.417  0.1141  1.3167 -1.2567
19521SOL    HW261102   0.957   2.853   6.437 -0.8187  2.2093  2.0270
19522SOL     OW61103   9.362   0.075   4.170  0.4536  0.5725  0.1755
19522SOL    HW161104   9.296   0.030   4.116  0.4595 -1.0539  1.4676
19522SOL    HW261105   9.310   0.128   4.230  0.2958 -0.5825  1.0848
19523SOL     OW61106   2.058   2.693   0.721  0.5558  0.3051 -0.0992
19523SOL    HW161107   2.057   2.607   0.764 -1.1500  0.8457  0.9724
19523SOL    HW261108   2.071   2.755   0.792 -0.0488  1.0603 -0.6462
19524SOL     OW61109   6.432   0.875   5.948 -0.0335  0.2072 -0.4225
19524SOL    HW161110   6.460   0.959   5.984 -0.4392  0.1265  0.0889
19524SOL    HW261111   6.480   0.867   5.866 -0.5359  1.2837 -0.8426
19525SOL     OW61112   4.397   8.282   5.245 -0.3712  0.2951  0.1676
19525SOL    HW161113   4.382   8.230   5.324 -1.2726  0.4333  0.0919
19525SOL    HW261114   4.312   8.286   5.202  0.2274 -0.2308 -1.0980
19526SOL     OW61115   3.884   9.434   1.249  0.2580  0.2127  0.1561
19526SOL    HW161116   3.946   9.466   1.313 -0.1546 -0.8008  1.0824
19526SOL    HW261117   3.863   9.510   1.194 -0.6399  1.4929  2.2248
19527SOL     OW61118   7.615   7.448   9.111 -0.3432  0.3257 -0.1620
19527SOL    HW161119   7.601   7.355   9.093 -0.9739  0.3010  0.4379
19527SOL    HW261120   7.652   7.450   9.199  0.2071  0.6121 -0.3963
19528SOL     OW61121   0.802   6.746   1.993  0.0358 -0.3163  0.1824
19528SOL    HW161122   0.734   6.719   2.056  0.3965  1.3081  1.3143
19528SOL    HW261123   0.783   6.839   1.977  1.8830  0.1038  0.3850
19529SOL     OW61124   2.561   4.955   9.453  0.0346 -0.0301 -0.8485
19529SOL    HW161125   2.540   4.865   9.430 -0.1624  0.1298 -1.2904
19529SOL    HW261126   2.521   5.008   9.384 -0.6876  0.4581 -0.0768
19530SOL     OW61127   3.474   0.643   5.412  0.5294 -0.3141  0.6219
19530SOL    HW161128   3.468   0.684   5.498 -0.0915 -0.8839  0.8638
19530SOL    HW261129   3.476   0.716   5.350  2.9285  0.1421  1.2081
19531SOL     OW61130   3.516   5.859   1.003 -0.0224  0.3210 -0.0963
19531SOL    HW161131   3.515   5.890   0.912 -2.1545 -1.0151 -0.5975
19531SOL    HW261132   3.541   5.935   1.055 -0.7431  1.6448 -1.6446
19532SOL     OW61133   5.992   2.535   3.965  0.4959  0.7934  0.1234
19532SOL    HW161134   6.028   2.553   3.878 -1.2259 -0.9261 -0.9809
19532SOL    HW261135   6.006   2.441   3.978 -0.5596  0.7533  1.0980
19533SOL     OW61136   1.427   2.457   9.235  0.3038  0.6629  0.5555
19533SOL    HW161137   1.451   2.470   9.143 -0.9961 -1.6422 -0.1541
19533SOL    HW261138   1.491   2.394   9.267 -0.3584  0.0890  0.7314
19534SOL     OW61139   7.663   2.607   7.652  0.0711 -0.3684 -0.0808
19534SOL    HW161140   7.703   2.521   7.638 -0.6539 -0.5097 -1.4007
19534SOL    HW261141   7.571   2.595   7.628 -0.2475  0.5418  0.6500
19535SOL     OW61142   2.103   3.373   4.836 -0.1857 -0.3274  0.5756
19535SOL    HW161143   2.094   3.401   4.745  1.0747  1.4789  0.9723
19535SOL    HW261144   2.198   3.366   4.849 -0.3422  0.0975  1.9421
19536SOL     OW61145   7.551   5.811   4.928  0.1053 -0.7307 -0.0315
19536SOL    HW161146   7.591   5.859   4.855  0.3664  1.3513  1.4468
19536SOL    HW261147   7.504   5.739   4.886 -2.2937  2.1834 -2.5192
19537SOL     OW61148   9.522   4.930   4.817  0.0754  0.1513  0.1318
19537SOL    HW161149   9.558   4.870   4.752 -0.0609  1.6577 -1.3784
19537SOL    HW261150   9.596   4.950   4.875  0.5913 -0.0156 -0.4671
19538SOL     OW61151   6.523   3.609   6.039  0.1920 -1.2718  0.3810
19538SOL    HW161152   6.441   3.641   6.002  1.1484 -0.7266 -1.3312
19538SOL    HW261153   6.549   3.537   5.981  2.0182 -0.0104 -0.4326
19539SOL     OW61154   1.029   4.256   8.675  0.3188 -0.1346 -0.5439
19539SOL    HW161155   1.099   4.254   8.739  0.1311  1.8675 -0.2511
19539SOL    HW261156   0.968   4.187   8.703  0.5632  0.2901  1.0409
19540SOL     OW61157   6.289   9.786   7.884  0.1843 -0.2406 -0.0376
19540SOL    HW161158   6.334   9.713   7.842 -1.1106  0.4076 -2.5965
19540SOL    HW261159   6.204   9.791   7.841 -0.3923  1.7303  1.2666
19541SOL     OW61160   6.864   1.560   9.876 -0.3073 -0.2937  0.0595
19541SOL    HW161161   6.932   1.595   9.933 -0.7944 -1.3027  1.2944
19541SOL    HW261162   6.839   1.477   9.917 -2.4313  0.1638 -0.2355
19542SOL     OW61163   8.855   0.330   2.013  0.0471  0.1434 -0.4810
19542SOL    HW161164   8.893   0.309   1.928  0.6562 -0.1702 -0.1355
19542SOL    HW261165   8.908   0.281   2.076 -0.3929  0.3798  0.0804
19543SOL     OW61166   7.640   7.705   6.254 -0.2292 -0.0580 -0.0700
19543SOL    HW161167   7.660   7.686   6.162  0.9113  0.8742 -0.0202
19543SOL    HW261168   7.678   7.791   6.270 -0.5307 -0.1571  1.2474
19544SOL     OW61169   3.501   9.135   2.584  0.3249 -0.2331 -0.1403
19544SOL    HW161170   3.431   9.101   2.640 -1.8114  1.6968 -1.5353
19544SOL    HW261171   3.487   9.091   2.500  0.8131  0.1228 -0.4080
19545SOL     OW61172   7.930   4.887   1.887 -0.3053  0.0967  0.4676
19545SOL    HW161173   7.945   4.958   1.948 -1.0256  0.0674  0.6846
19545SOL    HW261174   7.837   4.891   1.867 -0.0707  0.1518 -0.6851
19546SOL     OW61175   7.182   0.695   4.067  0.0298 -0.5356 -0.2948
19546SOL    HW161176   7.097   0.651   4.063 -0.0410 -0.4131 -0.0985
19546SOL    HW261177   7.177   0.752   4.143 -0.2298  0.5475 -1.1088
19547SOL     OW61178  10.058   5.972   5.721  0.6649  0.0955 -0.2875
19547SOL    HW161179  10.039   6.039   5.655  0.6984  1.2692  0.8637
19547SOL    HW261180  10.121   6.014   5.780  1.9597 -1.5439 -0.4782
19548SOL     OW61181   7.826   6.246   2.701 -0.1009  0.0806 -0.1276
19548SOL    HW161182   7.768   6.320   2.682 -1.1358 -0.9403 -0.9264
19548SOL    HW261183   7.812   6.185   2.629  1.8754 -0.2415 -0.2610
19549SOL     OW61184   9.423   4.457   0.609 -0.2331  0.5126  0.7538
19549SOL    HW161185   9.372   4.377   0.616  0.4671 -0.0726 -0.5266
19549SOL    HW261186   9.369   4.515   0.554 -0.1310  0.3991  0.5318
19550SOL     OW61187   0.151   9.030   7.650 -0.2609 -0.6043 -0.1706
19550SOL    HW161188   0.237   9.061   7.680 -0.4964 -1.2435  1.1983
19550SOL    HW261189   0.155   8.935   7.661 -2.2130 -0.3907  2.8001
19551SOL     OW61190   2.086   8.968   7.065  0.0465 -0.5528 -0.3025
19551SOL    HW161191   2.083   8.985   7.160  0.8787 -2.3603  0.0752
19551SOL    HW261192   2.107   9.052   7.026 -1.7083  0.5325  1.0076
19552SOL     OW61193   5.466   9.007   7.756  0.2173 -0.1026  0.4315
19552SOL    HW161194   5.524   8.970   7.823 -0.0196 -1.8354 -0.3048
19552SOL    HW261195   5.407   8.935   7.732 -1.4136  1.2714  0.2482
19553SOL     OW61196   0.796   2.677   8.636 -0.2418  0.0471 -0.0059
19553SOL    HW161197   0.770   2.750   8.691 -1.4681 -0.0631 -0.4227
19553SOL    HW261198   0.882   2.702   8.601 -1.0070  1.6477 -0.7832
19554SOL     OW61199   6.279   5.578   2.879  0.1504  0.6758  0.6066
19554SOL    HW161200   6.323   5.498   2.906 -0.2026  0.1121 -0.4718
19554SOL    HW261201   6.350   5.642   2.870  0.1557  1.2600  4.0523
19555SOL     OW61202   5.390   2.717   9.257 -0.0433 -0.5479 -0.3310
19555SOL    HW161203   5.457   2.671   9.207  0.8960  0.1132  0.2997
19555SOL    HW261204   5.322   2.651   9.271  0.4261 -1.1997 -1.0612
19556SOL     OW61205   8.087   0.660   5.435  0.6227 -0.4856  0.1675
19556SOL    HW161206   7.997   0.684   5.458  1.1859  0.4674  1.4673
19556SOL    HW261207   8.079   0.574   5.393 -0.9367 -0.1864 -0.1710
19557SOL     OW61208   2.287   7.279   7.786  0.1587 -0.2793 -0.1698
19557SOL    HW161209   2.319   7.234   7.864 -1.6634  0.3879  1.0011
19557SOL    HW261210   2.349   7.349   7.771  0.3535 -0.2212  0.8826
19558SOL     OW61211   0.632   3.285   9.437 -0.3144 -0.1115 -0.0322
19558SOL    HW161212   0.616   3.190   9.436 -0.8260 -0.0278 -0.7184
19558SOL    HW261213   0.693   3.299   9.365 -0.0140  0.0439  0.2554
19559SOL     OW61214   5.205   3.278   9.725 -0.3418  0.0975  0.3742
19559SOL    HW161215   5.253   3.259   9.645 -0.6206 -1.2416  0.5118
19559SOL    HW261216   5.145   3.350   9.701  1.1873  1.2703  0.0157
19560SOL     OW61217   9.310   6.639   0.915 -0.0054 -0.5254 -0.5737
19560SOL    HW161218   9.258   6.565   0.885  1.0099 -0.7975 -1.6724
19560SOL    HW261219   9.390   6.600   0.951  0.4730  0.0215 -1.0305
19561SOL     OW61220   5.838   6.981   6.571  0.1650 -0.0277 -0.6673
19561SOL    HW161221   5.748   7.006   6.594  0.7447  1.3731  0.0992
19561SOL    HW261222   5.843   6.888   6.593 -0.9679 -0.0162 -0.3248
19562SOL     OW61223   4.180   4.020   1.252 -0.4604  0.4919  0.2198
19562SOL    HW161224   4.231   4.076   1.311 -2.0158  0.5074  1.5768
19562SOL    HW261225   4.220   3.934   1.261  0.3030  0.8295  0.0976
19563SOL     OW61226   3.272  10.114   1.478  0.2192 -0.7896 -0.3372
19563SOL    HW161227   3.220  10.066   1.413 -2.3110 -0.4239  1.3553
19563SOL    HW261228   3.233  10.090   1.562  0.8474  1.9197  0.7652
19564SOL     OW61229   5.115   2.387   5.581 -0.2145 -0.1959 -0.1389
19564SOL    HW161230   5.171   2.335   5.639 -0.2192 -0.0055  0.0366
19564SOL    HW261231   5.174   2.418   5.513  0.2558  1.3621  0.9279
19565SOL     OW61232   6.054   3.475   4.651  0.2053 -0.4805  0.4111
19565SOL    HW161233   6.075   3.393   4.697  0.8177 -0.4662  0.1671
19565SOL    HW261234   6.050   3.450   4.558 -0.2327 -0.3576  0.3996
19566SOL     OW61235   7.215   4.698   8.553  0.0186  0.0110 -0.0450
19566SOL    HW161236   7.297   4.744   8.538 -0.2531  0.0465 -1.5128
19566SOL    HW261237   7.180   4.737   8.633 -0.0504  2.1471 -1.0933
19567SOL     OW61238   8.958   1.960   2.502  0.1413 -0.3849  0.5556
19567SOL    HW161239   9.041   1.921   2.528  0.7921  1.0317  0.6354
19567SOL    HW261240   8.947   1.936   2.410  0.0172 -1.6342  0.8913
19568SOL     OW61241   7.598   8.801   2.108 -0.3219 -0.1156 -0.5699
19568SOL    HW161242   7.541   8.757   2.171 -1.1017 -0.5963 -1.5969
19568SOL    HW261243   7.664   8.735   2.086  1.7514  1.0434  2.0143
19569SOL     OW61244   1.509   2.912   3.098 -0.0333  0.2855  0.3278
19569SOL    HW161245   1.591   2.936   3.140  0.6291 -1.8605  0.3321
19569SOL    HW261246   1.444   2.920   3.168  0.3900  0.6365  0.6886
19570SOL     OW61247   1.105   0.234   7.762  0.3499  0.2014 -0.1318
19570SOL    HW161248   1.131   0.142   7.767 -1.1325 -0.2036  0.3910
19570SOL    HW261249   1.064   0.243   7.676 -1.9076 -0.2956  0.8539
19571SOL     OW61250   8.104  10.104   4.028 -0.0685  0.2242  0.0630
19571SOL    HW161251   8.132  10.017   3.999 -1.5281 -0.7200  1.3748
19571SOL    HW261252   8.133  10.110   4.119 -0.8012  0.7384  0.2666
19572SOL     OW61253   9.186   3.940  10.029  0.4621  0.1881 -0.7818
19572SOL    HW161254   9.205   3.930  10.122 -0.7345  3.3936 -0.1005
19572SOL    HW261255   9.162   3.853   9.999 -0.5215 -0.6294  2.2470
19573SOL     OW61256   2.215   0.787   7.800 -0.2243  0.3728  0.4471
19573SOL    HW161257   2.245   0.810   7.712 -0.3599  0.0792  0.3256
19573SOL    HW261258   2.168   0.866   7.829 -0.6936  0.2561  0.0228
19574SOL     OW61259   8.600   0.533   6.760 -0.1671 -0.7773  0.0281
19574SOL    HW161260   8.665   0.580   6.709 -1.1169  0.3598 -0.1450
19574SOL    HW261261   8.527   0.594   6.770 -1.7525 -2.4408 -0.8469
19575SOL     OW61262   8.224   9.035   3.020  0.2254 -0.4247 -0.2136
19575SOL    HW161263   8.266   9.079   2.946 -1.4349  1.8617  0.1426
19575SOL    HW261264   8.279   9.058   3.095 -0.0829  0.2633 -0.1887
19576SOL     OW61265   2.376   1.379   1.505 -0.7866  0.2572  0.3461
19576SOL    HW161266   2.452   1.326   1.484  0.4834  1.6662  1.3412
19576SOL    HW261267   2.342   1.408   1.420 -0.6991 -1.0302 -0.1314
19577SOL     OW61268   5.151   6.042   1.946 -0.1248 -0.0438  0.2511
19577SOL    HW161269   5.172   6.083   1.862  1.4975 -0.5291  0.4047
19577SOL    HW261270   5.232   6.048   1.997 -1.0191  0.0427  1.7079
19578SOL     OW61271   9.912   1.272   9.706 -0.0932  0.1911  0.3775
19578SOL    HW161272   9.918   1.334   9.779  2.1257 -0.2462  0.6029
19578SOL    HW261273   9.917   1.327   9.628 -0.1652  0.4590  0.5606
19579SOL     OW61274   5.956   0.385   9.598  0.2342  0.0076 -0.3554
19579SOL    HW161275   5.882   0.432   9.560  0.5308  2.0580  1.5405
19579SOL    HW261276   6.032   0.439   9.577  0.9216 -0.9516 -0.3748
19580SOL     OW61277   7.162   3.306   9.308 -0.5225 -0.1936 -0.0193
19580SOL    HW161278   7.234   3.319   9.246 -0.7044  0.3038 -0.1246
19580SOL    HW261279   7.199   3.325   9.393 -0.5497  0.1339 -0.0820
19581SOL     OW61280   2.079   4.467   0.550 -0.5390  0.0266  0.3454
19581SOL    HW161281   2.024   4.470   0.629 -0.9714  0.6344  0.0247
19581SOL    HW261282   2.032   4.410   0.490  0.2168 -1.1257  0.8417
19582SOL     OW61283   8.361   7.868   4.782 -0.5294  0.0498  0.2197
19582SOL    HW161284   8.385   7.957   4.810 -0.1091 -0.4628  1.5553
19582SOL    HW261285   8.419   7.811   4.833 -0.9398 -1.0027 -0.4748
19583SOL     OW61286   5.175   2.206   8.706  0.3554  0.1201 -0.4187
19583SOL    HW161287   5.153   2.152   8.781  0.5977 -1.8792 -1.7457
19583SOL    HW261288   5.156   2.296   8.734  0.8330 -0.5474  2.1379
19584SOL     OW61289   6.277   2.598   6.002  0.2971 -0.7813 -0.0856
19584SOL    HW161290   6.346   2.661   5.980 -0.9281  0.3570 -0.6976
19584SOL    HW261291   6.198   2.651   6.012 -0.0752 -1.7834  2.8457
19585SOL     OW61292   4.147   7.329   3.467  0.1523  0.0576  0.1232
19585SOL    HW161293   4.205   7.297   3.399 -0.7538  3.0019 -2.1538
19585SOL    HW261294   4.059   7.316   3.432 -0.3948  0.0637  1.4538
19586SOL     OW61295   7.993   3.786   5.725  0.4401  0.0825 -0.0164
19586SOL    HW161296   7.948   3.843   5.787 -0.0647 -0.9094  0.5449
19586SOL    HW261297   8.069   3.836   5.696 -1.3381  2.0409 -1.4427
19587SOL     OW61298   4.837   8.494   8.374  0.7160 -0.5308 -0.1439
19587SOL    HW161299   4.762   8.452   8.416  0.9305 -2.1252 -1.2878
19587SOL    HW261300   4.898   8.422   8.358  2.3223  0.6754  0.4059
19588SOL     OW61301   0.841   8.141   8.347 -0.4070 -0.0062 -0.4929
19588SOL    HW161302   0.912   8.150   8.282 -1.6354  0.0007 -1.8628
19588SOL    HW261303   0.800   8.227   8.349 -0.2132  0.0660  0.5006
19589SOL     OW61304   9.303   1.841   3.225 -0.0495  0.1866  0.2569
19589SOL    HW161305   9.394   1.828   3.198 -0.2339 -1.4413  0.3928
19589SOL    HW261306   9.306   1.917   3.283  1.1546  0.4243 -0.1034
19590SOL     OW61307  10.165   5.728   4.413 -0.3516  0.0370  0.4680
19590SOL    HW161308  10.239   5.672   4.436  0.6298  0.9938 -0.2834
19590SOL    HW261309  10.098   5.708   4.478 -0.0483 -2.0320  0.1698
19591SOL     OW61310   7.728   0.388   2.729 -0.0997  0.3414 -0.0661
19591SOL    HW161311   7.813   0.349   2.749 -1.4231 -1.9368  1.3397
19591SOL    HW261312   7.700   0.429   2.811 -0.3014  1.1604 -0.5467
19592SOL     OW61313   3.886   3.745   9.462 -0.7289 -0.0798  0.4964
19592SOL    HW161314   3.840   3.828   9.475  0.3816  0.3884  1.4590
19592SOL    HW261315   3.970   3.769   9.425 -1.0349 -0.9095 -0.7902
19593SOL     OW61316   1.967   8.478   2.550  0.0389 -0.1212 -0.8544
19593SOL    HW161317   2.030   8.537   2.591 -0.9567  0.0258  0.4998
19593SOL    HW261318   1.987   8.392   2.587 -1.9333  0.2926  1.2545
19594SOL     OW61319   1.777   6.001   7.554  0.3301  0.4013  0.1188
19594SOL    HW161320   1.821   5.924   7.519 -2.3742 -1.5295  0.7961
19594SOL    HW261321   1.806   6.005   7.645  0.4929  0.2154  0.0762
19595SOL     OW61322   4.413   0.356   1.900 -0.2738 -0.4763 -0.6439
19595SOL    HW161323   4.389   0.393   1.815 -0.0529  0.4833 -0.2978
19595SOL    HW261324   4.351   0.395   1.962  1.3274  1.0236  0.0531
19596SOL     OW61325   2.032   5.979   3.319 -0.1972  0.1816  0.0194
19596SOL    HW161326   2.011   6.001   3.410 -0.7232  1.3822 -0.3709
19596SOL    HW261327   2.124   6.003   3.309  0.6011 -2.3696  0.9352
19597SOL     OW61328   8.853   7.485   0.616 -0.9139 -0.1968 -0.1381
19597SOL    HW161329   8.875   7.432   0.692  0.2170  0.4660  0.0131
19597SOL    HW261330   8.758   7.498   0.621 -1.0115 -1.1832  0.4773
19598SOL     OW61331   9.771   6.816   7.019 -0.1082  0.5737 -0.0719
19598SOL    HW161332   9.798   6.724   7.015 -0.5285  0.3555  1.7328
19598SOL    HW261333   9.692   6.819   6.964  0.2144 -0.0306 -0.5812
19599SOL     OW61334   0.593   0.004   5.364  0.0877  0.3926  0.1464
19599SOL    HW161335   0.553  -0.076   5.330 -0.7885  0.3661  1.2007
19599SOL    HW261336   0.630   0.047   5.288 -1.0890 -0.0857 -0.7065
19600SOL     OW61337   8.243   4.988   9.829  1.3311  0.1436 -0.1839
19600SOL    HW161338   8.217   4.999   9.920  1.2080  1.6828 -0.3957
19600SOL    HW261339   8.242   4.894   9.815  0.9847 -0.0819  1.2988
19601SOL     OW61340   1.281   8.403   3.236  0.4797 -0.2442 -0.3883
19601SOL    HW161341   1.208   8.341   3.245  0.4688 -0.3333 -1.1139
19601SOL    HW261342   1.353   8.351   3.199  0.7896 -0.0620 -0.0503
19602SOL     OW61343   0.844   1.804   6.332  0.4075  0.5056  0.0353
19602SOL    HW161344   0.820   1.867   6.264 -0.6478  0.1094  0.0340
19602SOL    HW261345   0.761   1.775   6.368  0.9472  0.4806  1.2954
19603SOL     OW61346   8.118   4.678  10.128  0.2536  0.2615 -0.2935
19603SOL    HW161347   8.040   4.657  10.180  0.9006 -1.0880  0.1479
19603SOL    HW261348   8.191   4.670  10.189  0.7968  0.9931 -0.8404
19604SOL     OW61349   0.525   7.545   7.092  0.1341 -0.3967 -0.4756
19604SOL    HW161350   0.616   7.513   7.087  0.0535 -1.2731  2.7279
19604SOL    HW261351   0.519   7.584   7.179 -2.6102 -0.4595 -0.6203
19605SOL     OW61352   4.849   6.893   9.562  0.1662 -0.3291  0.3465
19605SOL    HW161353   4.794   6.919   9.635  0.0634 -0.1025  0.1894
19605SOL    HW261354   4.795   6.908   9.484 -0.2635 -2.0016  0.3191
19606SOL     OW61355   9.502   1.144   2.826 -0.3729  0.3600  0.1059
19606SOL    HW161356   9.444   1.091   2.771  0.8507 -1.5301  0.5720
19606SOL    HW261357   9.517   1.090   2.903  0.1565  1.8133  1.0415
19607SOL     OW61358   2.661   4.249   9.134  0.4475  0.2781 -0.4506
19607SOL    HW161359   2.714   4.170   9.124  2.1744  1.3809 -0.4558
19607SOL    HW261360   2.695   4.308   9.066 -0.8200  1.0103 -0.4591
19608SOL     OW61361  10.124   1.471   3.119 -0.3683 -0.5268 -0.1708
19608SOL    HW161362  10.152   1.494   3.207 -0.2877 -3.7681  0.7247
19608SOL    HW261363  10.184   1.519   3.061  0.0081  1.0869  1.5061
19609SOL     OW61364   5.103   2.845   3.614  0.0691 -0.2292 -0.3789
19609SOL    HW161365   5.029   2.785   3.606  0.7829 -1.4291  1.6868
19609SOL    HW261366   5.065   2.926   3.648 -0.3630 -0.6703  0.1744
19610SOL     OW61367   6.819   8.888   8.162  0.3928 -0.0920 -0.1546
19610SOL    HW161368   6.827   8.886   8.257 -0.1123  1.2442 -0.0776
19610SOL    HW261369   6.747   8.948   8.145  1.8512  1.3338 -1.4681
19611SOL     OW61370   2.806   1.444   9.052  0.2955  0.5718 -0.1699
19611SOL    HW161371   2.761   1.529   9.050 -1.0908 -0.1499 -0.7274
19611SOL    HW261372   2.770   1.400   9.129 -0.2349 -0.1558 -0.8231
19612SOL     OW61373   0.961   5.007   4.881  0.6178 -0.2671  0.1580
19612SOL    HW161374   0.937   5.060   4.805 -1.2002  1.1989  1.7063
19612SOL    HW261375   0.931   4.919   4.860 -2.1854  0.6420  0.2203
19613SOL     OW61376  10.153   8.415   5.315 -0.5084  0.3066  0.2479
19613SOL    HW161377  10.123   8.339   5.264  0.9727 -0.2397  0.1677
19613SOL    HW261378  10.215   8.460   5.257 -1.9117  2.0150  0.0031
19614SOL     OW61379   8.010   1.394   4.031 -0.4491  0.5617  0.2646
19614SOL    HW161380   7.917   1.375   4.040 -0.3390 -0.6160 -0.9026
19614SOL    HW261381   8.015   1.489   4.021 -1.4021  0.7724  1.7171
19615SOL     OW61382   9.028   9.671   4.776 -0.2207  0.1657 -0.5786
19615SOL    HW161383   8.986   9.587   4.755 -0.6763  0.7770 -2.1839
19615SOL    HW261384   9.019   9.679   4.871 -1.6589 -0.8216 -0.6126
19616SOL     OW61385   3.600  10.095   4.944 -0.8777 -0.1686 -0.1968
19616SOL    HW161386   3.616  10.151   4.868  1.5394 -1.3843 -0.6402
19616SOL    HW261387   3.512  10.120   4.974 -1.1273  1.6237 -2.2542
19617SOL     OW61388   2.990   9.371   6.248  0.0636  0.0892  0.1094
19617SOL    HW161389   2.984   9.410   6.160  1.7456 -0.7208 -0.3828
19617SOL    HW261390   2.912   9.402   6.293 -0.7549  0.6302 -1.6390
19618SOL     OW61391   5.873   5.558   6.652 -0.2731 -0.0370 -0.4433
19618SOL    HW161392   5.938   5.565   6.582 -0.8491  1.4278 -0.8462
19618SOL    HW261393   5.850   5.649   6.673  0.3584 -0.4150  2.0864
19619SOL     OW61394   0.882   3.963   5.414 -0.7355  0.2632  0.1527
19619SOL    HW161395   0.888   3.870   5.393 -0.6677  0.3451 -0.1839
19619SOL    HW261396   0.913   3.969   5.505 -0.1189  0.0499 -0.0456
19620SOL     OW61397   9.337   2.930   8.178 -0.3963  0.1188  0.1946
19620SOL    HW161398   9.301   2.867   8.116  0.0149 -0.6158  0.6930
19620SOL    HW261399   9.424   2.949   8.145 -0.5837  0.5497 -0.0458
19621SOL     OW61400   1.051   9.441   0.123 -0.4559  0.3716  0.0886
19621SOL    HW161401   0.965   9.464   0.088  0.2519  0.4932 -1.6273
19621SOL    HW261402   1.108   9.513   0.097  0.4976 -0.4678 -0.1903
19622SOL     OW61403   9.687   5.585   4.662  0.6036 -0.3371  0.2905
19622SOL    HW161404   9.698   5.490   4.669 -2.1819 -0.8153 -1.0328
19622SOL    HW261405   9.641   5.609   4.743 -0.2971 -0.4078 -0.1957
19623SOL     OW61406   4.408  10.045   7.063  0.0849  0.0199 -0.1876
19623SOL    HW161407   4.403   9.955   7.030 -2.2342  0.6711 -1.7195
19623SOL    HW261408   4.322  10.082   7.045  0.8314  2.3982  0.9307
19624SOL     OW61409   0.256   2.738   9.411 -0.1852  0.7056  0.1189
19624SOL    HW161410   0.309   2.685   9.471 -1.2291 -0.1424  0.3147
19624SOL    HW261411   0.302   2.732   9.328  0.3395  0.4418  0.4241
19625SOL     OW61412   0.188   7.543   7.125 -0.2818  0.2618  0.4773
19625SOL    HW161413   0.202   7.546   7.030 -1.7514 -0.3244  0.2384
19625SOL    HW261414   0.096   7.521   7.136 -0.2936  0.9977  2.0525
19626SOL     OW61415   1.378   1.779   2.274 -0.6474 -0.5906  0.4139
19626SOL    HW161416   1.296   1.786   2.224  0.4321 -1.4722 -1.5664
19626SOL    HW261417   1.393   1.867   2.309 -2.2427 -0.3343  0.4836
19627SOL     OW61418   2.315   1.459   1.257  0.0956  0.2918  0.2031
19627SOL    HW161419   2.305   1.407   1.177  0.8146  0.7008 -0.1552
19627SOL    HW261420   2.276   1.544   1.235 -1.5987 -0.2686  0.9753
19628SOL     OW61421   3.018   8.225   7.831  0.3904  0.1979  0.3195
19628SOL    HW161422   3.054   8.173   7.759  0.8736  0.6663  0.2169
19628SOL    HW261423   3.082   8.295   7.844  0.3860  0.0322  1.3059
19629SOL     OW61424   5.676   0.588   3.046 -0.1221  0.1092  0.2950
19629SOL    HW161425   5.587   0.557   3.029 -0.6231  1.4678  0.4306
19629SOL    HW261426   5.680   0.600   3.141 -0.2356  1.4019  0.1347
19630SOL     OW61427   1.829   8.301   3.459 -0.2560 -0.1087  0.1635
19630SOL    HW161428   1.820   8.210   3.432 -0.1922  0.3288 -1.3945
19630SOL    HW261429   1.909   8.303   3.510 -0.8068 -1.1156  1.0826
19631SOL     OW61430   6.223  10.067   1.217  0.2372 -0.0942  0.0259
19631SOL    HW161431   6.250   9.980   1.189 -0.6600 -0.2854 -0.2283
19631SOL    HW261432   6.254  10.126   1.148  1.3569 -0.1338  0.4783
19632SOL     OW61433   1.826   2.317   9.973 -0.1859  0.0822  0.6828
19632SOL    HW161434   1.748   2.348   9.927 -0.7090 -0.0663  1.4694
19632SOL    HW261435   1.847   2.233   9.931  0.1898  0.6434 -0.2556
19633SOL     OW61436   2.921   0.707   9.885 -0.6905  0.3797 -0.6871
19633SOL    HW161437   2.866   0.694   9.962 -0.1320 -0.1467 -0.3756
19633SOL    HW261438   2.889   0.788   9.846 -0.0866  1.3989  0.8707
19634SOL     OW61439   3.678   6.941   5.638  0.3391 -0.0490 -0.3213
19634SOL    HW161440   3.642   7.009   5.580  0.4267 -0.9127 -1.4142
19634SOL    HW261441   3.770   6.965   5.649  0.4944 -0.2504 -1.1147
19635SOL     OW61442   3.362   9.045   7.482 -0.7487 -0.6835  0.3519
19635SOL    HW161443   3.299   9.116   7.495 -0.2002 -0.0484 -0.4412
19635SOL    HW261444   3.308   8.969   7.460 -1.2568 -0.2235  0.0049
19636SOL     OW61445   6.881   1.409   7.641  0.2902  0.9544 -0.2841
19636SOL    HW161446   6.841   1.390   7.726  1.9337  0.3329  0.3714
19636SOL    HW261447   6.875   1.327   7.593 -0.0267  1.1145 -0.5192
19637SOL     OW61448   9.765   4.006   1.737 -0.6672 -0.3223  0.1007
19637SOL    HW161449   9.780   4.064   1.662  0.4358 -0.6665  0.0525
19637SOL    HW261450   9.673   3.979   1.728 -0.0621 -1.7812 -2.1463
19638SOL     OW61451   5.752   4.444   1.769 -0.1809 -1.1755 -0.1197
19638SOL    HW161452   5.674   4.396   1.798 -0.1362 -0.4377  1.2380
19638SOL    HW261453   5.824   4.381   1.777 -0.2464 -1.1202  0.9289
19639SOL     OW61454   8.359   5.830   5.797 -0.5521 -0.6133 -0.3159
19639SOL    HW161455   8.281   5.786   5.833  0.2648 -1.3649  0.5869
19639SOL    HW261456   8.386   5.889   5.867  0.2673 -1.0890 -0.2310
19640SOL     OW61457   1.585   1.586   3.057 -0.1662  0.0353 -0.2609
19640SOL    HW161458   1.512   1.643   3.079  0.0967  1.3076 -2.5621
19640SOL    HW261459   1.640   1.638   2.999  0.8995 -2.0025 -1.1297
19641SOL     OW61460   2.187   2.316   6.452  0.6690  0.4227 -0.3095
19641SOL    HW161461   2.162   2.336   6.362 -3.7463  1.0723  0.9045
19641SOL    HW261462   2.212   2.224   6.451  0.7389  0.4530 -2.1922
19642SOL     OW61463   8.267   8.616   7.671 -0.2493 -0.0557 -0.6044
19642SOL    HW161464   8.326   8.541   7.658  0.5315  0.2524  0.9931
19642SOL    HW261465   8.291   8.678   7.602  0.7451 -0.2846 -0.4718
19643SOL     OW61466   4.006  10.127   5.318 -0.4125 -0.3958  0.1208
19643SOL    HW161467   3.948  10.124   5.395  0.0243 -0.2357  0.4613
19643SOL    HW261468   3.970  10.062   5.258 -2.4087  1.4589 -0.7315
19644SOL     OW61469   9.972   8.822   7.153 -0.3182  0.4651 -0.4974
19644SOL    HW161470  10.062   8.847   7.130  0.3640 -1.2969  0.1768
19644SOL    HW261471   9.940   8.775   7.076  0.4810 -1.6881  0.4270
19645SOL     OW61472   3.414   8.987   1.872  0.4001  0.0732  0.1088
19645SOL    HW161473   3.484   8.970   1.809  1.0970 -0.9712  1.1484
19645SOL    HW261474   3.372   8.902   1.885  0.3885  0.2338  1.1948
19646SOL     OW61475   5.562   2.749   6.761  0.7053  0.1176 -0.3094
19646SOL    HW161476   5.519   2.794   6.688 -1.7307 -2.6325 -0.6627
19646SOL    HW261477   5.607   2.675   6.720  2.5139  0.7285  0.5460
19647SOL     OW61478   9.765   0.236   4.767  0.0734  0.0782  0.0858
19647SOL    HW161479   9.733   0.276   4.685  1.9997  0.3155 -0.5730
19647SOL    HW261480   9.720   0.285   4.836 -1.4027  0.0367 -0.8086
19648SOL     OW61481   6.752   8.947   4.999 -0.2097  0.4955  0.1562
19648SOL    HW161482   6.712   8.904   5.075 -0.4947 -1.5766 -1.1165
19648SOL    HW261483   6.821   8.887   4.972  0.7966  1.8821 -0.4097
19649SOL     OW61484   3.882   0.802   8.485  0.3474 -0.4143 -0.2234
19649SOL    HW161485   3.964   0.794   8.534  0.0327 -0.2556  0.3379
19649SOL    HW261486   3.906   0.848   8.405  0.4474  1.4132  0.8464
19650SOL     OW61487   1.902   9.509   7.541  0.0967  0.4635  0.1498
19650SOL    HW161488   1.944   9.438   7.591 -0.6051  0.8336  1.2742
19650SOL    HW261489   1.937   9.589   7.580 -1.1337  0.7655  0.6519
19651SOL     OW61490   0.816   9.046   3.134  0.1830  0.1287  0.0329
19651SOL    HW161491   0.888   9.026   3.074  0.3237 -0.5119  0.4149
19651SOL    HW261492   0.825   9.140   3.150 -0.0204  0.3563 -1.1598
19652SOL     OW61493   7.992   9.220   1.240 -0.2443  0.5291  0.6156
19652SOL    HW161494   7.984   9.186   1.329 -1.9445 -1.8817 -0.4001
19652SOL    HW261495   8.032   9.148   1.190 -0.3826  1.4118 -0.7992
19653SOL     OW61496   8.117   3.726   9.439 -0.3746  0.6500  1.0931
19653SOL    HW161497   8.058   3.802   9.446  1.0619  1.8894  0.0884
19653SOL    HW261498   8.097   3.688   9.354  0.6396  1.4169  0.4940
19654SOL     OW61499   5.931   6.693   1.422 -0.9312  0.3519  0.1757
19654SOL    HW161500   5.847   6.733   1.402  0.2043  3.0151  0.4747
19654SOL    HW261501   5.995   6.760   1.399  1.1147 -1.6954 -0.2151
19655SOL     OW61502   2.863   6.452   6.459 -0.1918 -0.4265  0.2906
19655SOL    HW161503   2.791   6.445   6.522  0.5015 -1.5129  0.9860
19655SOL    HW261504   2.823   6.429   6.375 -0.7682 -0.5215  0.5860
19656SOL     OW61505   7.004   5.364   1.177 -0.1745 -0.1919 -0.1206
19656SOL    HW161506   7.074   5.413   1.222 -1.7352  0.6454  1.4357
19656SOL    HW261507   6.925   5.415   1.193 -1.0465 -0.7501 -2.4938
19657SOL     OW61508   0.738   8.546   1.982  0.3290 -0.0628 -0.5477
19657SOL    HW161509   0.756   8.638   2.005 -2.1769  0.1472  0.7202
19657SOL    HW261510   0.779   8.496   2.052 -0.9433  0.2513  0.4413
19658SOL     OW61511   4.782   3.444   8.517  0.1545  0.2718 -0.4324
19658SOL    HW161512   4.790   3.415   8.608 -0.2169 -0.6857 -0.6922
19658SOL    HW261513   4.696   3.413   8.489 -0.2555  1.6479 -0.7338
19659SOL     OW61514   3.724   7.468   8.363 -0.0631  0.7479 -0.4377
19659SOL    HW161515   3.808   7.510   8.382  0.5555 -0.7525  0.2879
19659SOL    HW261516   3.732   7.438   8.272  0.1966  0.6166 -0.3723
19660SOL     OW61517   3.419   9.049  10.038 -0.6357  0.2635  0.5703
19660SOL    HW161518   3.460   9.067  10.123 -0.5112 -2.3483  1.0867
19660SOL    HW261519   3.475   8.983   9.998 -2.7556 -1.2529  0.0591
19661SOL     OW61520   8.892   7.725   1.547 -0.2237 -0.2100  0.0102
19661SOL    HW161521   8.851   7.677   1.476  0.2398 -0.5600 -0.0240
19661SOL    HW261522   8.986   7.714   1.532 -0.1290 -0.7515  0.9936
19662SOL     OW61523   9.598   8.364   2.097 -0.1593 -0.4318  0.9367
19662SOL    HW161524   9.565   8.354   2.187  0.1543  3.0787  1.5102
19662SOL    HW261525   9.519   8.370   2.044 -0.4030  1.1882  1.4627
19663SOL     OW61526   1.860   1.825   4.736  0.0615 -0.2244  0.0332
19663SOL    HW161527   1.872   1.897   4.675  0.7339  0.4333  0.9268
19663SOL    HW261528   1.781   1.847   4.786 -1.5198 -1.6317 -1.7852
19664SOL     OW61529   0.051   9.769   5.763 -0.0933 -0.5181 -0.7801
19664SOL    HW161530   0.018   9.683   5.739  0.4390 -1.1323  0.6316
19664SOL    HW261531  -0.025   9.815   5.799  0.1482 -1.2432  0.6692
19665SOL     OW61532   8.852   9.771   4.498  0.1363  0.3052 -0.3786
19665SOL    HW161533   8.831   9.813   4.414  0.7870 -0.2983 -0.8516
19665SOL    HW261534   8.813   9.828   4.564  0.6942  1.4728 -1.0316
19666SOL     OW61535   6.192   9.204   4.491 -0.5838  0.5564 -0.1659
19666SOL    HW161536   6.203   9.172   4.580 -1.0206  2.0547  0.4329
19666SOL    HW261537   6.113   9.159   4.459 -1.1188  0.9297  0.6164
19667SOL     OW61538   9.102  10.166   7.363  0.2769 -0.3735 -0.2714
19667SOL    HW161539   9.077  10.111   7.438 -0.9406 -3.5040 -2.8150
19667SOL    HW261540   9.197  10.165   7.362  0.3406  1.0188  2.1190
19668SOL     OW61541   2.732   9.370   9.981 -0.2706  0.3982 -0.2759
19668SOL    HW161542   2.724   9.435  10.051 -0.2099  0.2178 -0.0982
19668SOL    HW261543   2.824   9.342   9.985 -0.5798 -0.5433  0.4140
19669SOL     OW61544   8.871   7.927   1.356  0.1593  0.4581 -0.0783
19669SOL    HW161545   8.865   8.021   1.375 -1.5651  0.7080 -1.5908
19669SOL    HW261546   8.881   7.885   1.441  1.4376  2.0398  0.5758
19670SOL     OW61547   6.878   6.756   3.252  0.0519  0.1872 -0.0383
19670SOL    HW161548   6.958   6.723   3.210 -0.2611 -0.6384  0.0096
19670SOL    HW261549   6.807   6.712   3.206 -0.2788 -1.2083  1.7726
19671SOL     OW61550   4.132   7.820   3.005 -0.5650  0.3533  0.0500
19671SOL    HW161551   4.067   7.751   2.993  1.3277 -1.6489  0.8631
19671SOL    HW261552   4.158   7.812   3.097  1.7133  0.2972 -0.5806
19672SOL     OW61553   0.379   8.514   4.441  0.3165  0.2476 -0.3364
19672SOL    HW161554   0.418   8.503   4.528 -0.9726 -0.7615  0.1217
19672SOL    HW261555   0.375   8.609   4.428  2.4144  0.3892 -0.1754
19673SOL     OW61556   1.328   3.300   3.568 -0.1876  0.0401 -0.1730
19673SOL    HW161557   1.290   3.288   3.655 -0.5522  0.3220 -0.2933
19673SOL    HW261558   1.421   3.280   3.580 -0.1882  0.3294  0.3404
19674SOL     OW61559   4.759   3.518   6.225 -0.3990 -0.0049  0.7456
19674SOL    HW161560   4.773   3.612   6.212 -1.7824  0.1938  0.5466
19674SOL    HW261561   4.671   3.513   6.263 -0.6332 -1.2678  0.0394
19675SOL     OW61562   3.844   7.103   8.984 -0.6004  0.1858 -0.2180
19675SOL    HW161563   3.886   7.157   9.051 -1.4332 -0.7722  1.0967
19675SOL    HW261564   3.760   7.146   8.968 -0.3989  0.4175 -0.6492
19676SOL     OW61565   2.608   9.608   0.779 -1.3118 -0.2016  0.2952
19676SOL    HW161566   2.584   9.517   0.795 -1.1686 -0.1254  0.9470
19676SOL    HW261567   2.704   9.608   0.779 -1.3032  0.1016  1.2168
19677SOL     OW61568   4.317   0.744   3.700  0.3110 -0.1910  0.6606
19677SOL    HW161569   4.375   0.819   3.705  0.2550 -0.0956 -0.0923
19677SOL    HW261570   4.230   0.782   3.687  0.5601 -0.4495 -1.8573
19678SOL     OW61571   4.963   4.820   0.141 -0.3208 -0.0193 -0.4149
19678SOL    HW161572   4.888   4.875   0.165 -0.5256 -0.6010  0.3112
19678SOL    HW261573   5.016   4.874   0.084 -2.7990 -0.5917 -3.3639
19679SOL     OW61574   9.454   1.350   0.278  0.0056 -0.5282 -0.3279
19679SOL    HW161575   9.438   1.419   0.214  1.3037 -1.0830 -1.2805
19679SOL    HW261576   9.379   1.291   0.268 -0.4500  0.0679 -0.4262
19680SOL     OW61577   7.809   1.937   6.428 -0.0785 -0.2387 -0.0245
19680SOL    HW161578   7.903   1.942   6.412 -0.1651 -1.1305 -0.8649
19680SOL    HW261579   7.800   1.933   6.523  0.7638 -0.9123  0.0190
19681SOL     OW61580   8.977   4.699  10.166  0.1097 -0.8923  0.1463
19681SOL    HW161581   8.938   4.769  10.218  1.0250 -1.0319  1.0342
19681SOL    HW261582   8.922   4.694  10.087 -0.5209  0.1765  0.5102
19682SOL     OW61583   1.075   4.282   7.655 -0.0910 -0.4950 -0.5204
19682SOL    HW161584   1.135   4.209   7.669  1.2252  0.4719 -0.9327
19682SOL    HW261585   1.130   4.350   7.615 -1.1349  0.9237  0.3975
19683SOL     OW61586   7.670   7.668   5.146  0.2767  0.4926 -0.5887
19683SOL    HW161587   7.672   7.633   5.057  1.4800  0.6052 -0.6088
19683SOL    HW261588   7.578   7.663   5.171  0.3870 -2.6412 -0.6047
19684SOL     OW61589   4.837  10.180   1.611 -0.9483 -0.0147 -0.0259
19684SOL    HW161590   4.895  10.186   1.536 -1.3108  0.9009 -0.2393
19684SOL    HW261591   4.756  10.144   1.576 -1.3996  1.1828 -0.2484
19685SOL     OW61592   9.473   4.040   1.355  0.2361 -0.4413  0.1595
19685SOL    HW161593   9.497   4.111   1.296 -0.3681  0.9085  1.4980
19685SOL    HW261594   9.556   4.010   1.393  0.3129  0.9264  1.1069
19686SOL     OW61595   8.226   3.579   7.333  0.0780  0.1875 -0.4514
19686SOL    HW161596   8.221   3.536   7.418 -2.0594  0.9276 -0.1798
19686SOL    HW261597   8.141   3.621   7.322  0.2896 -0.0025 -3.0256
19687SOL     OW61598   2.252   4.490   1.866  0.0415  0.0499  0.1618
19687SOL    HW161599   2.213   4.572   1.837  1.1314 -0.7326 -3.7497
19687SOL    HW261600   2.345   4.509   1.876  0.3342 -0.7265 -0.9549
19688SOL     OW61601   1.688   9.990   4.370 -0.5639 -0.3792  0.2640
19688SOL    HW161602   1.612  10.041   4.343  0.2180  0.9855  0.6105
19688SOL    HW261603   1.730   9.965   4.288  0.0998  1.1577  0.1207
19689SOL     OW61604   1.562   0.448   2.960 -0.3627 -0.0680  0.7619
19689SOL    HW161605   1.588   0.521   2.904  0.5900 -0.4373  0.7142
19689SOL    HW261606   1.525   0.489   3.038  0.6407  0.4705  0.9590
19690SOL     OW61607   3.539  10.117   8.176 -0.2767  0.7907 -0.1976
19690SOL    HW161608   3.454  10.075   8.164 -0.3832  1.5616 -2.3871
19690SOL    HW261609   3.595  10.076   8.110  0.4646  1.7766 -0.1987
19691SOL     OW61610   2.156   7.260   8.471  0.2594 -0.1138  0.3614
19691SOL    HW161611   2.062   7.268   8.488  0.1847 -0.0040 -0.1072
19691SOL    HW261612   2.162   7.237   8.378  0.6683 -0.8542  0.5695
19692SOL     OW61613   2.534   2.445   4.852 -0.7980 -0.4289 -0.7045
19692SOL    HW161614   2.490   2.504   4.914  1.0363 -0.2488  0.4514
19692SOL    HW261615   2.468   2.378   4.833 -2.6054  1.4595 -1.3510
19693SOL     OW61616   3.706   5.483   2.147 -0.0445 -0.4077  0.3578
19693SOL    HW161617   3.612   5.475   2.161  0.0968  1.3723  2.6507
19693SOL    HW261618   3.715   5.514   2.057 -1.6495 -0.4870  0.1650
19694SOL     OW61619   4.109   5.539   0.787 -0.2624 -0.6098  0.6082
19694SOL    HW161620   4.111   5.570   0.878  0.1947  0.8577  0.1267
19694SOL    HW261621   4.018   5.548   0.760 -0.1735  0.1423  0.5438
19695SOL     OW61622   9.431   0.972   1.351  0.3346  0.1475  0.3466
19695SOL    HW161623   9.498   1.018   1.300  1.6761  0.3055  2.1862
19695SOL    HW261624   9.350   0.986   1.302  1.0365  2.9155 -0.1408
19696SOL     OW61625   0.035   3.586   3.346 -0.1264 -0.2804 -0.2105
19696SOL    HW161626   0.049   3.680   3.347  0.8454 -0.4186 -0.0309
19696SOL    HW261627  -0.006   3.567   3.430  0.7976 -0.1700  0.2766
19697SOL     OW61628   7.525   6.361   1.066  0.3101  0.7349  0.2792
19697SOL    HW161629   7.464   6.403   1.127 -0.6778  0.6001 -0.6047
19697SOL    HW261630   7.591   6.428   1.050 -0.1939  1.2722  0.4039
19698SOL     OW61631   2.987   7.999   1.304 -0.1043  0.4880  0.1424
19698SOL    HW161632   2.951   8.028   1.388  1.2431  0.5730  0.7097
19698SOL    HW261633   3.014   7.908   1.321  0.2059  0.5197 -0.1723
19699SOL     OW61634   9.742   2.175   8.352  0.5409 -0.2866 -0.2431
19699SOL    HW161635   9.788   2.131   8.423  0.3370  0.0555  0.0973
19699SOL    HW261636   9.652   2.184   8.383  0.6330  0.5730 -0.2212
19700SOL     OW61637   5.205   5.461   1.134  0.3791 -0.4100 -0.0618
19700SOL    HW161638   5.178   5.461   1.042  1.8882 -1.6200 -0.5190
19700SOL    HW261639   5.219   5.369   1.155  1.8836  0.0094  0.8376
19701SOL     OW61640   0.586   1.726   6.398 -0.5064 -0.2602  0.4312
19701SOL    HW161641   0.586   1.633   6.420 -1.8724  0.0333  1.7714
19701SOL    HW261642   0.511   1.737   6.340  0.7353 -0.3130 -1.1973
19702SOL     OW61643   3.768   1.702   5.333  0.4731 -0.3638 -0.4590
19702SOL    HW161644   3.769   1.618   5.379  0.5543 -0.5312 -0.7667
19702SOL    HW261645   3.822   1.760   5.388  2.3400 -1.1312 -1.4138
19703SOL     OW61646   2.570   1.294   5.794  0.9201  0.1824 -0.2157
19703SOL    HW161647   2.662   1.282   5.818  1.0327  1.2267 -0.0953
19703SOL    HW261648   2.543   1.374   5.840 -0.1765 -0.3634  0.1037
19704SOL     OW61649   4.280   2.384   3.615 -0.1179  0.1192 -0.5473
19704SOL    HW161650   4.351   2.405   3.554  0.3278 -2.5870 -0.9990
19704SOL    HW261651   4.321   2.386   3.702 -0.1252  1.2149 -0.5606
19705SOL     OW61652   3.413   4.893   2.371 -0.0961 -0.5273  0.3281
19705SOL    HW161653   3.488   4.943   2.403 -0.5948  0.9272 -0.7084
19705SOL    HW261654   3.435   4.802   2.390  1.6796 -0.0776  0.5466
19706SOL     OW61655   1.465   1.140   1.210  0.5856 -0.3680 -0.2224
19706SOL    HW161656   1.446   1.058   1.163 -0.6081 -0.7381  0.8840
19706SOL    HW261657   1.380   1.166   1.247  1.4267  0.1524  1.3604
19707SOL     OW61658   5.083   2.599   6.882  0.4736 -0.3955  0.4387
19707SOL    HW161659   5.163   2.621   6.834  0.3486 -1.2636 -0.1602
19707SOL    HW261660   5.105   2.520   6.931 -0.0194 -0.6352  0.2731
19708SOL     OW61661   4.424   3.174   7.987 -0.0311  0.0335 -0.4421
19708SOL    HW161662   4.405   3.258   7.947  0.8851  0.5795  0.2591
19708SOL    HW261663   4.374   3.111   7.935 -0.6757  0.9937 -1.0035
19709SOL     OW61664   1.390   3.847  10.022 -0.1065 -0.1763 -0.4483
19709SOL    HW161665   1.383   3.780   9.954  2.5140 -0.9939  0.0139
19709SOL    HW261666   1.392   3.930   9.974  1.0769 -0.7065 -1.3388
19710SOL     OW61667   2.707   0.747   6.772  0.1498 -0.3298  0.1819
19710SOL    HW161668   2.643   0.692   6.817 -2.1301  0.6496 -1.7533
19710SOL    HW261669   2.723   0.820   6.831  0.5975 -1.3218  1.2956
19711SOL     OW61670   5.790   5.729   0.751  0.0584 -0.0013 -0.7262
19711SOL    HW161671   5.855   5.715   0.819 -0.0634 -0.8779 -0.7907
19711SOL    HW261672   5.745   5.809   0.778  1.4644  0.8801 -0.9272
19712SOL     OW61673   9.325   3.925   7.824 -0.1900 -0.1564  0.0936
19712SOL    HW161674   9.409   3.971   7.834  0.8688 -1.8371 -0.7737
19712SOL    HW261675   9.270   3.987   7.777  0.3703  1.1958  1.1790
19713SOL     OW61676   4.373   3.878   6.664 -0.1004  0.1147 -0.2346
19713SOL    HW161677   4.400   3.873   6.572  3.4065  0.7219  0.6781
19713SOL    HW261678   4.429   3.814   6.708 -0.0040  1.5888  1.8336
19714SOL     OW61679   2.693   7.749   0.471 -0.0186  0.2164  0.2926
19714SOL    HW161680   2.705   7.687   0.543  0.3927 -0.4786 -0.3627
19714SOL    HW261681   2.598   7.755   0.460 -0.0902  0.5218  1.0578
19715SOL     OW61682   3.648   0.197   3.920  0.1187  0.1834 -0.3749
19715SOL    HW161683   3.670   0.186   3.828  2.4969  1.9029 -0.0443
19715SOL    HW261684   3.732   0.198   3.965 -1.0613 -3.6969  2.2341
19716SOL     OW61685   1.615   1.620   5.341  0.4337  0.4108  0.0311
19716SOL    HW161686   1.704   1.613   5.376  0.5145 -0.8110 -0.4129
19716SOL    HW261687   1.579   1.532   5.349 -0.6292  0.8240 -0.1118
19717SOL     OW61688   7.807   3.328   6.911  0.2791  0.2765  0.0479
19717SOL    HW161689   7.820   3.234   6.898 -1.0213 -0.1556  1.8264
19717SOL    HW261690   7.719   3.345   6.879 -0.0384  0.6165  1.0816
19718SOL     OW61691   1.833   2.055   7.003 -0.1226  0.4851 -0.2531
19718SOL    HW161692   1.837   2.144   7.038 -0.5910  0.6469 -0.6022
19718SOL    HW261693   1.881   2.002   7.067 -1.9748  0.5870  1.2611
19719SOL     OW61694   1.303   4.916   8.882  0.2389  0.7545 -0.2648
19719SOL    HW161695   1.316   4.956   8.796  0.9383  1.2937  0.0881
19719SOL    HW261696   1.215   4.942   8.908 -0.7173 -0.9859 -1.6493
19720SOL     OW61697   5.866   6.703   3.933  0.1564 -0.2204  0.0924
19720SOL    HW161698   5.824   6.718   3.849 -0.0478 -1.1136  0.0305
19720SOL    HW261699   5.841   6.779   3.986  1.3325  0.9656 -1.0461
19721SOL     OW61700   6.437   6.234   1.329 -0.0018  0.0085  0.8104
19721SOL    HW161701   6.446   6.150   1.284  0.8094  0.6345 -0.1953
19721SOL    HW261702   6.478   6.219   1.414 -0.5299 -0.8310  0.9273
19722SOL     OW61703   1.765   5.888   8.890  0.0832  0.6604  0.0694
19722SOL    HW161704   1.705   5.815   8.876 -1.8935  2.3805 -0.7734
19722SOL    HW261705   1.748   5.916   8.980 -0.5249  1.2454 -0.2204
19723SOL     OW61706   5.206   3.619   0.360 -0.0923 -0.3370  0.3554
19723SOL    HW161707   5.215   3.639   0.454 -0.6986 -1.7500  0.7231
19723SOL    HW261708   5.266   3.546   0.346  1.6675  1.2854 -0.8557
19724SOL     OW61709   4.653   8.708   0.558 -0.4350 -0.8003  0.0867
19724SOL    HW161710   4.685   8.726   0.646 -1.2952  0.2513  0.1961
19724SOL    HW261711   4.627   8.794   0.524  0.1887 -1.1393 -1.3143
19725SOL     OW61712   2.733   7.431   7.789 -0.1188  0.0649 -0.4670
19725SOL    HW161713   2.724   7.456   7.882 -0.7989  0.0441 -0.5199
19725SOL    HW261714   2.827   7.427   7.774 -0.0020 -0.1249  0.2777
19726SOL     OW61715   9.334   0.642   1.599 -0.2995 -0.3244  0.3410
19726SOL    HW161716   9.405   0.698   1.631  0.0833 -0.5073 -0.1858
19726SOL    HW261717   9.355   0.555   1.634 -0.9265 -0.1308  1.2101
19727SOL     OW61718   9.963   2.854   4.223  0.1039 -0.2896 -0.2639
19727SOL    HW161719   9.994   2.892   4.305 -0.7919 -0.6454  0.2370
19727SOL    HW261720   9.905   2.783   4.249 -0.5624 -0.0968 -1.2051
19728SOL     OW61721   7.877   5.195   2.209  0.0592 -0.4470  0.3240
19728SOL    HW161722   7.845   5.140   2.280 -1.0577 -1.0741 -0.6485
19728SOL    HW261723   7.927   5.136   2.153 -1.8110 -0.6574 -1.1505
19729SOL     OW61724   2.785   5.521   9.280 -0.0826  0.0003 -0.9605
19729SOL    HW161725   2.763   5.456   9.213 -0.9978 -1.1558  0.4376
19729SOL    HW261726   2.710   5.520   9.340  1.7565 -0.7000  1.3787
19730SOL     OW61727   2.808   0.791   4.699 -0.1881  0.2897 -0.0993
19730SOL    HW161728   2.785   0.730   4.769 -0.0804  0.9658  0.5286
19730SOL    HW261729   2.833   0.871   4.744  0.4787  0.5317 -0.8920
19731SOL     OW61730   6.095   6.924   2.188 -0.2689  0.2248 -0.2160
19731SOL    HW161731   6.015   6.976   2.185 -0.3153  0.2626  1.0846
19731SOL    HW261732   6.092   6.869   2.110 -0.3298  2.0024 -1.5003
19732SOL     OW61733   6.458   9.101   0.045 -0.1557 -0.5356 -0.2926
19732SOL    HW161734   6.473   9.193   0.025 -1.1705 -0.1238  0.7883
19732SOL    HW261735   6.544   9.060   0.035  0.1413  0.3658 -1.5733
19733SOL     OW61736   7.287   9.218   5.311  0.2477  0.3073 -0.3720
19733SOL    HW161737   7.220   9.216   5.379 -0.5666  1.2388 -1.1263
19733SOL    HW261738   7.285   9.307   5.277  3.2677  0.9517  0.9271
19734SOL     OW61739   9.158   1.946   0.833 -0.5419 -0.4698  0.1198
19734SOL    HW161740   9.206   1.934   0.751  1.7278 -0.4365  1.4008
19734SOL    HW261741   9.115   2.031   0.824  1.6834  0.6781 -0.1212
19735SOL     OW61742   9.374   2.699   0.189  0.6053  0.2342 -0.2759
19735SOL    HW161743   9.402   2.608   0.195  1.5183  0.5655  0.7950
19735SOL    HW261744   9.415   2.741   0.264 -2.3167  0.9003  0.9883
19736SOL     OW61745   2.224   6.608   8.208 -0.1993 -0.2371 -0.0619
19736SOL    HW161746   2.268   6.628   8.126 -0.9195  1.4678 -0.0543
19736SOL    HW261747   2.142   6.658   8.205  0.6274  1.4014  2.4743
19737SOL     OW61748   1.075   1.225   4.258 -0.1270  0.7348  0.2713
19737SOL    HW161749   0.998   1.281   4.257 -0.9167 -0.3225 -1.7803
19737SOL    HW261750   1.107   1.226   4.167  0.1613 -1.6265  0.3027
19738SOL     OW61751   4.699   0.195   4.999  0.3138 -0.0899 -0.4547
19738SOL    HW161752   4.750   0.216   5.077  1.2758 -1.7766 -0.6018
19738SOL    HW261753   4.611   0.177   5.032  0.2557  1.0239  0.0108
19739SOL     OW61754   3.436   5.904   8.082  0.6330 -0.4008 -0.0435
19739SOL    HW161755   3.460   5.954   8.004  1.4590  0.7816  0.9385
19739SOL    HW261756   3.413   5.970   8.147  0.9839 -1.3207  1.0478
19740SOL     OW61757   4.444   5.852   0.169 -0.0114 -0.4526  0.3628
19740SOL    HW161758   4.361   5.808   0.150 -1.4525  2.7052 -1.0478
19740SOL    HW261759   4.420   5.943   0.183  2.8849 -0.0592  3.1909
19741SOL     OW61760   1.169   2.400   2.013 -0.2109 -0.0004 -0.8003
19741SOL    HW161761   1.182   2.495   2.025  0.3113  0.1062 -2.1396
19741SOL    HW261762   1.106   2.376   2.081  0.7231  1.0429  0.4681
19742SOL     OW61763   4.583   1.491   1.393 -0.2065  0.4508  0.5774
19742SOL    HW161764   4.564   1.397   1.397  1.4355 -0.0616 -2.6593
19742SOL    HW261765   4.498   1.533   1.407 -1.7304 -1.6246 -2.0445
19743SOL     OW61766   6.458   6.712   9.487 -0.2296 -0.1036 -0.2842
19743SOL    HW161767   6.543   6.674   9.466  0.3409  1.3148 -0.5664
19743SOL    HW261768   6.435   6.765   9.410 -1.3750 -0.4994 -0.2234
19744SOL     OW61769   6.865   2.114   3.418 -0.3860  0.0719  0.1401
19744SOL    HW161770   6.842   2.206   3.407 -0.8123  0.2039  1.9886
19744SOL    HW261771   6.935   2.099   3.355  0.3108  1.8925  0.4544
19745SOL     OW61772   0.722   8.442   2.813  0.0265  0.1417  0.7800
19745SOL    HW161773   0.631   8.463   2.791  0.1561  1.9701  1.8744
19745SOL    HW261774   0.739   8.492   2.894  2.8056  1.9902 -0.8609
19746SOL     OW61775  10.162   7.834   2.739 -0.2516  0.1942 -0.3162
19746SOL    HW161776  10.155   7.875   2.653 -0.2792 -0.3301 -0.5641
19746SOL    HW261777  10.178   7.742   2.721  0.4941  0.2026  0.2424
19747SOL     OW61778   7.514   8.137   0.573  1.0299  0.2679 -0.5150
19747SOL    HW161779   7.477   8.223   0.594  1.2378 -0.2941  2.3592
19747SOL    HW261780   7.607   8.144   0.595  1.1839 -0.4863 -0.9102
19748SOL     OW61781   0.806   6.857   3.221  0.5263  0.1956  0.0055
19748SOL    HW161782   0.750   6.829   3.293  1.0653 -1.2724 -0.1205
19748SOL    HW261783   0.881   6.898   3.262  1.5796 -2.0063  0.3887
19749SOL     OW61784   3.091   3.315   4.012 -0.6277 -0.2648  0.1910
19749SOL    HW161785   3.035   3.347   3.941  1.1663  1.5089 -0.4856
19749SOL    HW261786   3.090   3.386   4.077  0.2240 -0.5283  0.5012
19750SOL     OW61787   3.641   1.679   8.274 -0.0026 -0.5645 -0.2757
19750SOL    HW161788   3.703   1.680   8.201  0.3772  1.3737  0.0409
19750SOL    HW261789   3.696   1.682   8.352 -0.4417 -1.4651  0.0773
19751SOL     OW61790   3.320   2.812   5.454 -0.8306  0.1351 -0.2653
19751SOL    HW161791   3.373   2.884   5.419 -0.7872 -0.5460 -1.6380
19751SOL    HW261792   3.332   2.741   5.391 -0.1735 -1.3770  1.5230
19752SOL     OW61793   6.474   3.628   0.483 -0.3510  0.0238 -0.5153
19752SOL    HW161794   6.472   3.660   0.573 -1.4501 -0.7038 -0.2713
19752SOL    HW261795   6.391   3.582   0.472 -0.8496  1.3101 -2.3432
19753SOL     OW61796   3.257   9.478   6.233 -0.7296  0.8269 -0.3136
19753SOL    HW161797   3.322   9.431   6.285 -1.4199 -0.1660 -0.3434
19753SOL    HW261798   3.173   9.441   6.259 -1.2151  1.4614 -0.9423
19754SOL     OW61799   3.781   6.309   3.185  0.0034 -0.4990  0.4194
19754SOL    HW161800   3.824   6.379   3.135 -0.8732  0.2250  0.6666
19754SOL    HW261801   3.788   6.337   3.276 -1.1376 -0.2803  0.4512
19755SOL     OW61802   4.695   2.718   9.534 -0.3494 -0.7767 -0.1037
19755SOL    HW161803   4.638   2.795   9.540  2.5576  1.4056  0.5482
19755SOL    HW261804   4.658   2.656   9.596 -2.3624  0.3590 -0.1202
19756SOL     OW61805   2.334   1.777   5.341 -0.4552  1.4046 -0.4502
19756SOL    HW161806   2.424   1.797   5.366 -1.1492  1.9325  1.7282
19756SOL    HW261807   2.321   1.825   5.259  1.1315  1.5611 -0.6334
19757SOL     OW61808   2.164   3.260   6.410  0.6915  0.7107 -0.6099
19757SOL    HW161809   2.182   3.194   6.343  2.1272  1.4948 -1.0032
19757SOL    HW261810   2.145   3.340   6.360 -0.9316  0.6523 -0.1338
19758SOL     OW61811   7.964   0.881   9.407  0.4533 -0.2211 -0.1209
19758SOL    HW161812   8.038   0.866   9.348 -0.2631  2.6071 -1.8476
19758SOL    HW261813   7.888   0.849   9.359  0.0257  0.8884 -0.1978
19759SOL     OW61814   1.715   4.773   6.798 -0.4590  0.6937 -0.6976
19759SOL    HW161815   1.763   4.820   6.730  2.0644 -0.7873 -0.0096
19759SOL    HW261816   1.702   4.686   6.762 -0.4827  0.3677  0.0995
19760SOL     OW61817   4.679   6.151   0.744 -0.2974 -0.3613  0.3645
19760SOL    HW161818   4.748   6.189   0.797  0.5854 -2.1339  0.5397
19760SOL    HW261819   4.667   6.212   0.672  0.1516  0.8813  1.3256
19761SOL     OW61820   9.429   6.913   4.342  0.3732 -0.1052  0.4528
19761SOL    HW161821   9.424   6.873   4.428  0.9634  1.2095  1.1100
19761SOL    HW261822   9.386   6.850   4.284 -1.5857 -0.2166  1.9755
19762SOL     OW61823   6.930   6.595   1.511 -0.1778 -0.1845 -0.2135
19762SOL    HW161824   6.949   6.505   1.487  1.9379 -0.3738  2.0481
19762SOL    HW261825   6.875   6.588   1.589 -1.4438  0.4993 -1.0185
19763SOL     OW61826   8.838   4.564   9.429 -0.1703 -0.3088 -0.2891
19763SOL    HW161827   8.749   4.598   9.442 -0.1994 -0.1780 -0.8155
19763SOL    HW261828   8.835   4.524   9.342 -0.2124 -1.8777  0.4118
19764SOL     OW61829   9.985   4.936   3.295  0.3747  0.0809  0.2955
19764SOL    HW161830  10.040   4.860   3.274 -0.9805 -1.1152  1.0514
19764SOL    HW261831   9.986   4.941   3.390  0.0672  0.7347  0.2648
19765SOL     OW61832   2.137   1.759   8.019  0.8413  0.0548  0.3116
19765SOL    HW161833   2.176   1.845   8.003  0.7601  0.2059  0.9326
19765SOL    HW261834   2.043   1.773   8.010  0.8121  0.0839  0.6521
19766SOL     OW61835   8.775   6.770   4.647  0.4901 -0.7924  0.5072
19766SOL    HW161836   8.793   6.676   4.653 -0.9711 -1.0529  0.9759
19766SOL    HW261837   8.819   6.807   4.724  0.8714 -1.1169  0.4495
19767SOL     OW61838   3.346   2.073   6.054  0.1528 -0.5871  0.4929
19767SOL    HW161839   3.427   2.091   6.006  0.4833  0.0216  1.2670
19767SOL    HW261840   3.319   2.159   6.087 -1.5136 -0.5797 -0.8512
19768SOL     OW61841   0.740   1.635   1.182  0.4302 -0.1042 -0.3261
19768SOL    HW161842   0.723   1.633   1.088  0.9117 -0.7220 -0.4045
19768SOL    HW261843   0.746   1.542   1.207  0.8724  0.0643  0.2046
19769SOL     OW61844   3.878   4.703   5.415  0.2887 -0.3197  0.2905
19769SOL    HW161845   3.820   4.765   5.460 -0.5761 -0.0768 -1.1240
19769SOL    HW261846   3.965   4.720   5.453 -0.5592 -0.7450  2.4756
19770SOL     OW61847   2.670   0.915   7.865 -0.5387  0.1374  0.3741
19770SOL    HW161848   2.611   0.978   7.823 -1.9765 -1.0025  0.6121
19770SOL    HW261849   2.732   0.890   7.797  0.2514  2.0467  0.3798
19771SOL     OW61850   6.445   1.507   9.809 -0.0273  0.3403 -0.2751
19771SOL    HW161851   6.431   1.519   9.903 -1.1776  1.2059 -0.5472
19771SOL    HW261852   6.382   1.440   9.784  0.1370  0.2588 -0.4675
19772SOL     OW61853   3.593   6.194   6.720  0.2062 -0.1336  0.6851
19772SOL    HW161854   3.625   6.110   6.753  0.7563 -0.4750 -0.6958
19772SOL    HW261855   3.523   6.219   6.781  2.3846  0.1299  3.1506
19773SOL     OW61856   3.672   2.246   8.278  0.4642  0.1364 -0.0342
19773SOL    HW161857   3.752   2.193   8.270  0.9795  0.7459  1.0790
19773SOL    HW261858   3.672   2.300   8.199  0.1976 -1.1405 -0.9432
19774SOL     OW61859   8.811   0.467   3.920 -0.3902 -0.1612 -0.1759
19774SOL    HW161860   8.903   0.491   3.928 -0.0023 -0.6216 -2.7447
19774SOL    HW261861   8.767   0.549   3.898 -0.3524 -0.2308 -0.5152
19775SOL     OW61862   6.416   1.041   4.431 -0.1108 -0.0029  0.1466
19775SOL    HW161863   6.368   1.124   4.431 -2.0775 -1.0955  0.2771
19775SOL    HW261864   6.489   1.056   4.490  1.4173  2.6310 -2.2698
19776SOL     OW61865   8.277   1.088   4.171 -0.5236  0.3480  0.5563
19776SOL    HW161866   8.349   1.026   4.183 -0.5195  0.3856  0.7240
19776SOL    HW261867   8.279   1.109   4.078  0.9381  1.8868  0.9195
19777SOL     OW61868   3.464   1.383   5.332  0.0136  0.0748 -0.6267
19777SOL    HW161869   3.411   1.430   5.267 -0.8720  1.4612  1.0840
19777SOL    HW261870   3.442   1.291   5.318 -1.1731  0.4673 -1.4136
19778SOL     OW61871   2.865   0.066   5.094 -0.3004  0.4234 -0.1253
19778SOL    HW161872   2.831   0.047   5.007  0.0954 -0.7681 -0.0320
19778SOL    HW261873   2.848   0.159   5.107 -0.5189  0.5682 -1.3992
19779SOL     OW61874   7.292   6.277   3.832  0.0820 -0.5707  0.6664
19779SOL    HW161875   7.361   6.216   3.807  1.0935  0.6258  0.5174
19779SOL    HW261876   7.303   6.289   3.926 -0.2260 -0.7375  0.7265
19780SOL     OW61877   0.574   7.473   4.753 -0.0199 -0.3792 -0.0995
19780SOL    HW161878   0.554   7.388   4.792 -0.6473  0.0558  0.5229
19780SOL    HW261879   0.574   7.457   4.658  2.2321 -1.6078  0.0667
19781SOL     OW61880   1.084   2.479   2.515 -0.8263  0.2243  0.0460
19781SOL    HW161881   1.055   2.541   2.448 -0.0534  1.1949  0.6132
19781SOL    HW261882   1.143   2.529   2.571  1.5165 -1.5752 -0.7345
19782SOL     OW61883   2.617   4.339   5.532 -0.5174  0.2745 -0.5546
19782SOL    HW161884   2.555   4.359   5.602 -1.0486 -1.7286 -0.4233
19782SOL    HW261885   2.699   4.320   5.578 -0.3277  0.9451 -0.6090
19783SOL     OW61886   9.597   3.916   1.088  0.4572 -0.1979  0.2307
19783SOL    HW161887   9.545   3.849   1.132 -2.3238  1.6915 -0.0778
19783SOL    HW261888   9.614   3.982   1.155  1.1645 -0.0428 -0.0873
19784SOL     OW61889   5.798   5.978   3.244  0.3566 -0.1358 -0.0031
19784SOL    HW161890   5.750   6.018   3.173 -2.6206  0.3874  2.2156
19784SOL    HW261891   5.821   6.051   3.302 -1.0693 -1.0380  1.7405
19785SOL     OW61892   1.478   6.951   1.404 -0.4088  0.6780  0.0795
19785SOL    HW161893   1.469   7.043   1.427  0.5787  0.7653  0.1237
19785SOL    HW261894   1.478   6.950   1.308 -0.9082  0.6739  0.0785
19786SOL     OW61895   6.394   4.916   1.770  0.1708  0.3038 -0.2774
19786SOL    HW161896   6.410   4.822   1.772  0.5286  0.3739  0.1809
19786SOL    HW261897   6.416   4.942   1.680  0.9647  0.1066 -0.1416
19787SOL     OW61898   1.858   1.910   1.955 -0.2896  0.0469  0.0692
19787SOL    HW161899   1.924   1.850   1.921 -0.0650 -0.7164  1.8513
19787SOL    HW261900   1.905   1.993   1.968  0.0664 -0.1990  0.3447
19788SOL     OW61901   6.809   5.734   8.325 -0.2450 -0.3804  0.3336
19788SOL    HW161902   6.867   5.661   8.302 -0.3824 -0.7243  1.0558
19788SOL    HW261903   6.765   5.705   8.405 -0.8011  0.2189  0.2498
19789SOL     OW61904   0.891   7.249   8.379 -0.5047 -0.0755  0.2106
19789SOL    HW161905   0.912   7.314   8.312  0.5780 -2.1558 -1.5268
19789SOL    HW261906   0.948   7.271   8.452 -1.0690  1.6898  0.1360
19790SOL     OW61907   9.183   5.309   8.653 -0.1528 -0.0412 -0.0194
19790SOL    HW161908   9.114   5.345   8.708  1.6348  0.1343  2.2192
19790SOL    HW261909   9.210   5.382   8.597  0.3816  0.8411  1.3492
19791SOL     OW61910   2.531   2.839   6.096  0.1888  0.1734  0.2174
19791SOL    HW161911   2.527   2.887   6.179 -0.7182 -2.0469  1.4951
19791SOL    HW261912   2.440   2.819   6.076  0.5978 -1.5101  0.0040
19792SOL     OW61913   5.101   9.030   0.356  0.2325  0.0202 -0.5537
19792SOL    HW161914   5.181   9.044   0.306  0.3534  0.0601 -0.3439
19792SOL    HW261915   5.121   8.957   0.414 -0.2387 -0.7214 -1.2953
19793SOL     OW61916   2.255   2.125   7.117  0.7790 -0.3166 -0.2709
19793SOL    HW161917   2.260   2.220   7.118 -0.2777 -0.2518  1.1201
19793SOL    HW261918   2.342   2.096   7.145  1.1390  0.2349 -0.8246
19794SOL     OW61919   4.712   3.185   5.591  0.0633  0.1754 -0.3806
19794SOL    HW161920   4.655   3.108   5.591  1.5789 -0.9860  0.2283
19794SOL    HW261921   4.749   3.186   5.502 -0.1910  0.3804 -0.4838
19795SOL     OW61922   7.603   9.248   4.032  0.2351 -0.5595 -0.2498
19795SOL    HW161923   7.510   9.227   4.023  0.4447 -1.0182 -1.3783
19795SOL    HW261924   7.622   9.307   3.959  0.6438  0.1841  0.4482
19796SOL     OW61925   4.777   4.158   4.774 -0.1131  0.3589 -0.0544
19796SOL    HW161926   4.838   4.226   4.744 -1.0581  0.6907 -1.2441
19796SOL    HW261927   4.692   4.186   4.741 -0.7888 -0.5242  0.9180
19797SOL     OW61928   4.468   1.615   3.686  0.0731  0.2927  0.2523
19797SOL    HW161929   4.447   1.627   3.594  2.6481  0.2456 -0.3649
19797SOL    HW261930   4.513   1.696   3.712  0.9417 -0.4107  0.9860
19798SOL     OW61931   1.102   1.539   0.718 -0.5890  0.0225  0.2503
19798SOL    HW161932   1.094   1.625   0.678 -0.9303 -1.1156 -2.1942
19798SOL    HW261933   1.195   1.533   0.742 -0.0898  0.2413 -1.5343
19799SOL     OW61934   0.819   5.161   2.228  0.1302 -0.5854 -0.0129
19799SOL    HW161935   0.775   5.169   2.313  0.3853 -0.6222  0.1213
19799SOL    HW261936   0.748   5.141   2.167 -0.3271  1.3011 -0.1166
19800SOL     OW61937   0.270   4.034   4.258 -0.4304  0.0069 -0.2183
19800SOL    HW161938   0.207   4.043   4.187 -0.0466  0.6239 -0.4803
19800SOL    HW261939   0.219   4.052   4.337  0.0512  3.6158 -0.6277
19801SOL     OW61940   9.770   3.772   3.977  0.2743  0.2154 -0.1292
19801SOL    HW161941   9.677   3.764   3.957  0.3261  0.3997 -0.4383
19801SOL    HW261942   9.807   3.818   3.902  0.5279  0.5738  0.2152
19802SOL     OW61943   7.729   9.721   0.932  0.6076 -0.1552 -0.1936
19802SOL    HW161944   7.669   9.795   0.944 -0.8083 -1.3541  0.2820
19802SOL    HW261945   7.679   9.658   0.880  1.6552 -0.9525 -0.2553
19803SOL     OW61946   3.932   6.408   9.896  0.0853  0.0038 -0.7651
19803SOL    HW161947   4.014   6.458   9.902 -0.1252  0.3596 -0.8920
19803SOL    HW261948   3.950   6.328   9.946 -0.0621  0.8664  0.6986
19804SOL     OW61949   5.445   0.448   3.053  0.2414 -0.1462 -0.4281
19804SOL    HW161950   5.360   0.493   3.064  0.5793  0.4753 -0.3356
19804SOL    HW261951   5.426   0.356   3.072 -0.0814  0.2363  1.1871
19805SOL     OW61952   6.365   2.644   5.121  0.2211 -0.4825  0.0202
19805SOL    HW161953   6.401   2.718   5.169 -1.7246  0.0918  0.6674
19805SOL    HW261954   6.441   2.593   5.094  1.5731  1.6225 -0.2387
19806SOL     OW61955   1.315   9.913   4.400  0.3515 -0.0172 -0.5621
19806SOL    HW161956   1.329   9.833   4.450  0.4694 -0.9349 -2.0314
19806SOL    HW261957   1.293   9.883   4.312 -4.0034  1.4904 -0.0806
19807SOL     OW61958   0.388   3.335   6.262  0.1432 -0.2341  0.3038
19807SOL    HW161959   0.471   3.287   6.266  0.3069  0.1200  1.2069
19807SOL    HW261960   0.329   3.286   6.319  0.2616  0.5335  1.0958
19808SOL     OW61961   5.604   8.789   9.124 -0.3677  0.1295 -0.2265
19808SOL    HW161962   5.540   8.848   9.164  0.5144 -0.1165  1.5729
19808SOL    HW261963   5.688   8.831   9.140  0.1161 -0.7060 -0.5408
19809SOL     OW61964   2.365   9.922   7.621 -0.2366  0.7124 -0.3855
19809SOL    HW161965   2.345  10.016   7.616  1.2917  0.9828 -2.0467
19809SOL    HW261966   2.327   9.885   7.542 -0.4522  0.0019  0.0461
19810SOL     OW61967   5.436   9.916   7.864 -0.5063 -0.2745 -0.3430
19810SOL    HW161968   5.410   9.989   7.808 -0.9603  0.2696  0.5775
19810SOL    HW261969   5.530   9.928   7.876 -0.3404 -0.5743 -1.2357
19811SOL     OW61970   0.381   4.858   2.837 -0.0765 -0.2134 -0.0219
19811SOL    HW161971   0.366   4.800   2.763  0.4404 -1.0848  0.5510
19811SOL    HW261972   0.371   4.802   2.914 -0.3356  0.6234  0.5567
19812SOL     OW61973   0.967   8.619   9.443  0.1834  0.7225  0.2556
19812SOL    HW161974   0.956   8.562   9.519 -1.7061 -0.4781 -0.8635
19812SOL    HW261975   1.053   8.659   9.455  1.0661 -1.4887  1.6722
19813SOL     OW61976   3.153   2.260   7.519 -0.3793  0.1542 -0.3591
19813SOL    HW161977   3.200   2.221   7.592 -1.1772  0.4527  0.3314
19813SOL    HW261978   3.097   2.326   7.559  0.3898  1.4875 -1.4253
19814SOL     OW61979   6.651   7.811   6.761 -0.2451 -0.3670  0.4398
19814SOL    HW161980   6.700   7.823   6.842  1.2746 -0.1749 -0.4947
19814SOL    HW261981   6.640   7.900   6.727 -1.5766 -0.3727  0.8162
19815SOL     OW61982   6.385   0.281   5.925  0.0479 -0.0350 -0.0990
19815SOL    HW161983   6.423   0.245   6.005  0.3553 -0.5838 -0.4861
19815SOL    HW261984   6.291   0.267   5.934  0.3347 -3.1011 -1.2695
19816SOL     OW61985   5.777   7.003   8.954  0.6402  0.0860 -0.3369
19816SOL    HW161986   5.721   7.004   9.032 -1.1999  2.4890 -1.6226
19816SOL    HW261987   5.863   7.029   8.987  0.3165 -0.6604  1.1663
19817SOL     OW61988   5.818   9.079   6.729 -0.1491 -0.1558 -0.3707
19817SOL    HW161989   5.865   9.099   6.810  2.1320  0.1085 -1.7029
19817SOL    HW261990   5.794   8.986   6.737  0.0825 -0.1377  0.5841
19818SOL     OW61991   4.459   8.563   9.124 -0.1389  0.6174  0.0526
19818SOL    HW161992   4.552   8.585   9.121 -0.3911  1.4573 -2.0924
19818SOL    HW261993   4.414   8.647   9.134 -0.7662  0.4054 -0.9165
19819SOL     OW61994   5.822   9.410   4.487 -0.3844 -0.1442 -0.2700
19819SOL    HW161995   5.793   9.388   4.399  0.4470  0.4025 -0.6869
19819SOL    HW261996   5.823   9.327   4.533 -0.7609 -0.4411 -0.7946
19820SOL     OW61997   4.164   2.756   6.006 -0.2060 -0.0618  0.5035
19820SOL    HW161998   4.196   2.806   6.081 -0.4762  0.3795  0.3236
19820SOL    HW261999   4.099   2.695   6.042  0.8433 -0.9830  0.8783
19821SOL     OW62000   7.319   9.971   4.862  0.3903  0.3558  0.2878
19821SOL    HW162001   7.377   9.980   4.937 -2.5160  1.2753  2.4821
19821SOL    HW262002   7.324   9.878   4.839  0.4197 -0.1617  2.3465
19822SOL     OW62003   0.840   4.895   8.873 -0.0214  0.4811  0.3235
19822SOL    HW162004   0.930   4.912   8.901  0.1200 -0.5874  0.5467
19822SOL    HW262005   0.844   4.811   8.828 -0.6361  1.1912 -1.0643
19823SOL     OW62006   9.582   0.967   3.012  0.0162 -0.3558 -0.2441
19823SOL    HW162007   9.670   0.932   3.003  0.3360  0.3170  0.2269
19823SOL    HW262008   9.565   0.966   3.106 -1.3138 -2.5002 -0.4670
19824SOL     OW62009   8.060   8.562   7.876 -0.2375  0.1302  0.3805
19824SOL    HW162010   8.099   8.594   7.794 -0.1083 -0.2229  0.3024
19824SOL    HW262011   8.113   8.601   7.945  0.6846 -0.8876  0.2602
19825SOL     OW62012   0.197   2.564   1.622  0.0842  0.1603 -0.0132
19825SOL    HW162013   0.151   2.503   1.679  0.4142 -1.0297 -1.0130
19825SOL    HW262014   0.196   2.523   1.536  1.4539  0.9529 -0.4226
19826SOL     OW62015   8.760   0.756   8.509 -0.0108 -0.1429  0.2099
19826SOL    HW162016   8.851   0.748   8.481  0.0871 -0.7961  0.7196
19826SOL    HW262017   8.735   0.669   8.539  0.2228  0.7513  3.1940
19827SOL     OW62018   9.304   6.075   8.378  0.1859 -0.0424 -0.6876
19827SOL    HW162019   9.342   5.990   8.395 -0.2654  0.1761  1.6667
19827SOL    HW262020   9.335   6.130   8.450 -3.8733  0.3224  0.9431
19828SOL     OW62021   2.100   7.147   3.316 -0.1813  0.0168  0.0811
19828SOL    HW162022   2.013   7.160   3.280  0.1927 -1.2825 -1.4203
19828SOL    HW262023   2.124   7.058   3.287  1.8892  0.6192 -0.1478
19829SOL     OW62024   2.451   4.976   7.172 -0.5095  0.3869  0.0269
19829SOL    HW162025   2.522   4.990   7.109 -1.2807  0.2632 -0.8862
19829SOL    HW262026   2.421   4.887   7.155  1.2521 -0.7633  2.6212
19830SOL     OW62027   5.215   2.700   0.792  0.4405  0.1627  0.1310
19830SOL    HW162028   5.215   2.722   0.886 -1.1038 -0.5018  0.2958
19830SOL    HW262029   5.290   2.641   0.782 -1.3479 -2.4675  1.6327
19831SOL     OW62030   6.258   3.365   6.053  0.0726  0.0127  0.0135
19831SOL    HW162031   6.231   3.429   5.987 -1.3973 -1.4386 -0.8337
19831SOL    HW262032   6.352   3.354   6.039 -0.0619  0.4149 -1.2557
19832SOL     OW62033   2.529   5.921   0.130 -0.4936  0.2333 -0.2857
19832SOL    HW162034   2.459   5.949   0.189 -0.1312 -0.8479  0.6773
19832SOL    HW262035   2.608   5.963   0.164 -0.3381 -0.1339 -0.1922
19833SOL     OW62036   5.895   5.631   4.459 -0.2286  0.5713 -0.6123
19833SOL    HW162037   5.838   5.696   4.501 -1.3122 -0.0554 -1.0849
19833SOL    HW262038   5.910   5.666   4.371  1.0832  1.3081 -0.1105
19834SOL     OW62039   0.516   0.995   8.759 -0.2029 -0.3548 -0.2215
19834SOL    HW162040   0.528   1.087   8.737 -0.3245  0.1001  1.5764
19834SOL    HW262041   0.423   0.986   8.777  0.0606 -0.4817  1.1230
19835SOL     OW62042   5.024   6.463   6.681  0.9332  0.4251  0.9169
19835SOL    HW162043   5.041   6.384   6.631  2.4887  1.5093 -0.2944
19835SOL    HW262044   4.930   6.459   6.701  0.1590  0.2669 -2.5576
19836SOL     OW62045   9.323   0.673   9.782 -0.1154 -0.5118 -0.1041
19836SOL    HW162046   9.353   0.614   9.852  0.0631 -2.0283 -1.4374
19836SOL    HW262047   9.401   0.688   9.729  0.0464  1.6375  0.6814
19837SOL     OW62048   8.123   4.885   8.911  0.1576  0.3710  0.0825
19837SOL    HW162049   8.136   4.813   8.850  0.0579 -1.5290  2.2645
19837SOL    HW262050   8.053   4.937   8.872  0.5910 -0.4150 -1.7693
19838SOL     OW62051   2.592   1.523   0.018  0.5173 -0.2265 -0.1469
19838SOL    HW162052   2.669   1.575  -0.006  0.3922 -0.2561 -0.6167
19838SOL    HW262053   2.625   1.433   0.023  0.4539 -0.2740 -0.6098
19839SOL     OW62054   4.524   0.984   4.658  0.5644  0.0480 -0.0666
19839SOL    HW162055   4.532   0.890   4.675 -0.3428 -0.0820 -0.3174
19839SOL    HW262056   4.431   1.003   4.672  0.5463  0.7043 -0.9939
19840SOL     OW62057   0.137   9.867   8.023 -0.4013 -0.5210 -0.1612
19840SOL    HW162058   0.184   9.893   8.102 -0.1984 -0.9920 -0.1245
19840SOL    HW262059   0.128   9.772   8.030 -0.4546 -0.5588 -0.6642
19841SOL     OW62060   0.448   8.988   8.258 -1.0453  0.1788  0.2710
19841SOL    HW162061   0.425   8.897   8.273 -0.8330  0.3255  1.5331
19841SOL    HW262062   0.510   9.010   8.328 -0.9489  1.2295 -0.1264
19842SOL     OW62063   1.146   7.629   4.232 -0.3197 -0.2324 -0.2300
19842SOL    HW162064   1.072   7.570   4.244 -0.4280  0.1532  1.0793
19842SOL    HW262065   1.116   7.692   4.167 -1.7319  0.8638  1.4340
19843SOL     OW62066   4.718   2.064   4.633 -0.4290  0.2229  0.4418
19843SOL    HW162067   4.700   2.113   4.713 -0.2520 -1.9779  1.8749
19843SOL    HW262068   4.814   2.065   4.626 -0.4949  1.4189 -0.4090
19844SOL     OW62069   9.462   6.511   9.989  0.1510  0.4364  0.7283
19844SOL    HW162070   9.468   6.606  10.001 -0.5073  0.4906  0.6077
19844SOL    HW262071   9.440   6.500   9.897 -0.4888  0.1873  0.9092
19845SOL     OW62072   0.115   3.639   5.122 -0.2657 -0.8003  0.2816
19845SOL    HW162073   0.021   3.658   5.119 -0.1414 -0.0152  1.1048
19845SOL    HW262074   0.122   3.548   5.092 -1.1087 -0.2945 -1.4871
19846SOL     OW62075   6.188   7.884   9.795  0.2358 -1.0323 -0.8606
19846SOL    HW162076   6.250   7.811   9.800 -1.4453 -2.3933  0.6718
19846SOL    HW262077   6.210   7.939   9.870 -0.1216 -1.2878 -0.5666
19847SOL     OW62078  10.176   7.537   5.031 -0.3116 -0.5758  0.3113
19847SOL    HW162079  10.112   7.549   4.960 -1.6782  1.0025  1.7603
19847SOL    HW262080  10.156   7.449   5.066 -0.6657 -0.7225 -0.2504
19848SOL     OW62081   5.453   2.473   5.208  0.1485  0.4775 -0.4079
19848SOL    HW162082   5.483   2.382   5.200 -1.0376  0.2763 -2.9753
19848SOL    HW262083   5.527   2.525   5.180  1.0524  0.3766  1.6660
19849SOL     OW62084   6.762   7.930   7.115 -0.0155  0.1872 -0.0213
19849SOL    HW162085   6.723   7.854   7.157  0.0014  0.3839  0.3473
19849SOL    HW262086   6.827   7.894   7.054  1.4733 -0.0123  1.6567
19850SOL     OW62087   8.820   2.285   6.129  0.1732 -0.4104 -0.1004
19850SOL    HW162088   8.805   2.324   6.215  0.7259 -1.0808  0.3054
19850SOL    HW262089   8.732   2.262   6.098  0.0678 -1.3634  0.8579
19851SOL     OW62090   0.098  10.181   0.604  0.0699  0.5206 -0.3194
19851SOL    HW162091   0.192  10.174   0.588  0.3838 -0.0595  1.6814
19851SOL    HW262092   0.087  10.268   0.642 -0.2577  0.7321 -0.8994
19852SOL     OW62093   2.273   2.048   1.054  0.3714 -0.3671  0.6119
19852SOL    HW162094   2.178   2.060   1.061  0.1253 -0.9882 -1.4921
19852SOL    HW262095   2.284   1.954   1.048  1.1063 -0.2638  0.3943
19853SOL     OW62096   2.789   2.483   6.367  0.0103 -0.0922  0.0138
19853SOL    HW162097   2.855   2.443   6.424  1.9749  2.0271 -0.6753
19853SOL    HW262098   2.726   2.523   6.427 -0.4587 -1.7862  0.6818
19854SOL     OW62099   0.232   0.979   3.775 -0.1933 -0.6491  0.3303
19854SOL    HW162100   0.275   1.045   3.721 -0.4940 -0.9323 -0.2566
19854SOL    HW262101   0.297   0.911   3.788 -0.0200 -0.4375  0.5898
19855SOL     OW62102   4.798   8.328   6.211 -0.2221 -0.3339 -0.2377
19855SOL    HW162103   4.855   8.361   6.143  2.9736 -1.1480  1.9262
19855SOL    HW262104   4.830   8.368   6.292 -2.2161 -1.4449  1.1664
19856SOL     OW62105   6.694   2.878   4.415 -0.1065  0.6833  0.1106
19856SOL    HW162106   6.761   2.819   4.450 -0.8834 -0.6980 -0.6781
19856SOL    HW262107   6.611   2.842   4.446 -0.7725 -0.2359 -2.5750
19857SOL     OW62108   0.451   1.625   2.488 -0.1394  0.0214 -0.5754
19857SOL    HW162109   0.506   1.692   2.529 -1.0079 -0.0303  0.6920
19857SOL    HW262110   0.382   1.675   2.445  0.2457  0.0235 -1.2042
19858SOL     OW62111   6.442   1.934   6.758 -0.6926  0.2553  0.2347
19858SOL    HW162112   6.375   1.988   6.800 -1.2341  1.0363 -1.5715
19858SOL    HW262113   6.414   1.927   6.667  1.1344 -0.2949 -0.3152
19859SOL     OW62114   2.946   6.172   0.985  0.8304 -0.2068 -0.8080
19859SOL    HW162115   2.947   6.082   1.017  3.0015  0.0326 -0.1800
19859SOL    HW262116   2.982   6.224   1.057  0.2403  1.0886 -1.4286
19860SOL     OW62117   2.246   8.750   7.015  0.2535  0.3631  0.5152
19860SOL    HW162118   2.222   8.731   7.105 -1.6949  0.9253  0.1414
19860SOL    HW262119   2.185   8.819   6.988  0.4063 -0.2380 -1.4345
19861SOL     OW62120   1.920   5.805   4.585 -0.3283  0.0442 -0.0044
19861SOL    HW162121   1.909   5.894   4.617  0.5569  0.0104  0.4063
19861SOL    HW262122   1.986   5.766   4.644 -0.0808 -0.6047 -0.7008
19862SOL     OW62123   2.059   5.650   8.132  0.2490 -0.8256 -0.3789
19862SOL    HW162124   2.146   5.637   8.096  0.1955 -0.1650 -0.7585
19862SOL    HW262125   2.009   5.690   8.061 -0.3657 -1.2041 -0.1703
19863SOL     OW62126   6.833   7.919   0.135 -0.3045 -0.2939 -0.2761
19863SOL    HW162127   6.762   7.936   0.196 -0.1203  1.0162 -0.4067
19863SOL    HW262128   6.850   8.004   0.093  1.1032 -0.6520 -0.4788
19864SOL     OW62129   3.145   9.160   2.226  0.0743 -0.2215  0.0742
19864SOL    HW162130   3.200   9.171   2.149  0.9035  1.2802  0.8437
19864SOL    HW262131   3.068   9.214   2.209 -0.4887 -1.1678 -0.3840
19865SOL     OW62132   5.508   6.819   1.691 -0.5085  0.5312 -0.0827
19865SOL    HW162133   5.439   6.838   1.754 -0.5589  0.9100 -0.2493
19865SOL    HW262134   5.462   6.781   1.616 -0.5677  1.0305 -0.3001
19866SOL     OW62135   1.529   9.163   8.997 -0.3500  0.0515  0.0848
19866SOL    HW162136   1.609   9.170   9.049 -1.2454  0.7078  1.4097
19866SOL    HW262137   1.545   9.218   8.921 -0.2841  1.7788  1.3249
19867SOL     OW62138   0.486   7.754   9.384  0.9435 -0.1567  0.0058
19867SOL    HW162139   0.509   7.783   9.295  1.6653  0.6526  0.4517
19867SOL    HW262140   0.461   7.663   9.373 -1.3529  0.5983 -1.4313
19868SOL     OW62141   0.442   7.182   9.998 -0.4004 -0.2859 -0.7611
19868SOL    HW162142   0.538   7.186  10.001 -0.5045  1.6271  1.4937
19868SOL    HW262143   0.422   7.153   9.909  2.2865 -1.5518 -0.9928
19869SOL     OW62144   8.091   5.950   0.398 -0.3848  0.2685 -0.4216
19869SOL    HW162145   8.063   6.021   0.340  1.0617 -0.9751 -2.7442
19869SOL    HW262146   8.011   5.900   0.415 -0.9720  1.0907 -0.7322
19870SOL     OW62147   7.655   3.989   6.252 -0.5099 -0.2131 -0.4596
19870SOL    HW162148   7.674   3.913   6.197  1.0171  0.7474 -1.2936
19870SOL    HW262149   7.712   3.978   6.328  0.4088  0.5547 -1.0221
19871SOL     OW62150   9.877   6.315   5.263 -0.3888 -0.2047  0.2298
19871SOL    HW162151   9.803   6.254   5.265 -1.0500  0.6144  1.7248
19871SOL    HW262152   9.919   6.300   5.178 -1.6859 -1.3762 -0.2121
19872SOL     OW62153   1.098   9.433   4.115  0.4346  0.1882  0.0054
19872SOL    HW162154   1.032   9.397   4.056 -0.1645  2.2370 -0.5986
19872SOL    HW262155   1.090   9.380   4.195 -2.5657  0.9619  0.2922
19873SOL     OW62156   2.012   4.131   4.777 -0.7232  0.3629 -0.2119
19873SOL    HW162157   1.962   4.206   4.810  1.9966  1.9651  0.4490
19873SOL    HW262158   2.044   4.087   4.856  1.8601  1.4655 -0.5811
19874SOL     OW62159   6.554   2.341   4.735 -0.0659  0.0032 -0.2129
19874SOL    HW162160   6.514   2.428   4.730 -0.3213 -0.1840 -1.5479
19874SOL    HW262161   6.578   2.320   4.645 -0.9528 -1.7661 -0.0509
19875SOL     OW62162   2.132   5.132   7.521 -0.0414 -0.4752 -0.4913
19875SOL    HW162163   2.173   5.045   7.529  1.9676  0.4378 -0.6874
19875SOL    HW262164   2.153   5.176   7.603  0.8594  0.6194 -1.2990
19876SOL     OW62165   7.543   0.608   2.204 -0.0499 -0.0330  0.1857
19876SOL    HW162166   7.483   0.661   2.256  0.5119  1.0090 -0.2120
19876SOL    HW262167   7.486   0.543   2.160 -0.8604  0.8122 -0.0365
19877SOL     OW62168   4.744   5.732   9.226  0.1204  0.4316  0.1085
19877SOL    HW162169   4.822   5.746   9.280 -0.0290 -1.9136  1.0037
19877SOL    HW262170   4.672   5.730   9.288 -0.4283  0.7297 -0.5112
19878SOL     OW62171   9.549   7.268   4.041 -0.0725 -0.4928  0.0386
19878SOL    HW162172   9.594   7.262   3.956 -0.0579 -0.5178  0.0476
19878SOL    HW262173   9.547   7.361   4.060 -2.3293 -0.2609 -1.1929
19879SOL     OW62174   2.804   6.601   8.376  0.0321 -0.4700  0.8127
19879SOL    HW162175   2.750   6.530   8.342  0.3053 -0.8474  1.1649
19879SOL    HW262176   2.742   6.661   8.416 -0.4874  0.8547 -1.8521
19880SOL     OW62177   8.149   0.300   9.596  0.0826 -0.3235 -0.5200
19880SOL    HW162178   8.217   0.236   9.574 -1.0702 -0.8189 -2.7507
19880SOL    HW262179   8.067   0.258   9.572 -0.8518  1.2436 -0.1652
19881SOL     OW62180   3.638   7.791   4.196 -0.3861 -0.1834  0.0528
19881SOL    HW162181   3.710   7.850   4.175  0.4482 -0.9884  0.6582
19881SOL    HW262182   3.582   7.794   4.118  0.2839  0.4445 -0.4187
19882SOL     OW62183   1.190   2.981   5.200 -0.5401 -0.5221 -0.6267
19882SOL    HW162184   1.220   3.003   5.288 -0.9781 -2.6346  0.0771
19882SOL    HW262185   1.266   2.941   5.158 -0.3245  0.5057 -1.2348
19883SOL     OW62186   6.338   9.471   1.508 -0.0588 -0.3862 -0.2824
19883SOL    HW162187   6.320   9.504   1.596 -1.7861  0.6254 -0.9904
19883SOL    HW262188   6.308   9.381   1.509 -0.3920 -0.2677  0.0626
19884SOL     OW62189   4.821   1.700   5.747  0.1824  0.2732 -0.6774
19884SOL    HW162190   4.886   1.733   5.685  0.1661  0.5990 -0.5279
19884SOL    HW262191   4.774   1.779   5.776  1.5414  0.4122  1.2964
19885SOL     OW62192   5.277   2.061   0.885 -0.2211  0.4093  0.5279
19885SOL    HW162193   5.361   2.015   0.893 -1.7390 -2.2747  1.7847
19885SOL    HW262194   5.238   2.025   0.806 -0.8176  0.5745  0.7452
19886SOL     OW62195   4.817   4.898   6.873 -0.3360  1.1056  0.0540
19886SOL    HW162196   4.738   4.952   6.877 -0.2734  1.3153 -1.3467
19886SOL    HW262197   4.831   4.882   6.780 -0.7765 -1.9421  0.4367
19887SOL     OW62198   1.292   2.242   5.445 -0.5027 -0.4270 -0.7087
19887SOL    HW162199   1.365   2.238   5.507 -1.7577 -0.5139  0.8016
19887SOL    HW262200   1.278   2.336   5.431  1.7035 -0.4285 -3.2231
19888SOL     OW62201   9.119   3.606   5.399 -0.1896 -0.4358  0.0353
19888SOL    HW162202   9.076   3.527   5.433  0.2776 -0.1746  1.2485
19888SOL    HW262203   9.211   3.594   5.420 -0.1003  0.3960  0.1252
19889SOL     OW62204   6.218   3.884   4.663  0.0081 -0.1512 -0.3639
19889SOL    HW162205   6.169   3.957   4.625  1.4891  2.1863  2.0496
19889SOL    HW262206   6.298   3.879   4.611 -0.5779 -0.7917 -1.2188
19890SOL     OW62207   0.551   4.427   7.594  0.0428  0.5360  0.1655
19890SOL    HW162208   0.564   4.510   7.640  1.5380  0.3800  0.0496
19890SOL    HW262209   0.634   4.411   7.549 -0.4357 -0.7286 -0.2951
19891SOL     OW62210   1.270   3.904   7.508  0.3309 -0.2598 -0.1462
19891SOL    HW162211   1.317   3.847   7.569  0.4742  0.7782  0.7212
19891SOL    HW262212   1.181   3.907   7.543  0.1773 -0.4077 -0.5183
19892SOL     OW62213   1.071   6.042   8.925  0.3298 -0.4944 -0.3846
19892SOL    HW162214   1.091   6.135   8.925 -2.6172  0.2003 -1.9682
19892SOL    HW262215   1.112   6.009   8.844  1.9633 -0.7447  0.5278
19893SOL     OW62216   3.260   5.638   6.631 -0.0094 -0.7281  0.1271
19893SOL    HW162217   3.280   5.722   6.589  0.0779 -1.4811 -1.3846
19893SOL    HW262218   3.165   5.628   6.620  0.1001 -1.1990 -0.4216
19894SOL     OW62219   2.261   1.229   4.079 -0.4443  0.4470  0.0842
19894SOL    HW162220   2.333   1.232   4.016 -0.5164  0.4943  0.0035
19894SOL    HW262221   2.224   1.317   4.079  1.3910  1.2637  2.3668
19895SOL     OW62222   2.970   0.969   6.487  0.1191 -0.1670  0.0289
19895SOL    HW162223   3.001   1.055   6.460  0.1178 -0.1035  0.2252
19895SOL    HW262224   3.050   0.916   6.496  0.2651  0.2697  1.4892
19896SOL     OW62225   7.811   6.083   6.888 -0.2543  0.2087 -0.5135
19896SOL    HW162226   7.902   6.054   6.891 -0.3552 -0.1132 -0.5300
19896SOL    HW262227   7.815   6.171   6.849  0.1038  0.4413  0.0485
19897SOL     OW62228   8.869   5.696   2.994  0.1832 -0.2343 -0.0208
19897SOL    HW162229   8.877   5.738   3.080 -0.5021 -0.9632  0.4037
19897SOL    HW262230   8.881   5.603   3.011 -1.4633 -0.5463 -0.4819
19898SOL     OW62231   9.304   5.264   3.098  0.0998  0.3485  0.2711
19898SOL    HW162232   9.289   5.335   3.035  1.2615 -2.2785 -3.1433
19898SOL    HW262233   9.399   5.260   3.108  0.0273 -0.4364  0.7264
19899SOL     OW62234   0.945   0.561   9.126  0.4238  0.0606  0.2736
19899SOL    HW162235   0.941   0.537   9.219 -0.4896 -0.4863  0.1056
19899SOL    HW262236   0.981   0.650   9.125 -0.7147  0.5421  1.2371
19900SOL     OW62237   6.746   6.215   8.858  0.2839 -0.3549 -0.0156
19900SOL    HW162238   6.660   6.185   8.887  0.2659 -0.0282  0.2663
19900SOL    HW262239   6.798   6.135   8.852  0.4327 -0.3823  1.3862
19901SOL     OW62240   1.444   2.886   8.979  0.2865 -0.4153  0.1749
19901SOL    HW162241   1.491   2.863   9.059  1.0354  1.5457  0.3181
19901SOL    HW262242   1.505   2.940   8.929 -1.8894  2.4813  0.5183
19902SOL     OW62243   4.831   2.160   0.947  0.2293 -0.2060  0.4585
19902SOL    HW162244   4.829   2.081   0.892 -1.4998  0.4159 -0.3778
19902SOL    HW262245   4.740   2.178   0.967  0.4964  2.3544 -0.4534
19903SOL     OW62246   2.519   4.483   0.032  0.1698 -0.4706  0.0635
19903SOL    HW162247   2.435   4.529   0.025  0.0571 -0.6060  0.5159
19903SOL    HW262248   2.582   4.544  -0.007  0.4564  1.2684  3.0639
19904SOL     OW62249   1.213   6.196   6.155 -0.3554  0.4435 -0.4024
19904SOL    HW162250   1.190   6.142   6.230 -1.5602  1.4663 -0.0193
19904SOL    HW262251   1.130   6.233   6.126  0.2936  1.1343 -1.3983
19905SOL     OW62252   4.886   6.396   0.392  0.6206  0.7275  0.5968
19905SOL    HW162253   4.980   6.379   0.390  0.6422  0.9174 -0.1780
19905SOL    HW262254   4.877   6.487   0.364 -0.1016 -0.7758 -4.6580
19906SOL     OW62255   9.530   0.291   6.262 -0.3372  0.4688 -0.2003
19906SOL    HW162256   9.625   0.280   6.261 -0.3589  0.2703 -2.1366
19906SOL    HW262257   9.495   0.205   6.238 -0.9417  0.9597 -1.1154
19907SOL     OW62258   6.168   5.145   5.998 -0.3482 -0.0688 -0.2454
19907SOL    HW162259   6.145   5.133   5.906  0.2518 -0.6268 -0.3223
19907SOL    HW262260   6.107   5.088   6.045  2.3614 -3.4142 -0.5957
19908SOL     OW62261   1.269   4.182   1.591 -0.1290 -0.0673 -0.4732
19908SOL    HW162262   1.341   4.238   1.621  0.1234 -0.8627  0.4104
19908SOL    HW262263   1.306   4.094   1.590 -0.6272 -0.2752 -1.5425
19909SOL     OW62264   4.777   7.548   9.751 -0.0673 -0.1914 -0.5452
19909SOL    HW162265   4.808   7.634   9.722  1.6930 -0.7834 -0.4904
19909SOL    HW262266   4.712   7.568   9.818  1.4721  1.1132  0.6207
19910SOL     OW62267  10.007   6.565   5.358  0.6817  0.0047 -0.5606
19910SOL    HW162268  10.000   6.581   5.452  0.2943  2.1823 -0.9500
19910SOL    HW262269   9.955   6.486   5.344 -0.3959  0.4397  0.8501
19911SOL     OW62270   3.974   5.509   5.003  0.4896  0.1018  0.1704
19911SOL    HW162271   3.966   5.422   5.042  1.5995 -0.0094  0.1562
19911SOL    HW262272   4.067   5.517   4.981  0.0654  0.5651 -1.4962
19912SOL     OW62273   6.218   4.907   7.652 -0.4635 -0.5988  0.1031
19912SOL    HW162274   6.256   4.823   7.678  0.6589 -0.0939  0.1616
19912SOL    HW262275   6.293   4.957   7.619 -1.2824  0.0411 -0.7925
19913SOL     OW62276   3.745   3.237   2.798  0.5157  0.5024 -0.4384
19913SOL    HW162277   3.822   3.265   2.847  0.1195  1.5030 -0.3974
19913SOL    HW262278   3.779   3.174   2.734  1.3857  1.0410 -0.5036
19914SOL     OW62279   1.516   7.661   8.681 -0.3103 -0.0135 -0.4015
19914SOL    HW162280   1.533   7.688   8.771  0.8244 -0.9635 -0.3218
19914SOL    HW262281   1.434   7.705   8.658 -0.9262 -0.2228  1.2931
19915SOL     OW62282   4.270   8.145   4.875  0.5229  0.8693 -0.9512
19915SOL    HW162283   4.184   8.169   4.841 -0.8386  0.0334  1.7646
19915SOL    HW262284   4.265   8.164   4.969  2.2200 -2.1579 -0.1830
19916SOL     OW62285   0.626   8.426   1.414 -0.3784 -0.1247  0.5637
19916SOL    HW162286   0.641   8.482   1.337  1.8959  1.6815  2.2413
19916SOL    HW262287   0.642   8.337   1.382  0.2709  0.5743 -1.1474
19917SOL     OW62288   2.622   7.407   8.351 -0.4535 -0.4686  0.3188
19917SOL    HW162289   2.576   7.323   8.352 -1.5321  0.0212 -2.2919
19917SOL    HW262290   2.551   7.472   8.357  0.1915  0.2733 -0.0828
19918SOL     OW62291   8.922   1.953   5.239  0.4620  0.2710  0.0806
19918SOL    HW162292   8.907   1.941   5.333 -0.5230  1.7267  0.1387
19918SOL    HW262293   8.874   1.882   5.197 -0.8232  0.8204  0.5995
19919SOL     OW62294   8.036   7.418   7.659 -0.0666 -0.4066 -0.2880
19919SOL    HW162295   8.035   7.395   7.566  1.9090 -2.1270  0.0676
19919SOL    HW262296   7.968   7.363   7.698 -0.7075  0.1151 -0.6633
19920SOL     OW62297   1.634   6.446   6.535 -0.3772 -0.2917 -0.2635
19920SOL    HW162298   1.564   6.509   6.521 -0.0096  0.5274  1.4689
19920SOL    HW262299   1.605   6.393   6.608  1.0453  0.4323  0.8607
19921SOL     OW62300   4.331   1.983   7.814 -0.2872 -0.0642  0.1654
19921SOL    HW162301   4.411   2.012   7.859 -1.1723 -0.1332  1.8041
19921SOL    HW262302   4.288   1.925   7.876 -1.6405  0.0032 -0.7002
19922SOL     OW62303   9.415   2.584   6.563 -0.3552  0.2799  0.2445
19922SOL    HW162304   9.457   2.570   6.648 -1.5055 -1.0429  0.6082
19922SOL    HW262305   9.482   2.627   6.510  0.3603  1.1440  1.8219
19923SOL     OW62306   7.292   3.343   9.988 -1.1937  0.2193 -0.7318
19923SOL    HW162307   7.307   3.426   9.943 -0.8805  0.7943  0.4097
19923SOL    HW262308   7.200   3.345  10.013 -1.3595 -0.0860 -1.3009
19924SOL     OW62309   5.552   5.467   2.169  0.8991  0.0306  0.9598
19924SOL    HW162310   5.502   5.473   2.088  0.6379  0.0121  1.1190
19924SOL    HW262311   5.504   5.404   2.223  0.4006  0.9693  1.6120
19925SOL     OW62312   9.106   9.946   2.267  0.5087 -0.4393 -0.2351
19925SOL    HW162313   9.193   9.933   2.229  1.3409  2.8728  0.3394
19925SOL    HW262314   9.114  10.028   2.315 -3.2104  0.3755 -0.8872
19926SOL     OW62315   0.679   9.031   6.274  0.4557  0.2211 -0.1050
19926SOL    HW162316   0.628   9.058   6.198  0.3671 -0.2435 -0.2176
19926SOL    HW262317   0.634   9.071   6.349 -0.3520 -0.5559 -0.1644
19927SOL     OW62318   2.553  10.112   6.207 -0.2895 -0.3007 -0.2023
19927SOL    HW162319   2.528  10.182   6.147 -0.0394  2.4186  2.7626
19927SOL    HW262320   2.639  10.084   6.175  0.3251  1.8406 -0.5330
19928SOL     OW62321   1.950   2.719   7.289  0.5025  0.4670  0.0798
19928SOL    HW162322   1.940   2.701   7.196  1.7529 -1.5439  0.2999
19928SOL    HW262323   1.889   2.658   7.332  0.4118  0.9170  0.5933
19929SOL     OW62324   0.438   8.784   2.048 -0.3738  0.5788  0.2879
19929SOL    HW162325   0.490   8.739   2.114 -1.9202 -0.0298  1.1315
19929SOL    HW262326   0.453   8.877   2.064 -2.5128  0.5086  3.0365
19930SOL     OW62327   2.201   4.673   1.659 -0.2581  0.1596  0.0142
19930SOL    HW162328   2.294   4.657   1.677 -0.4296 -0.2714  0.5511
19930SOL    HW262329   2.190   4.652   1.567  0.4707  1.5743 -0.4122
19931SOL     OW62330   0.830   9.580   8.652  0.9799  0.2077 -0.1384
19931SOL    HW162331   0.782   9.558   8.732 -0.0788 -0.3979 -0.9253
19931SOL    HW262332   0.895   9.645   8.680  0.3855  0.2680  1.1372
19932SOL     OW62333   2.613   6.414   7.396  0.1290 -0.2345  0.6950
19932SOL    HW162334   2.680   6.346   7.398  0.3757  0.0326  1.5016
19932SOL    HW262335   2.531   6.367   7.410  0.2929 -0.3770  1.1909
19933SOL     OW62336   8.876   3.018   3.890  0.2795  0.0199 -0.1799
19933SOL    HW162337   8.787   3.041   3.865  0.9487  0.3195 -2.3938
19933SOL    HW262338   8.924   3.101   3.889  0.8403 -0.3012 -0.1735
19934SOL     OW62339   5.459   8.229   0.649 -0.0944  0.1329 -0.2691
19934SOL    HW162340   5.456   8.292   0.577  1.3762  2.1130  1.3314
19934SOL    HW262341   5.534   8.174   0.631 -1.5005 -1.3335 -1.7815
19935SOL     OW62342   1.244  10.118   1.464 -0.2198  0.7984 -0.6748
19935SOL    HW162343   1.325  10.164   1.442  1.0251 -1.2559 -0.5055
19935SOL    HW262344   1.218  10.076   1.382  0.2109 -0.5119 -0.1511
19936SOL     OW62345  10.055   3.911   6.527  0.2967  0.1830  0.2340
19936SOL    HW162346  10.078   3.832   6.479  0.4236  0.7758 -0.6995
19936SOL    HW262347   9.960   3.916   6.521  0.3873  0.7911 -0.8289
19937SOL     OW62348   4.022   9.446   2.281 -0.6059  0.0059 -0.5130
19937SOL    HW162349   4.101   9.450   2.226 -0.8072  1.1212 -0.7464
19937SOL    HW262350   4.037   9.373   2.340  0.8298  0.5366 -0.2104
19938SOL     OW62351   5.807   7.270   6.524  0.1196  0.4564  0.0063
19938SOL    HW162352   5.833   7.182   6.496 -1.8447  0.2586 -1.2588
19938SOL    HW262353   5.822   7.271   6.618 -0.6305 -1.5273  0.1586
19939SOL     OW62354   5.431   3.515   0.660  0.4088  0.3980 -0.0613
19939SOL    HW162355   5.504   3.536   0.718  0.0556  1.7919 -0.0927
19939SOL    HW262356   5.398   3.431   0.691  0.8553  0.6613  1.1375
19940SOL     OW62357   5.510   9.152   6.635  0.0320  0.0955  0.0024
19940SOL    HW162358   5.465   9.123   6.715 -0.3162  0.7261  0.0378
19940SOL    HW262359   5.603   9.145   6.657 -0.0069 -1.8572 -0.2992
19941SOL     OW62360   6.021   9.210   8.112 -0.0037  0.0988 -0.4641
19941SOL    HW162361   5.956   9.198   8.181 -0.7529  1.4713 -0.9120
19941SOL    HW262362   6.101   9.170   8.146  0.5590  3.5327  2.5410
19942SOL     OW62363   6.633   3.052   3.817  0.1368 -0.1315 -0.0359
19942SOL    HW162364   6.678   3.008   3.745  0.3248  1.2729 -0.7949
19942SOL    HW262365   6.552   3.084   3.778 -0.0169  0.1654  0.5267
19943SOL     OW62366   9.760   4.390   4.190 -0.0147  0.6853  0.3626
19943SOL    HW162367   9.694   4.362   4.253  1.0973 -1.0473  0.7840
19943SOL    HW262368   9.720   4.374   4.104  0.3170 -1.5754  0.5958
19944SOL     OW62369   8.338   4.055   7.953  0.4254 -0.3287  0.0015
19944SOL    HW162370   8.306   4.142   7.930  0.9085 -0.0785  0.2807
19944SOL    HW262371   8.398   4.069   8.026  0.0012 -0.9686  0.4783
19945SOL     OW62372   3.308   5.224   0.073  0.2963  0.0365  0.1461
19945SOL    HW162373   3.217   5.205   0.097  0.5096 -0.4552  0.5599
19945SOL    HW262374   3.346   5.139   0.052  0.3521  0.3574 -1.1314
19946SOL     OW62375   9.597   7.196   1.670 -0.2772 -0.0841 -0.3729
19946SOL    HW162376   9.558   7.109   1.683 -0.7955  0.4700  2.0396
19946SOL    HW262377   9.649   7.211   1.749  0.1721  1.6252 -0.9719
19947SOL     OW62378   6.830   9.694   6.530  0.0127  0.3271  0.0602
19947SOL    HW162379   6.890   9.719   6.601 -0.4262  0.3860  0.4174
19947SOL    HW262380   6.847   9.601   6.516  1.4935  0.7741 -1.1167
19948SOL     OW62381   7.568   4.966   7.886  0.0449  0.2506 -0.6898
19948SOL    HW162382   7.565   5.056   7.918 -0.2478  0.2767 -0.7885
19948SOL    HW262383   7.640   4.965   7.824 -2.4055  1.4020 -3.6727
19949SOL     OW62384   6.682   7.028   8.682 -0.1902  0.0412  0.1592
19949SOL    HW162385   6.597   7.048   8.641  0.6370  0.4676 -1.3928
19949SOL    HW262386   6.705   7.108   8.729 -0.6442 -0.0849  0.6116
19950SOL     OW62387   9.527   4.377   4.332  0.3487  0.1599  0.4059
19950SOL    HW162388   9.441   4.354   4.296  1.4318 -3.0138 -0.3388
19950SOL    HW262389   9.522   4.349   4.424 -0.3580  2.6900  1.1844
19951SOL     OW62390   8.975   0.182   6.745 -0.3535 -0.2797  0.3496
19951SOL    HW162391   9.056   0.220   6.779  0.1472  0.2817 -1.4255
19951SOL    HW262392   8.982   0.089   6.766 -0.9006  0.3012  3.3790
19952SOL     OW62393   7.719   6.544   1.097 -0.2006  0.3458  0.0661
19952SOL    HW162394   7.687   6.624   1.140  0.4876  1.3515 -1.2406
19952SOL    HW262395   7.812   6.541   1.117 -0.1437  0.0933 -0.2358
19953SOL     OW62396   4.200   2.056   2.193 -0.3439  0.3050 -0.3492
19953SOL    HW162397   4.131   2.061   2.259  0.6438 -2.3862  0.9709
19953SOL    HW262398   4.153   2.055   2.110 -1.7113  1.8085  0.3708
19954SOL     OW62399   6.513   2.324   6.147 -0.0681  1.0734  0.6372
19954SOL    HW162400   6.570   2.256   6.183 -2.9404 -1.3260  0.8993
19954SOL    HW262401   6.521   2.314   6.053 -0.2637  0.5103  0.6731
19955SOL     OW62402   0.890   1.010   8.750  0.6526  0.4964 -0.8992
19955SOL    HW162403   0.809   1.031   8.797 -0.1207 -0.4628 -1.7946
19955SOL    HW262404   0.906   1.087   8.695  1.5966  1.6584  0.9189
19956SOL     OW62405   7.737   9.992   3.990 -0.0921 -0.0616  0.2459
19956SOL    HW162406   7.748  10.021   3.899  1.5769  0.9330  0.7590
19956SOL    HW262407   7.657  10.034   4.019 -0.7682 -0.5713 -0.8320
19957SOL     OW62408   3.075   0.954   1.117 -0.0769 -0.8775 -0.0588
19957SOL    HW162409   3.125   0.873   1.108 -1.0515 -1.2767 -2.1256
19957SOL    HW262410   3.081   0.996   1.032  0.0775  1.0506  0.8731
19958SOL     OW62411   5.531   1.747  10.025  0.0965 -0.5759 -0.7926
19958SOL    HW162412   5.614   1.720   9.985  0.1234 -1.3604 -0.2402
19958SOL    HW262413   5.466   1.732   9.957  0.0974 -2.1779 -0.4676
19959SOL     OW62414   0.118   4.952   1.555  0.1772 -0.0559  0.4722
19959SOL    HW162415   0.095   5.043   1.575  3.4942  0.9292  0.0022
19959SOL    HW262416   0.078   4.902   1.626 -1.5345  1.7544  0.8419
19960SOL     OW62417   0.948   7.118   4.490  0.5090 -0.3556 -0.1013
19960SOL    HW162418   0.962   7.185   4.557  1.1097 -1.5314  0.9741
19960SOL    HW262419   0.944   7.036   4.539  2.5275 -1.4274 -1.6467
19961SOL     OW62420   5.235   6.914   3.565 -0.2604  0.4317  0.1363
19961SOL    HW162421   5.155   6.960   3.591 -0.2972  0.2333  0.3761
19961SOL    HW262422   5.246   6.935   3.472 -0.0053  1.3329  0.3644
19962SOL     OW62423   7.945   4.840   0.953  0.2971  0.0521  0.1152
19962SOL    HW162424   7.978   4.764   0.904 -1.4659 -0.0199 -0.9884
19962SOL    HW262425   7.899   4.893   0.888 -0.3957  0.9546  1.3188
19963SOL     OW62426   8.838   2.627   7.611  0.1392  0.4292 -0.2345
19963SOL    HW162427   8.811   2.715   7.583 -0.0792  0.4251 -0.0327
19963SOL    HW262428   8.770   2.569   7.577  0.8294  0.2178 -1.2782
19964SOL     OW62429   7.157   8.115   5.429  0.2561 -0.0580 -0.0222
19964SOL    HW162430   7.184   8.025   5.444 -1.7265 -0.8314 -1.0030
19964SOL    HW262431   7.124   8.144   5.514 -0.5744 -0.7901 -0.0842
19965SOL     OW62432   5.100   5.733   1.765 -0.1031  0.3076 -0.6408
19965SOL    HW162433   5.010   5.765   1.767  0.9768  3.4989  2.8291
19965SOL    HW262434   5.147   5.793   1.707  0.0916 -0.5506 -1.3873
19966SOL     OW62435   9.810   1.396   5.894  0.1175  0.3061  0.5725
19966SOL    HW162436   9.860   1.323   5.858  0.2690  0.9980 -0.6638
19966SOL    HW262437   9.875   1.465   5.909 -0.5755  1.5684 -1.9974
19967SOL     OW62438   9.425   5.149   0.480 -0.5130 -0.1989 -0.1202
19967SOL    HW162439   9.505   5.177   0.435 -1.2819  0.8608 -0.8578
19967SOL    HW262440   9.397   5.225   0.530 -0.9405 -0.6421  0.3278
19968SOL     OW62441   2.139   8.454   3.805  0.1134 -0.2832 -0.2651
19968SOL    HW162442   2.060   8.423   3.761  0.6555 -0.6914 -0.9652
19968SOL    HW262443   2.200   8.380   3.799  0.4487 -0.0727  0.5155
19969SOL     OW62444   5.315   1.840   9.172  0.1386 -0.4336 -0.7007
19969SOL    HW162445   5.347   1.896   9.244 -0.1207 -1.0791 -0.0765
19969SOL    HW262446   5.287   1.759   9.215 -2.2051  0.0454 -1.2473
19970SOL     OW62447   1.528   2.137   8.238  0.4116 -0.0117 -0.4987
19970SOL    HW162448   1.558   2.082   8.166 -2.0475  1.0207 -2.3790
19970SOL    HW262449   1.584   2.215   8.234  0.0130  0.2273 -1.5805
19971SOL     OW62450   0.653   2.192   8.263  0.0681 -0.0824 -0.3417
19971SOL    HW162451   0.690   2.278   8.282 -1.3904  0.9981 -2.2255
19971SOL    HW262452   0.561   2.200   8.289 -0.1583 -0.9594 -0.8837
19972SOL     OW62453   4.372   2.407   1.205 -0.1060  0.3427 -0.3837
19972SOL    HW162454   4.360   2.488   1.156  0.8545  0.3485 -0.6214
19972SOL    HW262455   4.349   2.430   1.295  2.7263  1.6179  0.0855
19973SOL     OW62456   8.752   2.499   0.067 -0.1988  0.1104 -0.1091
19973SOL    HW162457   8.804   2.487  -0.012 -1.6524  0.6902 -1.1760
19973SOL    HW262458   8.799   2.566   0.117  2.1433 -2.1295  0.8037
19974SOL     OW62459   3.067   8.678   6.029 -0.0873  0.1498  1.0225
19974SOL    HW162460   3.049   8.771   6.046  1.0237  0.3697  1.0581
19974SOL    HW262461   3.155   8.664   6.065  0.5454 -0.4387 -0.6920
19975SOL     OW62462   3.453   2.812   0.492 -0.2265 -0.2521 -0.5084
19975SOL    HW162463   3.374   2.776   0.535 -0.1826  1.5421  1.1496
19975SOL    HW262464   3.419   2.857   0.415 -0.5130 -1.8661 -1.3544
19976SOL     OW62465   0.373   2.613   3.839  0.4286  0.1201  0.3082
19976SOL    HW162466   0.308   2.564   3.889  0.3727 -2.5067 -2.2165
19976SOL    HW262467   0.442   2.633   3.903 -0.8786 -0.7817  2.0423
19977SOL     OW62468   7.122   2.992   8.108  0.2499 -0.5545 -0.4850
19977SOL    HW162469   7.079   3.012   8.191  0.1505 -0.1774 -0.6281
19977SOL    HW262470   7.149   2.900   8.117 -0.4418 -0.7469 -0.3303
19978SOL     OW62471   6.273   7.406   9.950 -0.5583 -0.2131 -0.5345
19978SOL    HW162472   6.271   7.500   9.933  0.3541  0.0433  0.6856
19978SOL    HW262473   6.287   7.367   9.864 -2.2399  0.6854 -1.2365
19979SOL     OW62474   2.436   7.240   0.614 -0.3869 -0.6058  0.1891
19979SOL    HW162475   2.355   7.228   0.564 -0.9569 -1.7138  1.3420
19979SOL    HW262476   2.411   7.299   0.686  0.3306  0.6667 -0.5984
19980SOL     OW62477   2.066   7.266   2.697  0.1776  0.2982 -0.1200
19980SOL    HW162478   2.075   7.197   2.763  0.1382  2.1344  1.8395
19980SOL    HW262479   2.149   7.267   2.651 -0.3589 -2.0905 -1.2112
19981SOL     OW62480   7.182   8.885   3.477  0.2707 -0.4817 -0.4442
19981SOL    HW162481   7.273   8.894   3.448  0.6966  0.5586  1.1462
19981SOL    HW262482   7.187   8.891   3.573 -1.0886 -3.7231 -0.1161
19982SOL     OW62483   6.617   2.110   8.362  0.2993  0.6082 -0.0486
19982SOL    HW162484   6.597   2.063   8.443  0.8726  0.4565  0.0074
19982SOL    HW262485   6.571   2.062   8.294 -1.3510  1.5542  0.3629
19983SOL     OW62486   9.819   4.501   0.935  0.4459 -0.0472 -0.3897
19983SOL    HW162487   9.856   4.413   0.938 -0.0142 -0.2996 -1.7733
19983SOL    HW262488   9.731   4.492   0.971  1.0448  0.2142  1.2024
19984SOL     OW62489   5.498   6.018   3.860 -0.0047  0.1161  0.5977
19984SOL    HW162490   5.565   6.065   3.909 -0.9063  1.8865  0.1700
19984SOL    HW262491   5.546   5.971   3.792  1.1412 -1.4857  2.4505
19985SOL     OW62492   9.888   3.041   3.897 -0.1845  0.4775 -0.1904
19985SOL    HW162493   9.886   3.071   3.988  0.1413  2.0273 -0.6774
19985SOL    HW262494   9.978   3.058   3.869 -0.1411 -0.4909 -0.6378
19986SOL     OW62495   9.182   1.591   2.957 -0.1663  0.2726  0.3014
19986SOL    HW162496   9.254   1.631   2.909  0.0710  0.9156  1.1810
19986SOL    HW262497   9.219   1.512   2.996  0.2027  0.8598  1.1577
19987SOL     OW62498   7.825   2.368   1.069 -0.4176 -0.1324  0.2668
19987SOL    HW162499   7.826   2.462   1.084  0.7551 -0.1904  0.6180
19987SOL    HW262500   7.852   2.330   1.153 -0.8172 -0.7711  0.1081
19988SOL     OW62501   0.163  10.135   9.409 -0.1323  0.0094  0.2761
19988SOL    HW162502   0.088  10.083   9.439 -0.7439  0.5443 -0.3080
19988SOL    HW262503   0.236  10.105   9.464 -1.0467  0.3691  1.7211
19989SOL     OW62504   8.992   1.017   4.102 -0.1638 -0.2757  0.2582
19989SOL    HW162505   8.956   0.932   4.129 -0.5899 -0.4068 -0.6719
19989SOL    HW262506   9.063   1.034   4.164 -0.2044 -1.2221  0.5808
19990SOL     OW62507   6.253   0.302   7.203 -0.1238  0.1726  0.1498
19990SOL    HW162508   6.163   0.276   7.184  0.0863 -0.1803 -0.3923
19990SOL    HW262509   6.300   0.219   7.213  0.8689  0.2834 -3.0657
19991SOL     OW62510   7.890   5.405   8.671  0.4908 -0.3580  0.3518
19991SOL    HW162511   7.820   5.397   8.607 -0.5838 -2.1752  1.7178
19991SOL    HW262512   7.921   5.495   8.662  0.5076 -0.6175 -2.8375
19992SOL     OW62513   0.662   0.741   1.658  0.3317 -0.1532  0.3140
19992SOL    HW162514   0.571   0.720   1.681  0.5249 -1.3120  0.0733
19992SOL    HW262515   0.708   0.743   1.742  0.5737 -2.0713  0.2485
19993SOL     OW62516   5.826   7.098   8.661  0.2709  0.7083  0.2821
19993SOL    HW162517   5.864   7.097   8.749 -0.2694  1.2542  0.5222
19993SOL    HW262518   5.749   7.041   8.668 -0.0064  1.0794  0.2690
19994SOL     OW62519   8.609   3.020   9.697  0.0506 -0.1430 -0.0567
19994SOL    HW162520   8.688   2.985   9.656  0.4036  0.0339  0.4633
19994SOL    HW262521   8.546   3.028   9.625  1.0959  1.4412 -0.8381
19995SOL     OW62522  10.099  10.019   7.204  0.6814  0.2285 -0.2759
19995SOL    HW162523  10.070   9.931   7.182 -1.1251  1.3642 -2.6703
19995SOL    HW262524  10.112  10.017   7.299 -0.3111 -2.3157 -0.1453
19996SOL     OW62525   5.890   2.663   6.284 -0.3034  0.3049 -0.4599
19996SOL    HW162526   5.804   2.704   6.295 -1.1619 -1.4034 -0.6124
19996SOL    HW262527   5.886   2.622   6.197  0.9733  0.9076 -0.8129
19997SOL     OW62528   2.406   5.393   3.970  0.1277 -0.4054 -0.2707
19997SOL    HW162529   2.320   5.351   3.970  0.2794 -0.8319  2.4678
19997SOL    HW262530   2.450   5.357   3.893 -1.6410 -1.2843 -0.8933
19998SOL     OW62531   4.776   1.948   6.470 -0.2150 -0.0067 -0.6081
19998SOL    HW162532   4.824   1.879   6.517  0.5717  0.9914  0.0629
19998SOL    HW262533   4.842   1.990   6.415 -0.3970  1.1558  0.0636
19999SOL     OW62534   4.670   0.462  10.198 -0.9312 -0.0753 -0.5738
19999SOL    HW162535   4.750   0.508  10.173  0.0857  0.1652  2.8132
19999SOL    HW262536   4.696   0.370  10.205 -0.9556 -0.0124  0.4287
20000SOL     OW62537   9.267   8.946   8.920 -0.1772 -0.1819 -0.4886
20000SOL    HW162538   9.334   8.988   8.866  0.9697 -1.2709  0.0638
20000SOL    HW262539   9.199   9.013   8.929  0.6888  0.8377 -1.3126
20001SOL     OW62540   6.527   1.116   9.534 -0.4973  0.0047  0.2630
20001SOL    HW162541   6.562   1.192   9.580 -1.1627  0.5534 -0.1188
20001SOL    HW262542   6.540   1.136   9.441 -1.5935  0.1161  0.1240
20002SOL     OW62543   6.235   9.082   9.588 -0.1516 -0.2099  0.2000
20002SOL    HW162544   6.237   9.109   9.496  0.2889 -2.3578 -0.4517
20002SOL    HW262545   6.322   9.107   9.622 -0.1067  0.0601 -0.1087
20003SOL     OW62546   0.953   0.017   7.157  0.3541 -0.1099 -0.5287
20003SOL    HW162547   1.039  -0.026   7.153  0.4859  0.1292 -0.2243
20003SOL    HW262548   0.972   0.108   7.180  0.0349 -0.0072 -0.6710
20004SOL     OW62549   3.132   0.717   3.703  0.2043 -0.2872  0.7650
20004SOL    HW162550   3.197   0.667   3.752  1.0038 -0.2217 -0.2291
20004SOL    HW262551   3.055   0.660   3.700  1.1219 -1.4891 -0.3928
20005SOL     OW62552   7.823   2.632   5.918  0.3478  0.3731 -0.4753
20005SOL    HW162553   7.734   2.599   5.929  0.7257 -0.6962 -0.6542
20005SOL    HW262554   7.840   2.625   5.825  1.2035 -0.9156 -0.2276
20006SOL     OW62555   9.370   7.956   2.596  0.1346  0.0434 -0.5790
20006SOL    HW162556   9.426   8.009   2.651  0.3093  0.1805 -0.8856
20006SOL    HW262557   9.296   7.932   2.652 -1.1991  2.6663 -1.1505
20007SOL     OW62558   0.917   6.294   0.985 -0.9491  0.0957  0.1906
20007SOL    HW162559   1.004   6.303   1.024 -1.1223 -0.1307  0.6338
20007SOL    HW262560   0.921   6.345   0.904  0.4157 -1.9914 -1.1385
20008SOL     OW62561   9.499   7.432   8.384 -0.0067  0.2135 -0.3827
20008SOL    HW162562   9.423   7.470   8.427  0.3766  0.3541  0.1919
20008SOL    HW262563   9.570   7.443   8.448  0.4530 -0.0697 -0.8384
20009SOL     OW62564   1.199   7.896   0.154  0.2941  0.1599  0.1798
20009SOL    HW162565   1.183   7.943   0.236 -0.5860  0.7630 -0.3301
20009SOL    HW262566   1.122   7.841   0.142  0.3686  0.1573 -0.3071
20010SOL     OW62567   1.061   9.133   1.493  0.1223 -0.1244 -0.2186
20010SOL    HW162568   1.046   9.049   1.450  0.5785 -0.5117  0.3577
20010SOL    HW262569   1.098   9.109   1.578  0.7369  0.6813 -0.2569
20011SOL     OW62570   5.644   8.308   7.961  0.1622 -1.2371 -0.5179
20011SOL    HW162571   5.579   8.287   8.028 -0.3079  0.9966 -0.2376
20011SOL    HW262572   5.602   8.375   7.907  1.7035 -0.8203 -1.2269
20012SOL     OW62573   7.902   6.061   0.662 -0.0609 -0.1432 -0.0258
20012SOL    HW162574   7.832   5.995   0.661 -0.9959  0.8395 -0.4363
20012SOL    HW262575   7.917   6.081   0.570  0.0558  0.3802  0.1050
20013SOL     OW62576  10.094   1.636   6.979 -0.5105  0.0357 -0.4189
20013SOL    HW162577  10.022   1.655   7.038  1.2477  1.3920  1.3828
20013SOL    HW262578  10.145   1.569   7.024  0.0981  0.0747 -1.0375
20014SOL     OW62579   8.874   3.808   0.083  0.4800  0.1759  0.2763
20014SOL    HW162580   8.858   3.714   0.093  1.7879 -0.1665 -0.6660
20014SOL    HW262581   8.864   3.824  -0.011 -0.8936  1.2249  0.5801
20015SOL     OW62582   1.568   5.575   2.903 -0.2352 -0.0530  0.1845
20015SOL    HW162583   1.637   5.558   2.967  0.0071  0.8153  0.1739
20015SOL    HW262584   1.615   5.584   2.820 -0.5231 -0.9361 -0.0757
20016SOL     OW62585   3.811   3.907   4.670  0.7240  0.8125  0.0453
20016SOL    HW162586   3.888   3.865   4.632 -0.0254 -1.0263  0.5477
20016SOL    HW262587   3.809   3.994   4.629  2.1492  0.2981 -1.1596
20017SOL     OW62588   1.378   2.165   3.800  0.2176  0.2858 -0.2692
20017SOL    HW162589   1.356   2.084   3.754  0.4293  0.3274 -0.4441
20017SOL    HW262590   1.393   2.229   3.731 -0.4453  0.6060 -0.1210
20018SOL     OW62591   6.237   8.769   1.129  0.0208  0.2161 -0.8076
20018SOL    HW162592   6.212   8.855   1.094  0.7375  0.4071 -0.8662
20018SOL    HW262593   6.322   8.751   1.089  0.4882  0.0782  0.2125
20019SOL     OW62594   7.313   8.046   6.065 -0.0244 -0.4292 -0.4605
20019SOL    HW162595   7.287   8.064   6.155  2.6720 -1.0745  0.5024
20019SOL    HW262596   7.320   7.950   6.061  2.2512 -0.2874 -0.6057
20020SOL     OW62597   7.890   1.233   7.274 -0.3094 -0.1044  0.1262
20020SOL    HW162598   7.912   1.223   7.367 -1.5339 -1.4508  0.2893
20020SOL    HW262599   7.878   1.144   7.242 -3.0528  0.4511 -0.5279
20021SOL     OW62600   1.734   5.772   5.497 -0.1422  0.4789 -0.3321
20021SOL    HW162601   1.707   5.836   5.564  2.4010  0.2448  0.9857
20021SOL    HW262602   1.781   5.824   5.432 -0.2858  0.3198 -0.5623
20022SOL     OW62603   4.383   6.677   4.317 -0.3452 -0.3857  0.2264
20022SOL    HW162604   4.472   6.657   4.288  0.3208  1.3150  0.9967
20022SOL    HW262605   4.337   6.593   4.314  0.6009 -0.8582 -2.5289
20023SOL     OW62606   1.325   0.457   2.556  0.1004 -0.0914  0.4330
20023SOL    HW162607   1.291   0.424   2.473 -1.4684 -0.1289  1.0824
20023SOL    HW262608   1.389   0.391   2.582 -1.0214 -1.2371  0.3498
20024SOL     OW62609   5.348   7.798   8.092 -0.4785  0.2749 -0.4354
20024SOL    HW162610   5.411   7.742   8.138  0.2073  0.4005 -1.1992
20024SOL    HW262611   5.266   7.789   8.141 -0.5407 -1.8881 -0.9286
20025SOL     OW62612   7.051   2.405   0.366  0.2533 -0.3386 -0.3582
20025SOL    HW162613   7.083   2.474   0.425 -0.0894 -0.5769  0.1044
20025SOL    HW262614   7.039   2.450   0.282 -1.4769  0.5488  0.3322
20026SOL     OW62615   3.328   7.757   2.951  0.4594 -0.4387  0.1736
20026SOL    HW162616   3.293   7.727   2.867  0.5973 -0.2569  0.0511
20026SOL    HW262617   3.420   7.775   2.934  0.4824 -0.3771  0.3575
20027SOL     OW62618   7.882   8.347   3.504  0.3030 -0.4199 -0.4651
20027SOL    HW162619   7.887   8.325   3.411  0.4778 -0.1974 -0.5103
20027SOL    HW262620   7.792   8.378   3.516  0.5591  0.4858 -0.7764
20028SOL     OW62621   1.357   9.366   4.104 -0.0066 -0.5668 -0.1661
20028SOL    HW162622   1.363   9.270   4.107  0.6697 -0.5141  0.2049
20028SOL    HW262623   1.263   9.384   4.100 -0.1111 -1.2715 -1.0933
20029SOL     OW62624   7.321   2.300   9.715 -0.2571 -0.5601  0.1905
20029SOL    HW162625   7.391   2.364   9.728  0.1948 -1.3359  1.5826
20029SOL    HW262626   7.337   2.265   9.627  0.2236  0.3164 -0.0820
20030SOL     OW62627   0.475   5.059   2.967 -0.0747 -0.0129 -0.1509
20030SOL    HW162628   0.446   4.983   2.916  1.0190  0.0931 -0.9535
20030SOL    HW262629   0.409   5.068   3.036  0.6878 -2.7785  1.0252
20031SOL     OW62630   4.455  10.143   0.369  0.4744  0.3509  0.3616
20031SOL    HW162631   4.441  10.056   0.333  0.5528 -0.3103  1.9020
20031SOL    HW262632   4.404  10.144   0.450 -1.4828  2.5670 -0.8385
20032SOL     OW62633   6.387   8.305   2.992  0.1934  0.2655 -0.7600
20032SOL    HW162634   6.333   8.355   2.931  0.9000 -0.0500 -1.6734
20032SOL    HW262635   6.455   8.366   3.020 -0.7673  0.7294  0.5648
20033SOL     OW62636   6.294   9.781   3.175  0.3759 -0.6049  0.1257
20033SOL    HW162637   6.389   9.794   3.171 -0.0648  2.9925 -0.0338
20033SOL    HW262638   6.274   9.777   3.269  0.6837 -1.6251  0.1569
20034SOL     OW62639   1.377   5.961   9.355 -0.1757  0.2644  0.0212
20034SOL    HW162640   1.310   6.008   9.404  0.2924  0.9455  0.0185
20034SOL    HW262641   1.341   5.953   9.266  0.0276  1.2065 -0.1445
20035SOL     OW62642   1.820   2.522   7.419  0.1282 -0.0289 -0.9570
20035SOL    HW162643   1.803   2.490   7.508  0.5155  0.4318 -0.7139
20035SOL    HW262644   1.857   2.447   7.373  1.3677  0.1505 -0.2889
20036SOL     OW62645   7.670   6.129   9.617  0.5646  0.1611 -0.1291
20036SOL    HW162646   7.648   6.044   9.580 -0.2171  0.3527 -0.1128
20036SOL    HW262647   7.760   6.120   9.647  0.6218 -0.5275 -0.5125
20037SOL     OW62648   4.264   2.569   9.684  0.1682  0.8093  0.0944
20037SOL    HW162649   4.261   2.554   9.589  1.1442  1.0967  0.0184
20037SOL    HW262650   4.194   2.632   9.700 -0.5904  0.0821 -0.3049
20038SOL     OW62651   5.498   8.401   2.691 -0.3388  0.2480 -0.1078
20038SOL    HW162652   5.452   8.333   2.742 -2.0598  2.6013  1.5653
20038SOL    HW262653   5.588   8.397   2.722 -0.8551  0.0532  1.4006
20039SOL     OW62654   6.374   1.422   2.640  0.1508 -0.5132  0.3511
20039SOL    HW162655   6.311   1.392   2.575  1.2470 -0.2404 -0.8523
20039SOL    HW262656   6.330   1.409   2.724 -0.6114 -2.5327 -0.3227
20040SOL     OW62657   1.949   9.611   9.592  0.4711 -0.1309 -0.1075
20040SOL    HW162658   1.958   9.699   9.629 -0.3207  0.6009 -1.6032
20040SOL    HW262659   2.039   9.579   9.584  0.8392  1.0062 -0.6481
20041SOL     OW62660   0.827   7.473   7.588 -0.7618  0.8540 -0.3113
20041SOL    HW162661   0.761   7.476   7.658 -0.5610  0.8221 -0.1214
20041SOL    HW262662   0.786   7.419   7.520 -0.9692  0.9090 -0.2308
20042SOL     OW62663   4.801   9.011   3.531  0.4489  0.0151  0.6309
20042SOL    HW162664   4.831   9.009   3.440  0.1403 -0.0552  0.5299
20042SOL    HW262665   4.875   9.047   3.579  0.9195 -0.7329  0.4756
20043SOL     OW62666   5.868   3.532   5.415  0.1293 -0.0101 -0.1823
20043SOL    HW162667   5.791   3.589   5.408 -0.0477 -0.1057  0.8756
20043SOL    HW262668   5.869   3.505   5.507  0.4063 -1.4457 -0.6077
20044SOL     OW62669   0.372   9.960   5.823  0.2290  0.4817  0.1959
20044SOL    HW162670   0.372   9.884   5.882  0.0563  0.7258  0.5154
20044SOL    HW262671   0.339   9.927   5.740 -0.2742  0.3042  0.4639
20045SOL     OW62672   8.642   3.720   0.528 -0.3825  0.4710 -0.2117
20045SOL    HW162673   8.571   3.658   0.544 -0.0824  0.3931  0.7942
20045SOL    HW262674   8.712   3.667   0.489 -1.1766  0.7010 -2.0257
20046SOL     OW62675   4.438   0.912   7.441  0.1618 -0.2979  0.0887
20046SOL    HW162676   4.507   0.966   7.403  1.9592 -2.1082  0.7193
20046SOL    HW262677   4.427   0.946   7.530 -1.5188  1.5770 -0.7865
20047SOL     OW62678   8.126   0.291   6.991  0.1328  0.4000  0.1785
20047SOL    HW162679   8.166   0.262   7.074 -1.1840 -0.8869  0.3752
20047SOL    HW262680   8.123   0.386   6.998  0.4896  0.3294  1.3943
20048SOL     OW62681   9.361   8.381   8.739  0.3613 -0.2574  0.1728
20048SOL    HW162682   9.422   8.311   8.715  0.0779 -0.3488 -0.2972
20048SOL    HW262683   9.300   8.386   8.665 -0.0357  0.0174  0.5149
20049SOL     OW62684   3.470   3.624   0.377 -0.0914  0.2655  0.4978
20049SOL    HW162685   3.473   3.686   0.304  0.2372  2.1302  2.0660
20049SOL    HW262686   3.512   3.545   0.343 -1.6993  0.4110 -1.9513
20050SOL     OW62687   8.458   3.596   6.143  0.3328  0.3081  0.6409
20050SOL    HW162688   8.454   3.691   6.134 -1.0382  0.1206 -0.8862
20050SOL    HW262689   8.521   3.582   6.214 -0.4394  2.3916  1.8065
20051SOL     OW62690   1.437   4.815   9.103  0.6501  0.2194 -0.1815
20051SOL    HW162691   1.413   4.840   9.013 -0.5410  0.4392  0.1950
20051SOL    HW262692   1.533   4.819   9.103  0.6982 -0.4528 -1.6328
20052SOL     OW62693   8.584   6.666   1.067 -0.3794  0.1612 -0.2999
20052SOL    HW162694   8.504   6.714   1.089  0.0076 -0.2452  2.1592
20052SOL    HW262695   8.655   6.724   1.096  0.1723 -0.3590 -0.6052
20053SOL     OW62696   7.119   3.343   5.876  0.5960  0.3205  0.1277
20053SOL    HW162697   7.155   3.432   5.874  0.3365  0.4355  0.5695
20053SOL    HW262698   7.117   3.321   5.969  0.0279  0.1088  0.0632
20054SOL     OW62699   5.960   1.690   0.812  0.0945 -0.2114  0.3180
20054SOL    HW162700   5.903   1.697   0.888 -0.0575  1.4272  0.0833
20054SOL    HW262701   5.900   1.673   0.739 -0.0417  0.7981  0.1823
20055SOL     OW62702   1.693   9.834   1.662  0.0882 -0.2497 -0.1270
20055SOL    HW162703   1.772   9.882   1.688  0.3936 -1.5639  1.4955
20055SOL    HW262704   1.642   9.897   1.612  1.2322  1.2595  0.5506
20056SOL     OW62705   0.976   5.955   6.623  0.4064 -0.5134  0.6947
20056SOL    HW162706   0.915   6.027   6.632  2.1657  1.6014 -2.8129
20056SOL    HW262707   1.045   5.973   6.687  0.0993  0.1458  0.8408
20057SOL     OW62708   0.628   1.126   7.553 -0.4064  0.6122 -0.2833
20057SOL    HW162709   0.697   1.059   7.554 -1.1530 -0.1436  0.8002
20057SOL    HW262710   0.671   1.204   7.589  0.0853  0.3335 -0.2594
20058SOL     OW62711   1.635   8.812   2.677 -0.3853  0.2280  0.4367
20058SOL    HW162712   1.722   8.847   2.692  0.9986 -2.3588 -1.1330
20058SOL    HW262713   1.610   8.845   2.591 -0.6028  0.2950  0.5239
20059SOL     OW62714   5.843   1.235   2.465 -0.3935  0.3885 -0.5356
20059SOL    HW162715   5.859   1.251   2.558  0.8030  1.4112 -0.8888
20059SOL    HW262716   5.782   1.162   2.462  0.7702 -0.6710  1.0257
20060SOL     OW62717   6.897   8.751   0.412 -0.8640  0.0030 -0.2649
20060SOL    HW162718   6.881   8.761   0.506  0.4771  1.1973 -0.1390
20060SOL    HW262719   6.863   8.832   0.373  1.5112  0.9934 -0.3936
20061SOL     OW62720   8.686   6.660   2.557  0.1794 -1.0876  0.5194
20061SOL    HW162721   8.706   6.752   2.574 -0.7194 -0.6425 -0.7975
20061SOL    HW262722   8.593   6.651   2.576  0.1282 -1.5888  0.0667
20062SOL     OW62723   7.319   8.892   2.522 -0.2842  0.0992 -0.0359
20062SOL    HW162724   7.410   8.872   2.499 -0.2744  0.5963 -0.4492
20062SOL    HW262725   7.284   8.936   2.445 -0.8270  0.0684  0.1887
20063SOL     OW62726   4.438   5.473   1.389  0.1160  0.4714 -0.0013
20063SOL    HW162727   4.397   5.427   1.463  0.7565  1.2098  0.8257
20063SOL    HW262728   4.372   5.470   1.320 -0.4939 -0.2383  0.5931
20064SOL     OW62729   7.001   8.215   9.691 -0.3038 -0.0010  0.0652
20064SOL    HW162730   6.960   8.176   9.614 -1.0305  0.9136 -0.0204
20064SOL    HW262731   6.953   8.296   9.706  1.4392  1.0847 -0.0081
20065SOL     OW62732   5.555   1.272   2.650 -0.3393 -0.2080 -0.2345
20065SOL    HW162733   5.572   1.361   2.619  0.4665 -0.4058 -0.3647
20065SOL    HW262734   5.505   1.232   2.579  1.1033 -0.5129 -1.0853
20066SOL     OW62735   6.621   0.862   3.677 -0.1543  0.1142 -0.6759
20066SOL    HW162736   6.605   0.899   3.590  0.1053 -0.3586 -0.9270
20066SOL    HW262737   6.600   0.769   3.668 -3.1513  0.6143  0.5711
20067SOL     OW62738   5.584   9.290   4.929 -0.2672  0.6089 -0.1526
20067SOL    HW162739   5.619   9.310   5.016 -0.2027 -0.0437 -0.0225
20067SOL    HW262740   5.562   9.197   4.934  0.4382  0.3944 -1.0773
20068SOL     OW62741   6.369   2.723   4.846  0.5120 -0.2755  0.2357
20068SOL    HW162742   6.307   2.792   4.871 -0.6074 -1.0803 -0.3140
20068SOL    HW262743   6.402   2.689   4.930 -0.7449 -0.7066  0.5666
20069SOL     OW62744   4.274   8.808   8.061 -0.5397 -0.2261 -0.4384
20069SOL    HW162745   4.273   8.880   8.125 -0.0384 -1.0784  0.5434
20069SOL    HW262746   4.190   8.816   8.015 -0.7721  0.5905  0.1128
20070SOL     OW62747   3.701   6.929   3.642  0.2875 -0.3635 -0.2186
20070SOL    HW162748   3.628   6.991   3.649  0.3276 -0.3104 -0.2664
20070SOL    HW262749   3.748   6.939   3.725  0.5313 -0.0287 -0.3938
20071SOL     OW62750   5.056   9.369   7.998 -0.2316 -0.5789  0.4188
20071SOL    HW162751   4.998   9.369   7.922 -0.7013  1.0482  0.7534
20071SOL    HW262752   5.133   9.419   7.969 -0.5934  0.4116  1.1203
20072SOL     OW62753   3.493   8.545   0.691  0.4723 -0.6178 -0.4084
20072SOL    HW162754   3.405   8.527   0.658  0.9403 -0.7438 -1.5857
20072SOL    HW262755   3.549   8.482   0.646  1.3628  0.3400 -0.6558
20073SOL     OW62756   7.803  10.164   4.237  0.6042  0.3329  0.5992
20073SOL    HW162757   7.779  10.241   4.184 -1.8764  0.2300  1.5145
20073SOL    HW262758   7.824  10.097   4.173 -2.2789  0.2366 -0.3218
20074SOL     OW62759   3.091   6.506   9.045 -0.1189  0.0709  0.5460
20074SOL    HW162760   3.138   6.426   9.067  1.5417  1.4054  2.0083
20074SOL    HW262761   3.136   6.541   8.968 -0.4215 -0.0633  0.3088
20075SOL     OW62762   4.257   0.193   4.929 -0.4028 -0.4712  0.0951
20075SOL    HW162763   4.210   0.158   5.005 -1.0356  2.1918  1.0021
20075SOL    HW262764   4.264   0.287   4.948  1.4993 -0.1624 -2.0625
20076SOL     OW62765   9.509   9.100   9.101 -0.7769  0.4309 -0.4813
20076SOL    HW162766   9.563   9.114   9.023  0.6970 -0.7206  0.3280
20076SOL    HW262767   9.440   9.040   9.072 -0.4404  0.2938 -0.9973
20077SOL     OW62768   5.824   4.769   7.243  0.7242 -0.7069  0.1506
20077SOL    HW162769   5.871   4.715   7.179 -0.1059  0.1064 -1.1535
20077SOL    HW262770   5.868   4.854   7.240  0.0070 -0.3435 -0.1202
20078SOL     OW62771   3.978   9.676   2.638 -0.2505 -0.6556 -0.6005
20078SOL    HW162772   4.056   9.621   2.630 -1.1738 -1.7068 -2.8948
20078SOL    HW262773   3.906   9.618   2.613 -1.6363  0.6366  0.3572
20079SOL     OW62774   6.039   1.912   3.744 -0.2562  0.6358 -0.0681
20079SOL    HW162775   5.963   1.959   3.708 -0.8952 -1.1397 -1.0829
20079SOL    HW262776   6.036   1.826   3.703  1.6536  0.1296  0.7817
20080SOL     OW62777   1.325   6.404   6.741 -0.4897  0.4875  0.0555
20080SOL    HW162778   1.242   6.390   6.788 -0.3822  2.4138  0.8413
20080SOL    HW262779   1.351   6.493   6.764  0.1759  1.0468 -2.7239
20081SOL     OW62780   8.853   5.561   1.912  0.1384  0.2032  0.2194
20081SOL    HW162781   8.851   5.655   1.926 -1.2476 -0.1397  2.4534
20081SOL    HW262782   8.940   5.544   1.875  0.0586  2.4476 -1.0498
20082SOL     OW62783   8.417   0.274   5.378 -0.0082 -0.3259  0.0824
20082SOL    HW162784   8.421   0.273   5.474 -1.6589 -0.7722  0.1612
20082SOL    HW262785   8.431   0.366   5.356 -2.0016  0.2011  0.8986
20083SOL     OW62786   4.058   2.898   5.807  0.0500 -0.0020 -0.1857
20083SOL    HW162787   4.090   2.986   5.829  2.2787 -0.4248 -1.5870
20083SOL    HW262788   4.093   2.842   5.876  0.9560 -0.2103 -0.8112
20084SOL     OW62789   4.399   1.408   2.817  0.1143  0.1747  0.1382
20084SOL    HW162790   4.480   1.458   2.829 -0.8192  1.9139 -0.6260
20084SOL    HW262791   4.331   1.462   2.859 -1.0799  0.0761 -1.6312
20085SOL     OW62792   2.771   7.087   6.091 -0.0937 -0.2184 -0.3162
20085SOL    HW162793   2.843   7.073   6.030  1.2297  3.4247  0.2877
20085SOL    HW262794   2.706   7.137   6.040 -0.8254 -0.7536  0.0724
20086SOL     OW62795   9.914   2.918   1.835  0.2953  0.6095 -0.3707
20086SOL    HW162796   9.956   2.999   1.807 -0.7616  0.9770 -0.9097
20086SOL    HW262797   9.879   2.938   1.922  1.0224  0.3795 -0.0256
20087SOL     OW62798   2.110   1.991   3.264  0.0524 -0.3639  0.4297
20087SOL    HW162799   2.199   1.958   3.251 -0.7304 -1.8983 -1.4018
20087SOL    HW262800   2.069   1.927   3.323 -0.2930 -0.5071  0.0374
20088SOL     OW62801   8.832   6.035   0.306 -0.2278 -0.6644 -0.0338
20088SOL    HW162802   8.771   5.996   0.369 -1.7663  0.1240 -0.9910
20088SOL    HW262803   8.777   6.092   0.252  1.1297 -0.9634 -1.7964
20089SOL     OW62804   9.851   5.766   3.134 -0.4503 -0.1798  0.7277
20089SOL    HW162805   9.895   5.849   3.117 -0.8059 -0.5142 -2.0544
20089SOL    HW262806   9.765   5.790   3.167 -0.1911  0.5622  0.8511
20090SOL     OW62807   5.397   0.723   9.642  0.0020  0.1848  0.3057
20090SOL    HW162808   5.312   0.763   9.660  0.2137 -0.0774  1.9521
20090SOL    HW262809   5.448   0.736   9.722  2.2014  2.0344 -1.3099
20091SOL     OW62810  10.085   0.847   7.942  0.2139 -0.1374 -0.3900
20091SOL    HW162811  10.100   0.898   8.022  0.0602  0.7856 -0.9496
20091SOL    HW262812  10.124   0.761   7.961 -0.8378 -0.3038  1.1078
20092SOL     OW62813   7.013   4.962   3.949  0.2217  0.0630  0.0683
20092SOL    HW162814   6.982   5.052   3.941  0.3085  0.1000  0.1356
20092SOL    HW262815   7.103   4.965   3.917 -0.5506 -0.4762 -2.2090
20093SOL     OW62816   4.002   9.031   1.512 -0.5035  0.0958  0.6236
20093SOL    HW162817   3.999   8.944   1.551  1.4245 -0.7053 -0.9544
20093SOL    HW262818   4.095   9.048   1.496 -0.9115  2.1179  0.2025
20094SOL     OW62819   3.730   0.859   5.980  0.5871 -0.2108 -0.9229
20094SOL    HW162820   3.726   0.832   5.889  0.3528  0.5506 -1.1457
20094SOL    HW262821   3.754   0.952   5.976 -1.2707  0.3143 -0.2894
20095SOL     OW62822   2.046   5.883   1.136 -0.5515  0.1869 -0.1894
20095SOL    HW162823   2.020   5.892   1.227 -0.0793  2.1676 -0.2159
20095SOL    HW262824   1.967   5.856   1.090 -0.6505 -1.4003  0.8784
20096SOL     OW62825   0.477   0.180   7.343 -0.0625  0.4316 -0.4621
20096SOL    HW162826   0.433   0.100   7.368 -0.8737  0.7551 -0.8318
20096SOL    HW262827   0.425   0.214   7.270  2.0522 -0.3415 -2.4057
20097SOL     OW62828   7.837   6.753   4.879  0.1599 -0.1762 -0.2148
20097SOL    HW162829   7.915   6.808   4.872  1.6230 -1.9970  1.2615
20097SOL    HW262830   7.764   6.812   4.859  1.8742  1.6059 -1.4114
20098SOL     OW62831   1.005   5.497   7.621 -0.1413 -0.5720 -0.7475
20098SOL    HW162832   0.945   5.424   7.637  0.6844 -1.1672 -0.3158
20098SOL    HW262833   1.060   5.501   7.700 -1.5394  1.8591  0.1518
20099SOL     OW62834   8.060   9.947   3.105  0.0443  0.1304  0.3064
20099SOL    HW162835   7.999   9.992   3.046  1.4539  0.0451 -1.2428
20099SOL    HW262836   8.116  10.017   3.138 -0.8977  0.2180  1.7985
20100SOL     OW62837   5.267   2.002   9.804  0.6025 -0.1420 -0.1869
20100SOL    HW162838   5.201   2.027   9.868 -0.2948  0.6520 -1.3889
20100SOL    HW262839   5.312   2.084   9.782  1.1376 -0.4649 -0.3248
20101SOL     OW62840   7.237   3.164   6.506  0.0729 -0.1517 -0.0458
20101SOL    HW162841   7.183   3.239   6.530 -0.2344 -0.7080  1.0581
20101SOL    HW262842   7.255   3.120   6.589  1.9709 -0.1567 -0.4258
20102SOL     OW62843   0.856   9.970   9.059 -0.1914  0.1043  0.3693
20102SOL    HW162844   0.950   9.987   9.049 -0.4175  1.2843  0.2168
20102SOL    HW262845   0.824  10.043   9.111 -1.5308  1.1337 -1.8730
20103SOL     OW62846   4.695   9.732   9.648  0.0153  0.3739 -0.0992
20103SOL    HW162847   4.774   9.694   9.685 -1.2704 -1.1934  1.1327
20103SOL    HW262848   4.678   9.681   9.569 -0.0473  0.3803 -0.0904
20104SOL     OW62849   0.973   9.210   7.735  0.2540  0.1004  0.6264
20104SOL    HW162850   0.978   9.297   7.775  2.5339 -0.6706  2.0666
20104SOL    HW262851   0.949   9.152   7.807 -0.8992 -0.5456 -0.2583
20105SOL     OW62852   7.976   2.810   3.389  0.0829  0.0046  0.9662
20105SOL    HW162853   7.987   2.716   3.374 -1.4709 -0.2513  1.3892
20105SOL    HW262854   8.056   2.849   3.354 -0.3486 -1.2397 -1.5225
20106SOL     OW62855   0.836   3.130   4.900 -0.2492  0.3669  0.1155
20106SOL    HW162856   0.899   3.083   4.954 -0.8937 -0.3766  0.2443
20106SOL    HW262857   0.755   3.079   4.908 -0.0741 -0.3536 -2.4033
20107SOL     OW62858   6.812   0.575   5.829 -0.1618 -0.2666 -0.1159
20107SOL    HW162859   6.813   0.643   5.761  2.8191  1.1023  1.2250
20107SOL    HW262860   6.721   0.572   5.858 -0.4047  3.0097 -0.3620
20108SOL     OW62861   0.905   2.858   7.606 -0.3733  0.1785 -0.4414
20108SOL    HW162862   0.875   2.858   7.515 -0.3582 -0.4514 -0.4491
20108SOL    HW262863   0.984   2.912   7.606 -0.2943  0.0645 -0.8323
20109SOL     OW62864   6.828   0.085   8.744 -0.3368  0.5456 -0.8667
20109SOL    HW162865   6.890   0.143   8.788  0.7862 -1.1433 -0.1613
20109SOL    HW262866   6.742   0.115   8.773  0.3412 -0.0433  1.8978
20110SOL     OW62867   1.302   2.026   8.337  0.0410  0.7693  0.2673
20110SOL    HW162868   1.328   2.051   8.426  0.6003 -1.8929  0.8981
20110SOL    HW262869   1.354   2.084   8.280 -0.4552  2.6165  1.6421
20111SOL     OW62870   5.148   1.694   1.622  0.0217 -0.2093  0.1047
20111SOL    HW162871   5.092   1.686   1.545 -1.1642  2.0047  0.6898
20111SOL    HW262872   5.206   1.768   1.602 -0.3706  0.4632  1.3392
20112SOL     OW62873  10.077   0.882   3.189 -0.4372 -0.0179  0.1269
20112SOL    HW162874  10.065   0.794   3.223 -0.1485 -0.1583 -0.1331
20112SOL    HW262875  10.001   0.896   3.132  0.5208 -0.8478 -1.3937
20113SOL     OW62876   3.007   9.982   1.513  0.4020  0.0578  0.1472
20113SOL    HW162877   2.988  10.017   1.600  1.7205 -0.7181  0.7630
20113SOL    HW262878   2.996  10.057   1.454  1.0209  0.9795  1.1857
20114SOL     OW62879   6.301   1.980   5.535  0.1758 -0.0485 -0.5931
20114SOL    HW162880   6.274   1.889   5.548  3.1290 -0.6865  1.4970
20114SOL    HW262881   6.392   1.974   5.507  1.1017  2.3263  1.7305
20115SOL     OW62882   1.386   2.008   9.362 -0.3438 -0.1884 -0.1731
20115SOL    HW162883   1.350   2.032   9.447  0.2051 -1.2858  0.3735
20115SOL    HW262884   1.312   2.015   9.302 -0.9172 -0.1427  0.5277
20116SOL     OW62885   2.865   2.912   3.683 -0.2948  0.1933 -0.0540
20116SOL    HW162886   2.932   2.968   3.723  1.6528 -1.2134 -1.2732
20116SOL    HW262887   2.783   2.938   3.726  0.7914  2.9587  0.4329
20117SOL     OW62888   2.328   5.540   9.514 -0.0958 -0.8335  0.3251
20117SOL    HW162889   2.306   5.609   9.577  0.2394 -1.3391  1.0059
20117SOL    HW262890   2.297   5.459   9.556 -0.2536 -1.1225 -0.3513
20118SOL     OW62891   0.141   2.022   2.375  0.1653  1.3245 -0.2414
20118SOL    HW162892   0.176   2.082   2.441 -2.1821  1.8800  0.5337
20118SOL    HW262893   0.152   2.069   2.292 -0.3765  2.2517  0.2000
20119SOL     OW62894   1.621   2.379   9.770  0.5074 -0.2463 -0.1385
20119SOL    HW162895   1.621   2.467   9.732 -1.7159 -0.6153 -1.0959
20119SOL    HW262896   1.627   2.320   9.695  2.3607 -0.9330  0.5231
20120SOL     OW62897   0.660   9.926   4.416 -0.0477 -0.2103  0.7194
20120SOL    HW162898   0.652   9.953   4.507 -0.3460 -0.0438  0.6433
20120SOL    HW262899   0.575   9.947   4.376  0.2845  0.2828  0.2570
20121SOL     OW62900   4.070   8.811   5.371 -0.1318 -0.4959 -0.1288
20121SOL    HW162901   4.145   8.843   5.321 -1.5010  1.8309 -0.7726
20121SOL    HW262902   4.075   8.857   5.455  0.3261 -1.9437  0.6603
20122SOL     OW62903   8.294   3.744   7.729  0.3240 -0.3970  0.0397
20122SOL    HW162904   8.360   3.726   7.796 -0.3865 -0.5691  0.6972
20122SOL    HW262905   8.265   3.657   7.700 -0.6595 -0.3261  0.7900
20123SOL     OW62906   8.937   4.892   9.778  0.2754 -0.3348  0.1736
20123SOL    HW162907   8.883   4.870   9.702  0.3526  0.2628 -0.0559
20123SOL    HW262908   8.894   4.850   9.851 -0.9581  0.8020  0.1174
20124SOL     OW62909   1.946   9.871   7.868 -0.1761 -0.4697 -0.6457
20124SOL    HW162910   1.936   9.895   7.960  1.5766 -3.4878  0.4335
20124SOL    HW262911   2.012   9.931   7.834  1.1749 -1.0425  0.8689
20125SOL     OW62912   2.568   0.439   5.981  0.0963 -0.5139 -0.1237
20125SOL    HW162913   2.638   0.427   5.917  0.9785 -0.4000  0.8213
20125SOL    HW262914   2.515   0.510   5.944  0.7132 -0.3053 -0.6258
20126SOL     OW62915   1.628   7.809   2.581 -0.2074  0.0761  0.2742
20126SOL    HW162916   1.550   7.755   2.565  1.7026 -2.3888 -1.0088
20126SOL    HW262917   1.682   7.798   2.503  0.5107  3.4736  0.2174
20127SOL     OW62918   4.302   7.129   3.691 -0.4413 -0.0001 -0.8446
20127SOL    HW162919   4.273   7.104   3.779  2.1955  0.0219  0.0828
20127SOL    HW262920   4.236   7.192   3.661  0.2463  2.4909  2.4562
20128SOL     OW62921   1.664   0.150   7.720 -0.1020 -0.6694 -0.2472
20128SOL    HW162922   1.613   0.076   7.687 -1.6522 -1.0544  2.8731
20128SOL    HW262923   1.606   0.225   7.710  1.2714  0.1223 -2.9017
20129SOL     OW62924   8.620   2.006   1.210  0.1817  0.1831 -0.7080
20129SOL    HW162925   8.698   2.051   1.178  1.1623 -1.5645 -0.7921
20129SOL    HW262926   8.641   1.913   1.204 -1.0009 -0.2736  1.4966
20130SOL     OW62927   0.904   8.663   7.967  0.0489  0.2598 -0.4738
20130SOL    HW162928   0.969   8.728   7.940  1.3290 -0.6331  0.4175
20130SOL    HW262929   0.875   8.623   7.885  0.4664  0.8047 -0.8916
20131SOL     OW62930   1.495   2.122   6.371  0.2080  0.1465  0.0417
20131SOL    HW162931   1.553   2.192   6.400 -0.9541  1.4780 -0.7815
20131SOL    HW262932   1.471   2.146   6.281  1.0073 -2.1033 -0.8186
20132SOL     OW62933   2.514   6.110   5.947 -0.8328 -0.2214 -0.7286
20132SOL    HW162934   2.507   6.205   5.960  2.8397  0.4196 -2.7643
20132SOL    HW262935   2.524   6.099   5.853 -0.2556 -2.5512 -0.4249
20133SOL     OW62936   3.959   7.980   6.518 -0.3775  0.3211 -0.1073
20133SOL    HW162937   4.022   7.933   6.464 -0.0605  1.7104 -0.9590
20133SOL    HW262938   3.874   7.945   6.491 -0.1926  0.7579 -1.2498
20134SOL     OW62939   3.203   2.303   9.675 -0.4368 -0.5514 -0.0466
20134SOL    HW162940   3.182   2.316   9.768 -2.2510  0.2912 -0.5560
20134SOL    HW262941   3.218   2.391   9.640  1.0883 -0.9286 -0.3758
20135SOL     OW62942   0.243   7.745   2.602 -0.1738 -0.3622  0.2343
20135SOL    HW162943   0.281   7.784   2.680  1.7377 -1.3198 -0.1785
20135SOL    HW262944   0.317   7.700   2.559 -1.7377 -2.1090 -0.6948
20136SOL     OW62945   3.334   1.535   6.946  0.5394 -0.1247 -0.7793
20136SOL    HW162946   3.309   1.507   6.858  1.6054 -3.5388 -0.0951
20136SOL    HW262947   3.417   1.580   6.934  1.0038 -1.1414 -1.4880
20137SOL     OW62948   9.685   8.074   1.104 -0.1538  0.2212 -0.2649
20137SOL    HW162949   9.700   8.163   1.071  1.7186  0.6547  1.5984
20137SOL    HW262950   9.756   8.022   1.066  0.5151  0.1853  0.9926
20138SOL     OW62951   1.901   4.816   5.715  0.2018  0.3593 -0.0066
20138SOL    HW162952   1.912   4.877   5.787  0.4633 -0.0708  0.3197
20138SOL    HW262953   1.850   4.743   5.752 -0.7973  0.7384 -0.5961
20139SOL     OW62954   5.237   3.274   2.852 -0.4842  0.1840 -0.0752
20139SOL    HW162955   5.187   3.236   2.780 -0.3986 -2.7051  1.3154
20139SOL    HW262956   5.173   3.287   2.922  0.4222 -2.7537  1.4176
20140SOL     OW62957   1.712   3.875   5.916  0.8386 -0.7725 -0.4010
20140SOL    HW162958   1.697   3.952   5.861  1.3737 -0.2078  0.2309
20140SOL    HW262959   1.763   3.816   5.861  1.7097 -0.0425 -0.3897
20141SOL     OW62960   8.400   3.279   8.148  0.1968 -0.0072 -0.4395
20141SOL    HW162961   8.492   3.266   8.126  0.9121 -1.3291  2.9853
20141SOL    HW262962   8.353   3.216   8.093  1.2778  0.9555 -2.5000
20142SOL     OW62963   8.491   4.586   8.258 -0.3654 -0.3586  0.2431
20142SOL    HW162964   8.480   4.574   8.163  0.8855 -0.8360  0.1474
20142SOL    HW262965   8.525   4.502   8.288 -0.7828 -0.2122  1.1255
20143SOL     OW62966   0.212   6.329   3.818  0.3109 -0.0276  0.4447
20143SOL    HW162967   0.183   6.412   3.782  2.4126  0.6904  0.3268
20143SOL    HW262968   0.244   6.351   3.906  1.4411 -0.5933  0.1811
20144SOL     OW62969   2.922   9.520   6.021 -0.3794  0.1064 -0.1603
20144SOL    HW162970   2.831   9.545   6.035  0.0323  1.5903 -0.0640
20144SOL    HW262971   2.953   9.579   5.952  0.5023 -0.3844 -0.1900
20145SOL     OW62972   9.655   0.515   5.991 -0.8703  0.2417 -0.2654
20145SOL    HW162973   9.680   0.436   5.944 -0.8873  1.2000 -1.8989
20145SOL    HW262974   9.595   0.561   5.932 -0.0598  1.9952  0.2313
20146SOL     OW62975   9.398   7.242   1.043 -0.6280 -0.3038  0.2591
20146SOL    HW162976   9.407   7.221   0.950 -0.4994 -1.0339  0.4273
20146SOL    HW262977   9.487   7.266   1.070 -0.4362 -1.1778  0.4390
20147SOL     OW62978   1.265   9.667   3.229  0.2699  0.2345 -0.1252
20147SOL    HW162979   1.252   9.719   3.150  1.8068  2.2161  0.8628
20147SOL    HW262980   1.322   9.722   3.284 -0.2725 -1.3581  2.0810
20148SOL     OW62981   2.509   2.536   5.481  0.2648 -0.1886  0.0174
20148SOL    HW162982   2.494   2.578   5.566 -1.1041 -0.6150 -0.0089
20148SOL    HW262983   2.587   2.580   5.446  0.1618  0.7807  0.9797
20149SOL     OW62984   9.152   2.390   7.703  0.8065 -0.1705 -0.3819
20149SOL    HW162985   9.119   2.326   7.765  0.5341 -0.3859 -0.7477
20149SOL    HW262986   9.245   2.399   7.725  0.8663 -0.7527 -0.3876
20150SOL     OW62987   7.511   8.450   6.177  0.6429 -0.6129 -0.2982
20150SOL    HW162988   7.497   8.379   6.114  1.0307 -0.5725 -0.4347
20150SOL    HW262989   7.514   8.529   6.122  1.2451 -0.6041 -0.2621
20151SOL     OW62990   3.158   5.728   0.902 -0.1928 -0.1125 -0.1747
20151SOL    HW162991   3.219   5.733   0.829 -0.0433 -0.8591 -0.1092
20151SOL    HW262992   3.183   5.648   0.949 -1.9453 -1.0648 -0.8026
20152SOL     OW62993   4.678   8.623   7.616  0.1916 -0.4044 -0.0006
20152SOL    HW162994   4.763   8.666   7.625  0.2637 -0.4315 -0.5252
20152SOL    HW262995   4.689   8.565   7.540 -0.4284 -0.0730 -0.3470
20153SOL     OW62996   6.384   6.552   2.907  0.3948  0.6563  0.2422
20153SOL    HW162997   6.427   6.634   2.882  0.1199  0.5882 -0.4947
20153SOL    HW262998   6.438   6.516   2.976  0.1283  1.8177  1.0737
20154SOL     OW62999   0.483   7.383   4.303  0.0227  0.1355  0.0109
20154SOL    HW163000   0.392   7.363   4.279 -0.5881  1.4222  1.1912
20154SOL    HW263001   0.528   7.392   4.220 -1.2038  0.6681 -0.6121
20155SOL     OW63002   8.127   0.553   7.048  0.3282  0.2731  0.1057
20155SOL    HW163003   8.112   0.548   7.142 -0.4474  0.7312  0.0085
20155SOL    HW263004   8.069   0.623   7.018  0.6338  0.1869 -0.7000
20156SOL     OW63005   3.291   3.778   9.557  0.4396 -0.5659  0.4708
20156SOL    HW163006   3.218   3.731   9.518 -0.8301  0.5599  1.4318
20156SOL    HW263007   3.363   3.715   9.559 -0.5686 -1.7539 -0.2753
20157SOL     OW63008  10.038   6.721   3.859  0.3441  0.0274  0.2647
20157SOL    HW163009   9.947   6.744   3.840  0.1447  0.3962  1.6675
20157SOL    HW263010  10.070   6.683   3.776 -1.0778 -0.1326 -0.2351
20158SOL     OW63011   9.669   7.780   3.370  0.0272 -0.5145  0.0331
20158SOL    HW163012   9.644   7.806   3.459  0.9834 -0.8342  0.3941
20158SOL    HW263013   9.761   7.756   3.376  0.6603  1.3619 -1.4612
20159SOL     OW63014   8.897   6.886   1.924 -0.1648 -0.0133  0.3497
20159SOL    HW163015   8.908   6.817   1.989 -1.8968 -0.7445 -0.1087
20159SOL    HW263016   8.878   6.840   1.842  0.1255  0.9593 -0.2870
20160SOL     OW63017   8.244   0.224   6.757 -0.0605 -0.3582  0.5962
20160SOL    HW163018   8.162   0.232   6.708  0.3402 -0.6689 -0.1329
20160SOL    HW263019   8.221   0.251   6.846 -1.2240 -1.4887  0.6590
20161SOL     OW63020   7.296   6.765   0.501 -0.3626  0.4342 -0.2615
20161SOL    HW163021   7.309   6.766   0.596 -1.3369  1.0812 -0.1332
20161SOL    HW263022   7.215   6.716   0.489  1.2068 -2.1070 -0.9519
20162SOL     OW63023   2.753   4.418   1.050  0.0817 -0.4389 -0.5210
20162SOL    HW163024   2.845   4.424   1.025  0.3582 -0.1612  0.5323
20162SOL    HW263025   2.749   4.345   1.112 -0.3695 -0.3320 -0.4207
20163SOL     OW63026   1.504   5.949   7.242  0.8982  0.0510 -0.1480
20163SOL    HW163027   1.599   5.957   7.246  0.8708  0.5159 -0.4355
20163SOL    HW263028   1.483   5.884   7.310  1.2148  1.6704  1.5504
20164SOL     OW63029   2.548   7.124   4.884 -0.5438 -0.7042  0.0829
20164SOL    HW163030   2.457   7.131   4.913 -1.0700 -1.7567 -1.2135
20164SOL    HW263031   2.547   7.049   4.824  1.4184 -1.4487  0.9597
20165SOL     OW63032   3.454   8.935   0.276 -0.3365 -0.4115  0.0357
20165SOL    HW163033   3.500   8.856   0.305  1.1758  1.7071  3.7522
20165SOL    HW263034   3.512   8.974   0.210  1.0683 -0.1374  1.4084
20166SOL     OW63035   8.893   6.475   8.436 -0.3601  0.2717 -0.0565
20166SOL    HW163036   8.830   6.405   8.419 -1.1733  0.9376  0.1755
20166SOL    HW263037   8.841   6.544   8.477 -0.1393  2.1882 -2.9030
20167SOL     OW63038   7.289   9.304   6.297 -0.1516  0.3846  0.0022
20167SOL    HW163039   7.220   9.278   6.236 -0.2644  0.9606 -0.1211
20167SOL    HW263040   7.370   9.297   6.246  0.1078 -2.1362  0.7068
20168SOL     OW63041   3.565  10.062   1.329  0.1323 -0.5510 -0.0859
20168SOL    HW163042   3.514  10.136   1.295  0.9429 -0.0477 -0.2053
20168SOL    HW263043   3.625  10.100   1.392  2.2527 -0.7355 -1.9346
20169SOL     OW63044   5.507   3.063   2.588 -0.3064  0.3409 -0.0594
20169SOL    HW163045   5.419   3.028   2.576  0.0265  0.5644 -3.8982
20169SOL    HW263046   5.494   3.151   2.622 -1.6698  0.7976 -1.6827
20170SOL     OW63047   5.326   3.946   0.200 -0.0722  0.1845  0.2232
20170SOL    HW163048   5.271   3.920   0.273  1.1670 -1.9097  0.4647
20170SOL    HW263049   5.320   4.041   0.198 -1.6727  0.1490  1.8042
20171SOL     OW63050   0.640   6.733   1.735  0.1159 -0.7482  0.1868
20171SOL    HW163051   0.545   6.746   1.732 -0.0886 -2.0677  0.5656
20171SOL    HW263052   0.669   6.781   1.813 -0.4012 -1.2697  0.7036
20172SOL     OW63053   2.996   7.136   9.764 -0.4977  0.3730 -0.1060
20172SOL    HW163054   3.035   7.149   9.851  0.6816 -0.2926 -0.5225
20172SOL    HW263055   2.962   7.046   9.767 -1.4978  0.7503  0.0538
20173SOL     OW63056   5.255   9.649   4.100  0.1331  0.0272  0.2742
20173SOL    HW163057   5.190   9.671   4.033  0.3113  0.4621  0.2450
20173SOL    HW263058   5.211   9.668   4.183  0.2731  0.4472  0.2501
20174SOL     OW63059   8.549   0.413   5.107 -0.2322  0.0638  0.2157
20174SOL    HW163060   8.605   0.423   5.029  0.6651 -0.3156  0.8004
20174SOL    HW263061   8.503   0.331   5.092 -0.3051  0.1540 -0.0705
20175SOL     OW63062   5.977   0.151   5.719  0.2021 -0.5795 -0.3121
20175SOL    HW163063   5.949   0.122   5.805  0.2656  2.1620  0.6726
20175SOL    HW263064   5.896   0.169   5.672  0.1904 -0.5607 -0.2845
20176SOL     OW63065   5.316   7.254   3.958 -0.0430  0.1132  0.2462
20176SOL    HW163066   5.353   7.291   4.039  1.7926  0.9266 -0.9091
20176SOL    HW263067   5.260   7.324   3.924  1.4311  0.9176 -0.6199
20177SOL     OW63068   7.949   9.754   3.930  0.0207 -0.0656 -0.4714
20177SOL    HW163069   8.038   9.777   3.955  0.1543 -1.7403  0.7437
20177SOL    HW263070   7.897   9.773   4.008 -0.5503  0.1729 -0.9114
20178SOL     OW63071   8.322   4.881   6.624 -0.0065 -0.9422  0.2387
20178SOL    HW163072   8.284   4.967   6.607  0.5055 -0.8322 -0.3872
20178SOL    HW263073   8.250   4.830   6.662 -0.5090 -0.4512 -0.0386
20179SOL     OW63074   2.930   0.539   5.068  0.4230 -0.2233 -0.6659
20179SOL    HW163075   2.923   0.634   5.077  0.8716 -0.2599  0.0694
20179SOL    HW263076   3.002   0.526   5.007  2.6181 -0.1558  1.8165
20180SOL     OW63077   8.977   8.289   0.453  0.6709  0.4099 -0.1960
20180SOL    HW163078   8.948   8.336   0.375 -1.0054  3.0689  1.9601
20180SOL    HW263079   9.055   8.242   0.424  2.2912  4.3045 -2.5962
20181SOL     OW63080   6.393   8.780   3.272 -0.1735 -0.3831  0.1957
20181SOL    HW163081   6.476   8.801   3.313 -0.3464 -0.6945  0.7097
20181SOL    HW263082   6.341   8.860   3.279  0.5145  0.2051 -1.2259
20182SOL     OW63083   3.314   0.704   3.475  0.3629 -0.3003  0.4722
20182SOL    HW163084   3.310   0.608   3.475  2.0129 -0.3978 -0.8280
20182SOL    HW263085   3.234   0.732   3.518  0.0050 -2.2825  1.1219
20183SOL     OW63086   6.616   2.229   9.159 -0.6172  0.0698 -1.1176
20183SOL    HW163087   6.602   2.219   9.253 -0.9886  0.1517 -1.1631
20183SOL    HW263088   6.584   2.317   9.139  1.4772  0.9040 -0.9380
20184SOL     OW63089   8.748   0.390   0.793  0.0596  0.7941  0.0736
20184SOL    HW163090   8.740   0.448   0.869  3.1433  0.7598  0.4518
20184SOL    HW263091   8.677   0.418   0.735 -0.2642  3.0407  1.4712
20185SOL     OW63092   4.915   5.802   6.955 -0.6362 -0.3170  0.1094
20185SOL    HW163093   4.850   5.811   6.887 -2.8737 -0.4622  2.1694
20185SOL    HW263094   4.890   5.866   7.022  2.2282  0.7293  0.2711
20186SOL     OW63095   1.366   8.814   8.783  0.0219 -0.1422 -0.0224
20186SOL    HW163096   1.315   8.828   8.862 -0.2497  0.2444 -0.2651
20186SOL    HW263097   1.373   8.900   8.742  1.4065 -0.0820  0.3252
20187SOL     OW63098   0.809   6.004   7.912  0.0976 -0.2362 -0.0126
20187SOL    HW163099   0.859   5.925   7.894  1.5314  0.9814 -1.4225
20187SOL    HW263100   0.719   5.981   7.888  0.2629 -1.8408  0.8223
20188SOL     OW63101   1.107   8.015   2.840  0.1805 -0.5362  0.0985
20188SOL    HW163102   1.057   8.071   2.900 -2.4370 -2.3721 -0.2525
20188SOL    HW263103   1.110   8.065   2.759  1.1788  0.7079  0.8818
20189SOL     OW63104   7.358   7.596   1.570 -0.2929 -0.1904 -0.2668
20189SOL    HW163105   7.312   7.561   1.493  0.4536  0.1866 -0.8947
20189SOL    HW263106   7.437   7.637   1.534  0.1818 -0.2117  0.7259
20190SOL     OW63107   8.689   5.631   5.355 -0.4816 -0.3151  0.2519
20190SOL    HW163108   8.689   5.625   5.451  0.7903 -0.7692  0.2408
20190SOL    HW263109   8.603   5.601   5.329 -0.6965 -0.5823  1.2394
20191SOL     OW63110   7.863   0.175   9.619 -0.0628 -0.1618  0.3394
20191SOL    HW163111   7.792   0.171   9.554  0.8066 -0.3220 -0.6164
20191SOL    HW263112   7.835   0.242   9.681 -0.2717  0.9870 -0.9826
20192SOL     OW63113   8.900   9.712   8.314 -0.3472 -0.1334  0.3010
20192SOL    HW163114   8.820   9.761   8.330 -1.3235 -1.4076 -0.6294
20192SOL    HW263115   8.966   9.780   8.298 -1.4495  0.9069  0.0745
20193SOL     OW63116   9.258   6.955   9.758  0.0141 -0.1193 -0.6315
20193SOL    HW163117   9.185   6.894   9.741  0.1736 -0.0092 -1.7606
20193SOL    HW263118   9.311   6.951   9.678  1.0522  0.0732  0.0473
20194SOL     OW63119   3.449   6.453   6.651  0.0173  0.1500 -0.4935
20194SOL    HW163120   3.507   6.379   6.670  0.2928  0.3214 -0.6626
20194SOL    HW263121   3.440   6.452   6.556  0.8067  0.9200 -0.5897
20195SOL     OW63122   5.597   3.819   7.100  0.1247  0.0571 -0.1320
20195SOL    HW163123   5.634   3.890   7.047  0.0745 -0.1737 -0.4734
20195SOL    HW263124   5.643   3.827   7.184  1.9938 -1.1140 -1.0190
20196SOL     OW63125   1.573   3.958   4.225  0.7219 -0.4847  0.8505
20196SOL    HW163126   1.493   4.008   4.239  0.7617 -0.3552  0.6171
20196SOL    HW263127   1.572   3.891   4.293  0.2134 -0.7320  0.5969
20197SOL     OW63128   5.030   2.281   0.595  0.7699  0.2811  0.1332
20197SOL    HW163129   5.018   2.274   0.690  1.2283  1.8271  0.3333
20197SOL    HW263130   5.107   2.338   0.586  0.8848 -0.0805 -1.1582
20198SOL     OW63131   0.824   1.583   1.753  0.0649  0.2832 -0.2761
20198SOL    HW163132   0.762   1.652   1.778  0.8990  0.4879  1.3193
20198SOL    HW263133   0.909   1.617   1.781  0.6680 -0.7704 -0.8200
20199SOL     OW63134   6.456   8.360   4.912 -0.0144 -0.6867  0.1358
20199SOL    HW163135   6.390   8.330   4.850  0.7835  2.9364 -2.6660
20199SOL    HW263136   6.537   8.316   4.885 -0.4639 -2.2656  1.2595
20200SOL     OW63137   7.114   7.344   9.096 -0.1494 -0.1936  0.5051
20200SOL    HW163138   7.181   7.296   9.046  0.1854  2.0528 -1.2726
20200SOL    HW263139   7.156   7.364   9.179  0.3458 -1.3704  0.5549
20201SOL     OW63140   6.199   9.531  10.130  0.2940  0.0209  0.2517
20201SOL    HW163141   6.130   9.465  10.130  0.8219 -0.5501 -0.8160
20201SOL    HW263142   6.197   9.568  10.219 -2.1329  0.8458 -0.1210
20202SOL     OW63143   0.529   7.903   2.536 -0.1444 -0.0442 -0.0770
20202SOL    HW163144   0.541   7.850   2.456  0.7220 -0.3720  0.2616
20202SOL    HW263145   0.447   7.950   2.521 -1.6726 -2.5284  0.1882
20203SOL     OW63146   0.081   6.754   6.185  0.1497 -0.6583 -0.2833
20203SOL    HW163147   0.032   6.826   6.146 -0.3526 -0.7574  0.1504
20203SOL    HW263148   0.170   6.766   6.154 -0.2431 -0.7490 -1.4624
20204SOL     OW63149   0.026   9.657   4.737  0.4227  0.1060  0.3160
20204SOL    HW163150   0.055   9.598   4.668  0.2451 -0.4419  0.7015
20204SOL    HW263151   0.004   9.739   4.692 -1.9400 -0.9827 -0.6177
20205SOL     OW63152   0.583   1.686   4.378 -0.2615  0.1787 -0.5946
20205SOL    HW163153   0.602   1.725   4.463 -0.8198  1.2021 -0.9338
20205SOL    HW263154   0.570   1.593   4.398  0.7847  0.1962  0.2552
20206SOL     OW63155   2.743   3.709   7.722  0.2943  0.5222 -0.2524
20206SOL    HW163156   2.712   3.776   7.662 -1.5925 -1.0632 -1.1053
20206SOL    HW263157   2.801   3.654   7.670 -0.3266 -0.0977 -0.3055
20207SOL     OW63158  10.053   2.982   6.667  0.1189  0.4193  0.1651
20207SOL    HW163159  10.009   3.059   6.704 -0.5377 -0.6314  1.6017
20207SOL    HW263160  10.029   2.984   6.574  0.4185  2.1566  0.0989
20208SOL     OW63161   4.989   5.337   0.547 -0.2244 -0.3717 -0.1567
20208SOL    HW163162   5.038   5.335   0.630  0.7715  0.8755 -0.7013
20208SOL    HW263163   4.930   5.262   0.553  1.7119 -1.8768  0.5412
20209SOL     OW63164   5.035   7.936   1.174 -0.0755  0.3168  0.4278
20209SOL    HW163165   5.030   7.894   1.088  1.7012  1.7527 -0.4222
20209SOL    HW263166   4.955   7.988   1.180 -0.7416 -0.6685  0.1158
20210SOL     OW63167   6.531   5.773   6.045  0.1888 -0.2196  0.0174
20210SOL    HW163168   6.448   5.741   6.012 -0.8539  1.1158  1.2863
20210SOL    HW263169   6.539   5.862   6.009  0.7815 -0.1297  0.3496
20211SOL     OW63170   0.747   4.730   2.290 -0.8173  0.1481  0.1400
20211SOL    HW163171   0.789   4.668   2.348  0.6096  0.8177 -0.1608
20211SOL    HW263172   0.684   4.678   2.240 -0.8761 -0.7194  1.1153
20212SOL     OW63173   2.475   1.603   0.729 -0.1782  0.7099  0.2015
20212SOL    HW163174   2.445   1.680   0.680  0.0381 -0.0569 -1.1531
20212SOL    HW263175   2.437   1.615   0.816  0.7035  2.8643  0.3151
20213SOL     OW63176   6.273   3.484   5.501 -0.4804 -0.0878  0.0777
20213SOL    HW163177   6.294   3.399   5.462  2.3904  1.2488 -1.4799
20213SOL    HW263178   6.355   3.533   5.497 -2.0870  2.7808  0.8809
20214SOL     OW63179   4.218   6.536   0.322 -0.6341  0.1845 -0.0896
20214SOL    HW163180   4.218   6.628   0.347 -0.7205 -0.0317  0.6938
20214SOL    HW263181   4.130   6.504   0.342 -0.2316 -0.3852  0.8102
20215SOL     OW63182   2.893   9.369   8.040 -0.5255 -0.0868  0.3694
20215SOL    HW163183   2.892   9.296   7.978 -0.2327 -0.1678  0.4594
20215SOL    HW263184   2.888   9.327   8.126 -0.7301  0.0169  0.4100
20216SOL     OW63185   5.274   7.061   2.143 -0.0144 -0.0435 -0.6305
20216SOL    HW163186   5.305   7.135   2.195 -0.8635 -0.4309  0.4672
20216SOL    HW263187   5.345   7.041   2.083  1.2695 -0.0056  0.8635
20217SOL     OW63188   0.764   9.913   7.224  0.0998  0.0747  0.0260
20217SOL    HW163189   0.831   9.954   7.169  0.5447  0.0160  0.5242
20217SOL    HW263190   0.691   9.976   7.223 -0.4235 -0.5108 -1.6788
20218SOL     OW63191   6.724   5.983   8.364 -0.1942 -0.4679 -0.2301
20218SOL    HW163192   6.658   5.990   8.296  0.0745  0.6163 -0.3861
20218SOL    HW263193   6.772   5.902   8.343  0.2613  0.1631 -1.6721
20219SOL     OW63194   6.137   9.065   7.365  0.2467  0.1633  0.8521
20219SOL    HW163195   6.102   9.091   7.450  0.4696  1.9889  0.4120
20219SOL    HW263196   6.204   9.131   7.346  1.0792 -0.9576 -0.1669
20220SOL     OW63197   4.130   3.724   1.237 -0.4747  0.4830 -0.2708
20220SOL    HW163198   4.079   3.748   1.314  1.2772 -0.4643  1.2120
20220SOL    HW263199   4.222   3.738   1.263  0.2262 -1.4060 -1.6092
20221SOL     OW63200   8.514   0.169   2.087  0.1790  0.1752  0.0363
20221SOL    HW163201   8.451   0.223   2.040 -1.3248 -0.3392  1.4277
20221SOL    HW263202   8.497   0.080   2.056  0.6494  0.1106 -0.0446
20222SOL     OW63203   1.297   4.285   3.243 -0.1919  0.1667 -0.6554
20222SOL    HW163204   1.265   4.198   3.269  2.0375 -0.9319 -1.3801
20222SOL    HW263205   1.228   4.321   3.189 -0.8775 -1.4692 -0.9005
20223SOL     OW63206  10.080   8.880   7.532  0.4383 -0.3731 -0.0126
20223SOL    HW163207  10.027   8.826   7.474  0.2616 -1.0145  0.7416
20223SOL    HW263208  10.131   8.818   7.583  0.9917  0.2033  0.1426
20224SOL     OW63209   9.423   4.878   0.351  0.5544 -0.7151  0.0568
20224SOL    HW163210   9.459   4.960   0.385  0.3578 -0.9061  0.7245
20224SOL    HW263211   9.329   4.885   0.368  0.1574  0.0755 -2.2811
20225SOL     OW63212   6.487   4.152   1.201  0.3208 -0.1648  0.1005
20225SOL    HW163213   6.493   4.118   1.290  2.2762 -0.5125 -0.1387
20225SOL    HW263214   6.424   4.095   1.158  1.1173 -1.4706  0.6238
20226SOL     OW63215   3.866   4.739   9.811 -0.3607 -0.0753  0.0962
20226SOL    HW163216   3.835   4.764   9.898 -3.2273  0.1475 -0.9297
20226SOL    HW263217   3.893   4.821   9.770 -2.4535  0.3675 -0.4843
20227SOL     OW63218   6.195   4.712   3.483  0.1837 -0.7950 -0.0295
20227SOL    HW163219   6.202   4.663   3.565  0.4346 -2.8312 -1.2187
20227SOL    HW263220   6.103   4.735   3.477  0.5082  1.1183  1.7715
20228SOL     OW63221   0.912   7.760   8.105  0.3121  0.5382 -0.1663
20228SOL    HW163222   0.962   7.689   8.066 -0.9422 -0.3030 -0.2539
20228SOL    HW263223   0.977   7.812   8.152  1.1852 -0.8554  0.1859
20229SOL     OW63224   7.305   9.762   2.447  0.2544  0.5645  0.1607
20229SOL    HW163225   7.244   9.735   2.515 -0.1223 -2.1186 -1.1521
20229SOL    HW263226   7.266   9.840   2.409 -1.7878 -0.4244  0.1298
20230SOL     OW63227   8.278   3.567   8.043  0.1996  0.0899  0.2003
20230SOL    HW163228   8.235   3.598   8.123 -0.7948 -0.1947 -0.2141
20230SOL    HW263229   8.215   3.505   8.005  0.8401 -0.0780 -0.5948
20231SOL     OW63230   7.702   5.990   8.621  0.4524 -0.3226 -0.0942
20231SOL    HW163231   7.663   6.037   8.695  2.1291  1.9199 -0.5841
20231SOL    HW263232   7.628   5.969   8.565 -0.4339  0.9922  0.5571
20232SOL     OW63233   0.178   3.828   4.938  0.8069 -0.0210  0.0156
20232SOL    HW163234   0.132   3.752   4.975 -0.5633  1.5050  1.5758
20232SOL    HW263235   0.255   3.791   4.895 -0.0078 -2.3221  0.4476
20233SOL     OW63236  10.143   6.010   4.420  0.2680 -0.3705  0.5950
20233SOL    HW163237  10.146   5.918   4.394  2.5148 -0.8615  2.3642
20233SOL    HW263238  10.102   6.010   4.506 -1.4953  0.5189 -0.2312
20234SOL     OW63239   3.311   5.606   0.077  0.1590  0.1071  0.1875
20234SOL    HW163240   3.231   5.601   0.025  0.5456 -0.5002 -0.3627
20234SOL    HW263241   3.321   5.699   0.098  0.8963  0.5949 -2.2256
20235SOL     OW63242   5.433   7.546   5.399 -0.4591 -0.0660 -0.4900
20235SOL    HW163243   5.373   7.528   5.327 -1.2073 -1.0533  0.3754
20235SOL    HW263244   5.448   7.641   5.395 -0.4087 -0.1398 -2.0033
20236SOL     OW63245   7.088   2.893   1.925 -0.3086  0.4632 -0.0649
20236SOL    HW163246   7.046   2.978   1.920 -1.2487 -0.0435 -1.0079
20236SOL    HW263247   7.103   2.879   2.019 -2.0167  0.7685  0.2639
20237SOL     OW63248   2.845   9.057   8.745 -0.2569  0.3292  0.4208
20237SOL    HW163249   2.796   9.087   8.821 -0.3840  0.6801  0.2006
20237SOL    HW263250   2.911   8.997   8.780 -1.1149 -0.4733  0.6710
20238SOL     OW63251   7.180   2.696   3.725  0.2930 -0.2152  0.3757
20238SOL    HW163252   7.147   2.698   3.815  1.3604  1.5395  0.7323
20238SOL    HW263253   7.100   2.693   3.671 -0.3589 -0.7691  1.3379
20239SOL     OW63254   0.369   5.174   2.361  0.1603 -0.0687 -0.3492
20239SOL    HW163255   0.302   5.116   2.325 -0.6970  0.6784  0.0412
20239SOL    HW263256   0.436   5.115   2.395 -0.7268 -0.8314  0.0861
20240SOL     OW63257   5.359  10.068   5.833 -0.4397  0.2322 -0.0953
20240SOL    HW163258   5.417  10.034   5.901  0.2965 -0.0309 -0.8607
20240SOL    HW263259   5.381  10.018   5.755 -1.2391  0.5877 -0.5541
20241SOL     OW63260   7.236   5.704   6.234  0.2986  0.2023  0.3299
20241SOL    HW163261   7.293   5.737   6.164  0.8159  0.0974  0.6918
20241SOL    HW263262   7.169   5.771   6.245  1.1437  0.9900  0.8293
20242SOL     OW63263   8.151   6.232   9.147 -0.6439 -0.2757 -0.0283
20242SOL    HW163264   8.072   6.193   9.185 -0.7783 -0.2461 -0.2773
20242SOL    HW263265   8.135   6.326   9.150 -0.7500 -0.2809 -0.3577
20243SOL     OW63266   8.979   1.826   6.022  0.1549 -0.5891 -0.0640
20243SOL    HW163267   9.006   1.918   6.017  0.5371 -0.7247 -0.5154
20243SOL    HW263268   9.052   1.777   5.982  0.9193 -1.2604  2.0784
20244SOL     OW63269   8.914   3.089   4.911  0.2141  0.1676 -0.6322
20244SOL    HW163270   8.851   3.056   4.974 -0.2890 -2.1010 -2.2522
20244SOL    HW263271   8.988   3.029   4.916  0.5086  0.4310 -1.6226
20245SOL     OW63272   8.794   7.310   9.561 -0.3997 -0.4203  0.0592
20245SOL    HW163273   8.718   7.330   9.506  0.5587  0.0770 -1.1147
20245SOL    HW263274   8.858   7.275   9.500  0.2218 -1.0705  1.0870
20246SOL     OW63275   5.538   7.192   5.428 -0.2959  0.6727 -0.0777
20246SOL    HW163276   5.630   7.181   5.454 -0.7042  1.2149  1.6359
20246SOL    HW263277   5.543   7.234   5.342  1.0511  1.4939  0.3863
20247SOL     OW63278   0.341   6.131   5.968  0.2796 -0.2266  0.4351
20247SOL    HW163279   0.288   6.211   5.968 -0.5448 -0.7617 -0.5060
20247SOL    HW263280   0.342   6.103   5.876  0.6399 -1.2468  0.7453
20248SOL     OW63281   7.664   8.511   8.975  0.7937 -0.5622 -0.2294
20248SOL    HW163282   7.729   8.532   9.042  1.0749 -0.3843 -0.5553
20248SOL    HW263283   7.607   8.446   9.016  1.2020 -0.7467  0.0426
20249SOL     OW63284   8.858   1.016   4.584 -0.3107 -0.2101 -0.0796
20249SOL    HW163285   8.824   1.091   4.535  0.6734 -0.7948 -1.7030
20249SOL    HW263286   8.946   1.001   4.547  0.2351 -1.0023  1.5038
20250SOL     OW63287   4.853   8.861   6.273  0.4099  0.0391 -0.4410
20250SOL    HW163288   4.787   8.898   6.332  1.7176  0.0942  1.0055
20250SOL    HW263289   4.892   8.938   6.231 -0.1151  0.0320 -0.9499
20251SOL     OW63290   9.654   5.984   8.726  0.3465  0.4723 -0.0315
20251SOL    HW163291   9.701   5.911   8.767 -0.2004  0.1494  0.0421
20251SOL    HW263292   9.690   6.062   8.767  1.4056  0.2777 -0.5883
20252SOL     OW63293   5.880   7.014   9.905  0.7878  0.2053 -0.1251
20252SOL    HW163294   5.895   7.096   9.858  1.2842 -1.0179 -2.1470
20252SOL    HW263295   5.808   7.033   9.965 -1.3186  1.2134 -2.9061
20253SOL     OW63296   7.045   7.522   3.457  0.7763  0.0108 -0.3470
20253SOL    HW163297   7.026   7.508   3.364 -1.7316 -0.2196  0.1606
20253SOL    HW263298   7.086   7.608   3.460  0.6774  0.1252 -1.6306
20254SOL     OW63299   0.508   0.581   5.894  0.1955  0.1315  0.3021
20254SOL    HW163300   0.546   0.634   5.824 -2.1006  1.3965 -0.0190
20254SOL    HW263301   0.457   0.514   5.849 -0.5402  0.3816  0.7487
20255SOL     OW63302   1.408   5.652   9.955 -0.0361  0.0094  0.7512
20255SOL    HW163303   1.422   5.673  10.047  0.2784  0.0494  0.6952
20255SOL    HW263304   1.382   5.734   9.914  0.9242  0.2421  0.5873
20256SOL     OW63305   7.264   9.380   6.551  0.1475 -0.3049 -0.2354
20256SOL    HW163306   7.231   9.467   6.527  0.2316 -0.1704  0.1290
20256SOL    HW263307   7.256   9.328   6.471 -0.7098 -0.2000 -0.2251
20257SOL     OW63308   1.857   9.755   6.921  0.1278  0.3028  0.1976
20257SOL    HW163309   1.869   9.716   7.007  1.8711  1.6982  0.6098
20257SOL    HW263310   1.916   9.707   6.864 -0.3852 -0.0442 -0.0452
20258SOL     OW63311   4.095   7.230   0.405  0.0541  0.3522  0.5470
20258SOL    HW163312   4.158   7.178   0.355 -0.4842 -0.1436  0.3799
20258SOL    HW263313   4.143   7.259   0.482  0.8742  1.0419 -0.2005
20259SOL     OW63314   4.113   3.790   6.822 -0.4687 -0.0589  0.1014
20259SOL    HW163315   4.208   3.799   6.820 -0.5490  0.6185 -0.6165
20259SOL    HW263316   4.091   3.795   6.915  0.1166  0.5825  0.2092
20260SOL     OW63317   8.467   0.661   2.516  0.2989 -0.3901  0.2930
20260SOL    HW163318   8.456   0.605   2.593 -2.0480 -0.0761  0.2164
20260SOL    HW263319   8.412   0.621   2.449  1.2835  0.0886 -0.8134
20261SOL     OW63320   7.025   1.328   9.362 -0.0037  0.1947 -0.3469
20261SOL    HW163321   6.999   1.345   9.272 -0.2349  0.6153 -0.2033
20261SOL    HW263322   7.115   1.360   9.368 -0.2221  0.8055 -0.2479
20262SOL     OW63323   2.183   7.014   9.013 -0.3266  0.5433  0.0853
20262SOL    HW163324   2.255   7.072   9.038  0.3131  0.2317 -1.0195
20262SOL    HW263325   2.226   6.937   8.976 -1.1984 -0.1927  0.5853
20263SOL     OW63326   1.870   5.491   8.809  0.0597 -0.6917  0.2390
20263SOL    HW163327   1.896   5.415   8.862 -0.8865 -1.4840 -0.4165
20263SOL    HW263328   1.793   5.525   8.854  0.4463 -0.1513  0.4962
20264SOL     OW63329   7.682   4.609   0.747  0.1572 -0.1842  0.0205
20264SOL    HW163330   7.772   4.595   0.717  0.5256  1.3373  0.3858
20264SOL    HW263331   7.628   4.560   0.684  1.0411  1.3748 -2.0175
20265SOL     OW63332   8.788   8.151   2.702 -0.0691  0.3879  0.2362
20265SOL    HW163333   8.840   8.076   2.727  0.2893  0.5562 -0.0082
20265SOL    HW263334   8.778   8.202   2.783 -0.0585  0.2354  0.3338
20266SOL     OW63335   2.434   9.478   0.084  0.0432  0.0444  0.2604
20266SOL    HW163336   2.350   9.479   0.130  0.4508 -0.9775  1.0184
20266SOL    HW263337   2.479   9.401   0.117  0.4448 -0.5749 -1.6622
20267SOL     OW63338   6.123   9.922   2.792  0.0837 -0.3379  0.1320
20267SOL    HW163339   6.052   9.983   2.770  0.6136  0.4470  0.5851
20267SOL    HW263340   6.149   9.884   2.708  0.1472  0.4973 -0.2273
20268SOL     OW63341   0.628   0.409   2.913 -0.4315 -0.3964 -0.7077
20268SOL    HW163342   0.688   0.335   2.901  0.1585  0.2704 -2.0546
20268SOL    HW263343   0.626   0.423   3.008  0.6170 -1.1928 -0.5484
20269SOL     OW63344   3.266   0.877   4.067 -0.4881  0.0221 -0.5569
20269SOL    HW163345   3.331   0.829   4.015 -0.4821 -0.5951  0.0095
20269SOL    HW263346   3.250   0.957   4.018 -0.3969 -0.5048 -1.4485
20270SOL     OW63347   1.631   8.362   7.458  0.2212  0.3960 -0.4252
20270SOL    HW163348   1.704   8.396   7.407  1.8140 -1.9597  0.1881
20270SOL    HW263349   1.632   8.413   7.539  1.1593  0.4425 -0.4580
20271SOL     OW63350   8.786   2.995   0.514  0.0653  0.3471  0.3647
20271SOL    HW163351   8.811   2.924   0.573 -0.1858 -0.5022 -0.5249
20271SOL    HW263352   8.706   2.963   0.472  0.6957  0.5800 -1.0298
20272SOL     OW63353   5.672   2.032   1.109 -0.3419  0.3847 -0.2809
20272SOL    HW163354   5.686   2.127   1.104  0.1936  0.5335  2.9926
20272SOL    HW263355   5.618   2.020   1.187  0.8415 -2.1331  0.1888
20273SOL     OW63356   7.558   6.736  10.106 -0.6122  0.4005 -0.5144
20273SOL    HW163357   7.517   6.738  10.020 -0.9708  0.3133 -0.3457
20273SOL    HW263358   7.550   6.645  10.134 -1.2860  0.6152 -0.0101
20274SOL     OW63359   2.375   4.130   8.644  0.0841 -0.5372  0.3646
20274SOL    HW163360   2.379   4.045   8.601  1.1440  0.6067 -1.9109
20274SOL    HW263361   2.436   4.124   8.717 -2.4405 -2.8333  2.3774
20275SOL     OW63362   2.659   4.271   8.126  0.3831  0.7096 -0.1212
20275SOL    HW163363   2.622   4.268   8.038  1.2486 -1.0455 -0.4639
20275SOL    HW263364   2.586   4.247   8.184  0.2268  0.1984 -0.5265
20276SOL     OW63365  10.031   1.937   6.924  0.1054  0.1179  0.7553
20276SOL    HW163366  10.039   1.978   6.838 -0.7126 -0.3794  0.4347
20276SOL    HW263367  10.058   1.846   6.910 -0.0620  0.0254  1.0196
20277SOL     OW63368   5.215   5.722   1.205 -0.3654  0.0902  0.0368
20277SOL    HW163369   5.195   5.728   1.298  0.1089  3.1506 -0.0113
20277SOL    HW263370   5.229   5.629   1.189 -0.6082 -0.4803  2.9821
20278SOL     OW63371   1.947   1.379   4.543  0.9309  0.2833  0.2660
20278SOL    HW163372   1.926   1.408   4.632  1.6329 -0.8510  0.8008
20278SOL    HW263373   1.885   1.309   4.526 -0.8360  2.1033 -1.0773
20279SOL     OW63374   8.355   7.603   5.844 -0.0723  0.0776 -0.1553
20279SOL    HW163375   8.267   7.639   5.855 -0.7151 -1.6406  0.4654
20279SOL    HW263376   8.369   7.547   5.920  1.0574 -0.6564 -0.8707
20280SOL     OW63377   1.179   3.773   8.557 -0.3119 -0.3725  0.7101
20280SOL    HW163378   1.205   3.707   8.492 -1.2408 -0.2652  0.2216
20280SOL    HW263379   1.173   3.855   8.508 -0.5293 -0.1942  1.0274
20281SOL     OW63380   3.878   7.604   4.167  0.0448 -0.3588  0.0056
20281SOL    HW163381   3.798   7.655   4.178 -0.2678 -0.8656  0.0853
20281SOL    HW263382   3.933   7.631   4.240  0.6586  1.3073 -1.0481
20282SOL     OW63383   0.373   8.734   3.609  0.9155  0.4935 -0.2578
20282SOL    HW163384   0.439   8.804   3.616  0.1954  1.3324 -1.7953
20282SOL    HW263385   0.354   8.728   3.516  0.4610 -1.3022 -0.0601
20283SOL     OW63386   8.789   0.846   2.977  0.3993 -0.4000 -0.1423
20283SOL    HW163387   8.844   0.825   2.902 -1.7871 -1.5451 -1.4724
20283SOL    HW263388   8.722   0.778   2.978 -1.1168  1.0409  1.2984
20284SOL     OW63389   9.133   1.040   1.899 -0.5865  0.7690  0.2696
20284SOL    HW163390   9.195   1.091   1.847 -0.2809  0.5702  0.4389
20284SOL    HW263391   9.047   1.060   1.861 -0.2241 -0.6527 -1.3715
20285SOL     OW63392   1.990   2.600   9.042 -0.1383  0.3206 -0.2023
20285SOL    HW163393   1.932   2.528   9.020 -1.4298  1.0469  0.7675
20285SOL    HW263394   2.012   2.586   9.134  0.1642  0.7767 -0.2020
20286SOL     OW63395   6.925   4.448   8.677 -0.2849  0.1186 -0.5691
20286SOL    HW163396   6.971   4.475   8.756  2.2687  1.3607 -2.3736
20286SOL    HW263397   6.905   4.356   8.690  2.4844 -0.3945  0.4900
20287SOL     OW63398   9.793   4.036   0.968  0.2248  0.0728 -0.1793
20287SOL    HW163399   9.727   3.988   1.018  0.8329 -1.4359 -0.7923
20287SOL    HW263400   9.747   4.067   0.891 -0.2488  0.7790  0.3781
20288SOL     OW63401   4.561   9.719   2.760  0.2237 -0.5159  0.1245
20288SOL    HW163402   4.652   9.692   2.755  0.8297  1.1920  1.5719
20288SOL    HW263403   4.531   9.689   2.845 -0.2323 -0.0549  0.1274
20289SOL     OW63404   0.459   6.556   3.118  0.6584 -0.7981 -0.0340
20289SOL    HW163405   0.453   6.650   3.137  1.2628 -1.2394  2.5549
20289SOL    HW263406   0.380   6.536   3.069 -0.2001  0.7912  0.6688
20290SOL     OW63407   5.093   9.730   7.681 -0.2492 -0.6903  0.1808
20290SOL    HW163408   5.139   9.717   7.764  1.9781  3.4247 -0.3079
20290SOL    HW263409   5.000   9.722   7.704  0.2972  0.7793  3.1530
20291SOL     OW63410  10.184   5.606   0.336  0.2546 -0.0924 -0.5752
20291SOL    HW163411  10.253   5.672   0.342 -0.8554  0.9617  0.6715
20291SOL    HW263412  10.103   5.655   0.345 -0.5635 -1.7143  1.0993
20292SOL     OW63413   4.991   4.309   1.488  0.0744  0.0860  0.2409
20292SOL    HW163414   5.054   4.299   1.416 -0.3699 -1.1264  0.0073
20292SOL    HW263415   4.930   4.236   1.477 -0.1993  0.0881  1.6451
20293SOL     OW63416   0.927   4.072   8.263 -0.5209 -0.1164  0.2589
20293SOL    HW163417   0.906   4.101   8.174 -2.6468 -1.9287  0.1045
20293SOL    HW263418   0.885   4.137   8.320  0.9193  1.0947 -0.0492
20294SOL     OW63419   5.248   1.737   7.533  0.0129  0.2672  0.3526
20294SOL    HW163420   5.292   1.662   7.570 -0.4833  0.0628  0.5355
20294SOL    HW263421   5.278   1.741   7.442  1.0456  0.6321  0.7097
20295SOL     OW63422   6.811  10.177   2.949 -0.0407 -0.7760 -0.1055
20295SOL    HW163423   6.724  10.169   2.910  0.3662  0.6634 -1.3633
20295SOL    HW263424   6.839  10.087   2.964 -2.2666 -1.2534  1.5415
20296SOL     OW63425   9.847  10.015   1.677 -0.5775  0.0237  0.0385
20296SOL    HW163426   9.769   9.971   1.643 -0.3006  0.1003 -0.7086
20296SOL    HW263427   9.893   9.948   1.727 -1.6863  0.2696  1.4372
20297SOL     OW63428   9.331   8.124   9.484  0.3330 -0.6119 -0.6266
20297SOL    HW163429   9.262   8.081   9.433 -1.3000  0.2109  0.8821
20297SOL    HW263430   9.315   8.217   9.473  0.7430 -0.4167  0.3752
20298SOL     OW63431   2.857   5.479   5.909  0.8386  0.5014  0.0861
20298SOL    HW163432   2.924   5.413   5.891 -0.3837 -0.7892  0.2395
20298SOL    HW263433   2.862   5.493   6.004  0.4409 -0.1004  0.2007
20299SOL     OW63434   4.170   0.462   3.319 -0.5464 -0.1688  0.3919
20299SOL    HW163435   4.208   0.476   3.406 -0.6998 -1.0385  0.5984
20299SOL    HW263436   4.194   0.541   3.270  1.4592 -0.6629  0.5296
20300SOL     OW63437   1.302  10.044   8.506  0.2636  0.1243 -0.1847
20300SOL    HW163438   1.277  10.131   8.475 -1.5808  0.6234  2.5838
20300SOL    HW263439   1.363  10.061   8.578  0.6929 -0.8973 -0.3026
20301SOL     OW63440   7.383   2.062   3.093 -0.0849 -0.4521 -0.1316
20301SOL    HW163441   7.424   2.088   3.175 -0.8206  1.5367 -0.3814
20301SOL    HW263442   7.318   1.996   3.118 -1.2339  1.1090  1.0479
20302SOL     OW63443   6.246   8.372   8.757 -0.0354 -0.5868  0.1690
20302SOL    HW163444   6.209   8.362   8.669  0.0637 -0.4608  0.1116
20302SOL    HW263445   6.321   8.312   8.758 -0.1051 -0.6722  0.2065
20303SOL     OW63446   3.321   2.716   2.134 -0.4648 -0.2938  0.3192
20303SOL    HW163447   3.256   2.727   2.203 -1.4656  1.0908 -0.8190
20303SOL    HW263448   3.403   2.749   2.172 -0.3323 -2.2535  1.8314
20304SOL     OW63449   6.870   5.448   6.137  0.0974 -0.0157 -0.4781
20304SOL    HW163450   6.791   5.424   6.184  0.7992  0.0407  0.7654
20304SOL    HW263451   6.840   5.472   6.049 -1.1934 -0.4388 -0.1635
20305SOL     OW63452   2.980   5.326   1.148 -0.0149 -0.3151 -0.4837
20305SOL    HW163453   2.885   5.315   1.142 -0.1789 -1.1900  2.7619
20305SOL    HW263454   2.996   5.417   1.124 -1.7391  0.0211 -0.4015
20306SOL     OW63455   6.514   8.893   9.166 -0.6450 -0.1576  0.7979
20306SOL    HW163456   6.547   8.925   9.250  0.9868 -0.5921  0.3475
20306SOL    HW263457   6.501   8.799   9.180  1.0774 -0.5129  0.1448
20307SOL     OW63458   6.681   4.789   0.099  0.1937  0.5104 -0.2702
20307SOL    HW163459   6.646   4.712   0.055 -0.1599  1.0965 -1.0382
20307SOL    HW263460   6.617   4.858   0.080  0.6350  1.0504  0.1914
20308SOL     OW63461   6.541   0.024   3.469  0.1176 -0.3798 -0.2507
20308SOL    HW163462   6.611   0.089   3.472  0.4657 -0.7586 -0.1425
20308SOL    HW263463   6.582  -0.057   3.501  0.1817 -1.0987 -2.1149
20309SOL     OW63464   6.946   6.408   6.341  0.1239  0.1795 -0.3169
20309SOL    HW163465   6.923   6.414   6.248 -0.5167 -0.2869 -0.1959
20309SOL    HW263466   6.895   6.479   6.382  1.2057  1.0540 -0.4620
20310SOL     OW63467   0.522   2.065   0.485 -0.5027  0.4058  0.1927
20310SOL    HW163468   0.514   2.107   0.570  0.6057  0.2720  0.3638
20310SOL    HW263469   0.438   2.020   0.472 -1.5608  2.3567  0.1643
20311SOL     OW63470   9.397   0.294   4.673 -0.3714  0.1108  0.2989
20311SOL    HW163471   9.473   0.277   4.617 -0.0854  0.1471  0.6801
20311SOL    HW263472   9.433   0.330   4.753 -0.7843  0.0403  0.5173
20312SOL     OW63473   9.362   1.915   2.082  0.0868 -0.4052 -0.0102
20312SOL    HW163474   9.360   2.004   2.047 -0.3049 -0.5070 -0.2538
20312SOL    HW263475   9.308   1.865   2.021 -0.3389 -0.6501  0.5584
20313SOL     OW63476   4.393   6.514   5.037 -0.5257 -1.0588 -0.3639
20313SOL    HW163477   4.451   6.485   4.967  2.0205  1.1705  0.7247
20313SOL    HW263478   4.417   6.606   5.051 -1.0437 -1.4258  3.3223
20314SOL     OW63479   7.170   2.412   5.995 -0.0991 -0.0755  0.0391
20314SOL    HW163480   7.113   2.351   6.041 -0.3392  0.5786  0.6113
20314SOL    HW263481   7.112   2.483   5.967  0.2440  0.0780 -0.2981
20315SOL     OW63482   8.335   8.279   1.696 -0.0040 -0.0585 -0.6330
20315SOL    HW163483   8.259   8.329   1.726  2.5604  4.3149 -0.9947
20315SOL    HW263484   8.311   8.249   1.609 -1.8948 -0.1329 -0.1170
20316SOL     OW63485   3.677   3.307   3.368  0.0554 -0.3671 -0.2389
20316SOL    HW163486   3.767   3.340   3.362  0.0809 -0.0174  1.6566
20316SOL    HW263487   3.625   3.385   3.387 -0.4365 -0.7918  0.1803
20317SOL     OW63488   7.708   4.867   7.282 -0.2938 -0.1730  0.4790
20317SOL    HW163489   7.779   4.809   7.310 -0.0689 -0.2114 -0.1690
20317SOL    HW263490   7.629   4.830   7.324 -0.2207 -1.1854 -0.2487
20318SOL     OW63491   0.296   2.639   5.538 -0.1288 -0.2583 -0.0689
20318SOL    HW163492   0.382   2.609   5.507 -1.4897 -2.4229 -1.9056
20318SOL    HW263493   0.247   2.656   5.458 -1.5928  0.4671  0.9710
20319SOL     OW63494   3.465   9.245   8.532 -0.3964 -0.3595  0.4176
20319SOL    HW163495   3.412   9.321   8.554 -1.0333  0.0799 -2.4628
20319SOL    HW263496   3.409   9.170   8.551 -0.1406 -0.1102  2.2622
20320SOL     OW63497   2.703   7.937   2.888  0.0707  0.0333 -0.1701
20320SOL    HW163498   2.689   7.970   2.977 -1.2033 -0.3768 -0.2036
20320SOL    HW263499   2.773   7.991   2.853 -0.1549  0.9103  0.7109
20321SOL     OW63500   5.968   3.157   1.127  0.4374 -0.0204 -0.1812
20321SOL    HW163501   6.008   3.151   1.214  0.6152 -1.3071 -0.3535
20321SOL    HW263502   5.922   3.241   1.128  0.8970  0.2244  0.9622
20322SOL     OW63503   4.483   4.627   6.287  0.6412  0.1470 -0.0181
20322SOL    HW163504   4.512   4.612   6.377  0.5278  0.2537  0.0364
20322SOL    HW263505   4.389   4.610   6.288  0.8747 -1.1738 -0.4187
20323SOL     OW63506   7.238   8.152   8.209 -0.4049 -0.2600  0.7094
20323SOL    HW163507   7.318   8.197   8.183 -0.6496 -0.4592 -0.4339
20323SOL    HW263508   7.220   8.184   8.297  0.6984  0.1070  0.8118
20324SOL     OW63509   5.768   9.783   3.231 -0.5725  0.0571 -0.4436
20324SOL    HW163510   5.789   9.709   3.174  0.6422  0.5958 -0.7079
20324SOL    HW263511   5.846   9.793   3.286 -1.0519  0.6379  0.1321
20325SOL     OW63512   8.057   9.324   6.841 -0.1722 -0.3794  0.3934
20325SOL    HW163513   8.108   9.360   6.769  2.1574 -1.3377  1.5069
20325SOL    HW263514   8.118   9.322   6.915 -2.6922  1.2834  2.6348
20326SOL     OW63515   8.207   1.579   3.369 -0.1278 -0.4977 -0.2798
20326SOL    HW163516   8.208   1.485   3.352 -1.0703 -0.8640  1.6020
20326SOL    HW263517   8.287   1.595   3.420 -0.1561 -0.3236 -0.2885
20327SOL     OW63518   0.201   2.270   7.174 -0.5841 -0.2733 -0.9902
20327SOL    HW163519   0.248   2.262   7.091 -1.4171 -0.9327 -1.4076
20327SOL    HW263520   0.190   2.180   7.204  0.2326 -0.0045  0.1318
20328SOL     OW63521   4.738   6.274   6.379 -0.4615  0.3892  0.3962
20328SOL    HW163522   4.642   6.277   6.379 -0.4534  0.7734  1.5814
20328SOL    HW263523   4.765   6.358   6.342 -0.5662  0.5961  0.7986
20329SOL     OW63524   9.928   3.901   1.913 -0.0024  0.1387  0.3167
20329SOL    HW163525   9.865   3.940   1.853 -1.3105  0.5161  1.9082
20329SOL    HW263526   9.953   3.973   1.971 -0.9253 -0.8987  2.0137
20330SOL     OW63527   7.179   5.893   6.997 -0.0615 -0.7503  0.3824
20330SOL    HW163528   7.088   5.884   6.968 -0.1956 -0.2648  0.6460
20330SOL    HW263529   7.181   5.978   7.042  1.1986  0.7503 -2.3262
20331SOL     OW63530   6.102   8.676   0.665  0.7802 -0.4092  0.1924
20331SOL    HW163531   6.101   8.771   0.676  0.1360 -0.2415 -1.1624
20331SOL    HW263532   6.191   8.657   0.635  0.5660 -0.0681 -0.6959
20332SOL     OW63533   8.160   6.537   3.803  0.2546  0.1131  0.1155
20332SOL    HW163534   8.249   6.571   3.801 -0.1999  1.4073  1.2820
20332SOL    HW263535   8.167   6.454   3.849  1.3100 -1.2885 -2.4449
20333SOL     OW63536   7.000   8.033   3.836  0.8816  0.5310 -0.2883
20333SOL    HW163537   6.947   7.992   3.903  0.9142 -0.5370 -0.8981
20333SOL    HW263538   6.938   8.081   3.781  0.7306  0.5298 -0.1161
20334SOL     OW63539   7.975   2.793   6.489  0.2805 -0.1998  0.1364
20334SOL    HW163540   7.996   2.710   6.446  1.2660  0.7070 -1.2058
20334SOL    HW263541   7.914   2.836   6.429  0.2615  0.3062  0.5148
20335SOL     OW63542   6.474   8.676   7.686  0.1861  0.4076  0.1349
20335SOL    HW163543   6.524   8.716   7.757 -0.7387  2.3633 -0.2537
20335SOL    HW263544   6.399   8.735   7.675 -0.2580 -0.4799 -1.7075
20336SOL     OW63545   3.021   5.090   4.490  0.0601 -0.5490 -0.0191
20336SOL    HW163546   3.090   5.056   4.548  0.4309  2.4534  1.3705
20336SOL    HW263547   2.941   5.046   4.519  0.7810 -1.4014  0.7005
20337SOL     OW63548   9.959   2.725   8.029 -0.5553 -0.1329  0.0330
20337SOL    HW163549  10.014   2.795   7.995 -0.0532 -1.4102 -1.8907
20337SOL    HW263550  10.014   2.680   8.094 -0.9217  1.2946  1.3456
20338SOL     OW63551   5.698   2.472   9.182 -0.2247  0.3922 -0.2436
20338SOL    HW163552   5.735   2.394   9.141  1.1023  0.7000  0.3080
20338SOL    HW263553   5.748   2.482   9.264 -0.7677  1.4760 -0.0287
20339SOL     OW63554   6.031   8.659   9.499 -0.1395  0.3382  0.1377
20339SOL    HW163555   6.125   8.667   9.512 -0.2170  2.2971 -0.2234
20339SOL    HW263556   6.020   8.650   9.404 -0.2718 -0.6768  0.2481
20340SOL     OW63557   2.437   3.931   5.396  0.2693 -0.0090  0.1852
20340SOL    HW163558   2.374   3.875   5.441  0.9626 -0.3320  0.7577
20340SOL    HW263559   2.505   3.947   5.461  0.3815  0.9957 -0.1728
20341SOL     OW63560   1.367   0.572   7.286 -0.5588  0.6575 -0.1138
20341SOL    HW163561   1.291   0.530   7.326  0.5256 -1.2623 -0.0057
20341SOL    HW263562   1.412   0.501   7.240  1.9619  1.4689  1.0362
20342SOL     OW63563   2.735   0.343   5.116 -0.5834  0.1139  0.7681
20342SOL    HW163564   2.803   0.400   5.079  1.0912 -0.1208  3.3247
20342SOL    HW263565   2.655   0.394   5.109  0.4213  1.7125  0.6023
20343SOL     OW63566   9.298   7.192   5.126 -0.5813  0.1840  0.1993
20343SOL    HW163567   9.358   7.255   5.166 -0.8400  0.3526  0.3189
20343SOL    HW263568   9.316   7.110   5.173  0.6825 -0.1556 -0.8517
20344SOL     OW63569   4.181   6.785   5.952  0.5755  0.6141 -0.4688
20344SOL    HW163570   4.180   6.877   5.976 -0.2612  0.4000  0.3494
20344SOL    HW263571   4.099   6.772   5.905 -1.3011 -0.5998  2.9457
20345SOL     OW63572   9.888   9.690   2.882  0.1447  0.0869  0.1108
20345SOL    HW163573   9.835   9.659   2.955  0.1817 -0.9450 -0.2997
20345SOL    HW263574   9.884   9.786   2.889 -0.4354  0.0020  1.0377
20346SOL     OW63575   4.042   7.991   5.193 -0.7016 -0.1313 -0.3626
20346SOL    HW163576   4.122   7.962   5.149  0.6254 -0.0276  1.8909
20346SOL    HW263577   3.973   7.938   5.154  0.6889 -1.3127 -1.2834
20347SOL     OW63578   3.377   1.100   1.364 -0.0588 -0.0687 -0.2299
20347SOL    HW163579   3.375   1.010   1.330 -2.2718  0.1676 -0.8080
20347SOL    HW263580   3.440   1.145   1.308  0.9031 -1.1913 -0.0807
20348SOL     OW63581   3.104   6.468   6.550  0.1967  0.6985 -0.1237
20348SOL    HW163582   3.154   6.523   6.489 -1.5726  0.7765 -1.5415
20348SOL    HW263583   3.017   6.461   6.511  0.0825 -2.3103  0.5444
20349SOL     OW63584   7.815   4.062   7.028 -0.3072  0.0979 -0.0014
20349SOL    HW163585   7.778   4.040   7.114 -0.3889 -0.8804 -0.2738
20349SOL    HW263586   7.743   4.048   6.967  0.3863 -1.4842 -0.4950
20350SOL     OW63587   2.238   4.038   1.776 -0.5500 -0.0281 -0.6331
20350SOL    HW163588   2.247   3.958   1.829 -1.0405  0.9936  1.0189
20350SOL    HW263589   2.323   4.080   1.781 -0.4776 -0.1313 -0.9917
20351SOL     OW63590   8.039   6.024   0.053  0.2753  0.1480  0.2459
20351SOL    HW163591   8.034   6.057   0.143  0.7206  0.4865  0.1518
20351SOL    HW263592   7.964   6.064   0.009 -0.4581 -0.7247  0.6841
20352SOL     OW63593   8.039   5.783   8.689  0.0438 -0.6124  0.0513
20352SOL    HW163594   7.979   5.835   8.636 -0.7747 -0.0500  1.5027
20352SOL    HW263595   8.097   5.847   8.729 -1.0944 -0.7580  2.0038
20353SOL     OW63596   6.277   6.826  10.203  0.4635 -0.0977 -0.0079
20353SOL    HW163597   6.287   6.734  10.177 -1.1655 -0.6755  1.3640
20353SOL    HW263598   6.199   6.856  10.156  0.2087  0.2022  0.6078
20354SOL     OW63599   6.892   9.451   7.319  0.2498  0.1178  0.1958
20354SOL    HW163600   6.920   9.447   7.410 -2.4180 -1.0234  1.0252
20354SOL    HW263601   6.888   9.545   7.299  0.7132  0.3736  1.3079
20355SOL     OW63602   3.118   9.223   7.475  0.2306  0.2601  0.2080
20355SOL    HW163603   3.137   9.315   7.493  0.7967  0.3010 -0.5637
20355SOL    HW263604   3.078   9.224   7.388  1.6510 -0.3760 -0.4612
20356SOL     OW63605   6.954   6.090   7.378 -0.3758 -0.1385  0.4536
20356SOL    HW163606   6.874   6.039   7.383 -0.5848  0.1151 -0.2419
20356SOL    HW263607   6.928   6.171   7.334  0.2946 -0.1455  0.0307
20357SOL     OW63608   5.986   3.265   0.592  0.0399 -0.0298  0.1886
20357SOL    HW163609   5.998   3.333   0.526  0.3083  0.8045  1.0980
20357SOL    HW263610   5.936   3.197   0.547 -0.3385  0.8140 -0.6797
20358SOL     OW63611   2.381   8.753   7.437 -0.5003 -0.3557 -0.2010
20358SOL    HW163612   2.456   8.795   7.480 -1.0494  0.3366  0.0838
20358SOL    HW263613   2.316   8.743   7.507 -0.2701 -1.9372 -0.2010
20359SOL     OW63614   6.738   4.454   4.643 -0.3179 -0.5102 -0.1136
20359SOL    HW163615   6.778   4.398   4.709  1.0015  0.5195 -0.0188
20359SOL    HW263616   6.735   4.541   4.683  0.4140  0.1022 -1.3490
20360SOL     OW63617   9.213   4.337   8.380 -0.4051 -0.2328 -0.3168
20360SOL    HW163618   9.212   4.253   8.334 -0.8445 -0.5767  0.3148
20360SOL    HW263619   9.139   4.332   8.440  1.8112 -0.9502  2.4778
20361SOL     OW63620   5.835   7.299   6.825 -0.4047 -0.3134  0.4583
20361SOL    HW163621   5.908   7.354   6.856 -0.5193 -0.1930  0.5109
20361SOL    HW263622   5.757   7.341   6.861 -0.4795 -0.6056  0.6382
20362SOL     OW63623   1.918   0.307   3.328 -0.2397  0.0402  0.1513
20362SOL    HW163624   1.831   0.338   3.353 -0.3226 -0.6113  0.6508
20362SOL    HW263625   1.909   0.284   3.235 -0.3049  1.0418 -0.0985
20363SOL     OW63626   5.189   6.067   9.978  0.8539  0.0127  0.0509
20363SOL    HW163627   5.192   6.052  10.072 -0.0528 -0.7999 -0.0360
20363SOL    HW263628   5.273   6.109   9.957  0.9292  0.4830  1.2582
20364SOL     OW63629   4.643   2.799   6.883 -0.5640  0.4634 -0.3317
20364SOL    HW163630   4.647   2.793   6.978 -0.8177 -0.9160 -0.3957
20364SOL    HW263631   4.709   2.737   6.852  0.0723  1.4907 -1.0552
20365SOL     OW63632   6.437   7.184   6.382 -0.6026  0.0244 -0.0656
20365SOL    HW163633   6.473   7.267   6.413 -0.3976  1.1214 -3.0297
20365SOL    HW263634   6.499   7.117   6.412  1.6321  1.4310 -1.4096
20366SOL     OW63635   4.704   7.611   2.898 -0.3322 -0.0018 -0.1989
20366SOL    HW163636   4.751   7.564   2.830 -2.6754 -1.0384 -1.1575
20366SOL    HW263637   4.769   7.668   2.938  1.4300 -0.5360 -2.2641
20367SOL     OW63638   8.571   1.394   6.587  0.3135  0.2008 -0.0656
20367SOL    HW163639   8.544   1.311   6.547 -0.3071  0.9327 -1.1862
20367SOL    HW263640   8.608   1.445   6.515 -0.9978  1.6074  0.2321
20368SOL     OW63641   7.129   7.590   9.882  0.1229  0.8900 -0.2249
20368SOL    HW163642   7.109   7.670   9.834  1.9438  1.5491  0.0863
20368SOL    HW263643   7.217   7.604   9.917 -0.4376 -0.3338  1.7481
20369SOL     OW63644   0.738  10.102   0.564 -0.4087  0.4285 -0.4046
20369SOL    HW163645   0.690  10.030   0.606  0.8775  0.1541  0.6581
20369SOL    HW263646   0.704  10.106   0.475 -0.6800 -1.3412 -0.3931
20370SOL     OW63647   5.938   2.491   0.410 -0.4085 -0.2762  0.0815
20370SOL    HW163648   5.865   2.455   0.359 -0.0136 -1.7812  0.5649
20370SOL    HW263649   5.898   2.515   0.494 -0.2703 -1.5236  0.5136
20371SOL     OW63650   9.005   7.816   9.306 -0.3490 -0.1980  0.2254
20371SOL    HW163651   9.099   7.812   9.323 -0.1800 -2.3339 -0.9674
20371SOL    HW263652   8.980   7.906   9.328  1.8371  0.2256  1.1487
20372SOL     OW63653   6.663   0.832   8.591 -0.0963 -0.2116 -1.0068
20372SOL    HW163654   6.573   0.833   8.622  0.6596 -0.6055  1.3615
20372SOL    HW263655   6.691   0.741   8.604  1.0717  0.2305 -0.3752
20373SOL     OW63656   2.560   4.703   2.924  0.1133  0.1530  0.3366
20373SOL    HW163657   2.630   4.762   2.954 -0.0319  0.3048  0.3795
20373SOL    HW263658   2.606   4.626   2.892  0.2849  0.1047  0.6941
20374SOL     OW63659   5.918   5.390   1.365  0.0411  0.6741 -0.1807
20374SOL    HW163660   5.975   5.464   1.343 -0.1717  0.5307 -1.2635
20374SOL    HW263661   5.976   5.325   1.404  0.3162  1.2228  0.3217
20375SOL     OW63662   5.164   0.102   3.518 -0.0795 -0.0002 -0.0426
20375SOL    HW163663   5.109   0.115   3.595  0.7710 -0.3104  0.6260
20375SOL    HW263664   5.145   0.013   3.489 -0.2475  0.0447 -0.0666
20376SOL     OW63665   4.425   5.640   0.709  0.2337 -0.1559 -0.7724
20376SOL    HW163666   4.353   5.685   0.752  0.5297 -0.7495  0.3713
20376SOL    HW263667   4.494   5.635   0.776  1.3459  0.4278 -1.8564
20377SOL     OW63668   1.479   6.692   6.225 -0.7708  0.1356  0.1548
20377SOL    HW163669   1.436   6.770   6.190 -1.2950 -0.1901  0.0608
20377SOL    HW263670   1.440   6.620   6.176  0.2228 -0.1304 -0.2555
20378SOL     OW63671   1.062   5.158   1.544 -0.6970  0.1807 -0.1431
20378SOL    HW163672   1.126   5.087   1.547  1.1859  1.8655  1.6844
20378SOL    HW263673   0.979   5.116   1.567  0.6973 -1.1627  2.7569
20379SOL     OW63674   1.604   6.364   6.216 -0.4295  0.2785 -0.7500
20379SOL    HW163675   1.698   6.347   6.226 -0.2938  2.1652  1.7565
20379SOL    HW263676   1.562   6.289   6.257 -0.0049 -0.1775 -1.1374
20380SOL     OW63677   0.922   0.589   4.007  0.2048 -0.0643  0.2496
20380SOL    HW163678   0.943   0.496   4.017  0.3603 -0.0070  0.4748
20380SOL    HW263679   0.969   0.632   4.079 -0.3383  0.1165  0.5003
20381SOL     OW63680   5.268   4.856   1.688 -0.6554  0.4715  0.4189
20381SOL    HW163681   5.221   4.936   1.663 -1.1457 -0.0781 -0.4733
20381SOL    HW263682   5.317   4.880   1.766  0.7351  2.2108 -0.9404
20382SOL     OW63683   5.618   5.930   3.613  0.3146  0.2217  0.1244
20382SOL    HW163684   5.566   6.007   3.590 -1.2295 -0.9393 -0.3045
20382SOL    HW263685   5.604   5.869   3.541 -1.1898 -1.8037  2.0684
20383SOL     OW63686   4.084   6.289   4.112  0.0580 -0.1774  0.0224
20383SOL    HW163687   4.057   6.199   4.127  0.2778 -0.2964 -0.2837
20383SOL    HW263688   4.029   6.319   4.040 -0.4747  0.1458  0.5615
20384SOL     OW63689   6.735   9.159  10.089  0.7253  0.1687  0.1526
20384SOL    HW163690   6.801   9.089  10.090  1.4396  0.8422  0.8750
20384SOL    HW263691   6.734   9.192  10.179 -1.6585 -0.7980  0.5087
20385SOL     OW63692   8.073   1.723   8.489 -0.1880 -0.3802 -0.1743
20385SOL    HW163693   8.063   1.803   8.540  3.2982 -1.0979  1.7592
20385SOL    HW263694   8.083   1.753   8.399 -0.3319  1.2567  0.3487
20386SOL     OW63695   6.912   8.952  10.135  0.1067 -0.2663  0.0452
20386SOL    HW163696   6.954   8.878  10.090  1.4181  1.1756 -1.1924
20386SOL    HW263697   6.911   8.927  10.227  2.5371 -0.9263 -0.0570
20387SOL     OW63698   6.827   2.772   9.774 -0.1742  0.0816 -0.0594
20387SOL    HW163699   6.800   2.835   9.707 -0.8015  1.2212  1.2237
20387SOL    HW263700   6.773   2.695   9.758  0.3301 -0.0092 -1.4108
20388SOL     OW63701   0.649   1.834   0.139 -0.3123 -0.0756  0.4291
20388SOL    HW163702   0.661   1.879   0.223  1.0982 -0.7154  0.5792
20388SOL    HW263703   0.735   1.841   0.096 -1.0452  0.3070 -0.9911
20389SOL     OW63704   7.459   0.367   1.634  0.4983 -0.8988  0.1430
20389SOL    HW163705   7.450   0.336   1.544  0.2594 -0.6132  0.0664
20389SOL    HW263706   7.550   0.352   1.656  0.1331 -2.6708  0.4798
20390SOL     OW63707   3.774  10.200   4.315  0.0910  0.0282 -0.4983
20390SOL    HW163708   3.782  10.125   4.373 -1.5316 -0.0900 -0.3828
20390SOL    HW263709   3.679  10.217   4.312  0.3261  1.2079 -1.6010
20391SOL     OW63710   2.741   9.917   7.631 -0.2634  0.7595  0.7250
20391SOL    HW163711   2.659   9.881   7.668 -1.7925  1.5083 -1.8081
20391SOL    HW263712   2.752   9.869   7.549  0.7133  2.1644  0.0372
20392SOL     OW63713   0.531   6.283   2.503  0.0289 -0.8595  0.1326
20392SOL    HW163714   0.584   6.222   2.452  0.7744 -0.4461  0.4020
20392SOL    HW263715   0.595   6.339   2.548 -0.5928  2.6840 -3.1029
20393SOL     OW63716   8.005   2.338   5.856 -0.8676  0.0199  0.0263
20393SOL    HW163717   8.033   2.273   5.792 -2.2045 -0.1053 -0.4350
20393SOL    HW263718   7.951   2.290   5.918 -0.4225  0.3503  0.6854
20394SOL     OW63719   7.077   8.111   3.434 -0.4266 -0.5572  0.1213
20394SOL    HW163720   7.035   8.146   3.355 -2.3792 -0.2110  1.2754
20394SOL    HW263721   7.004   8.093   3.493  1.1201  0.6575  2.4634
20395SOL     OW63722   5.313   2.215   2.768 -0.6710  0.0321 -0.4292
20395SOL    HW163723   5.305   2.165   2.849 -4.2667  1.4764  0.1687
20395SOL    HW263724   5.283   2.303   2.790 -1.0737  0.6391 -3.1588
20396SOL     OW63725   9.901   9.786   3.650 -0.7982  0.4413  1.1955
20396SOL    HW163726   9.966   9.830   3.595 -2.4617  2.9438  1.1421
20396SOL    HW263727   9.861   9.720   3.593  0.0753  0.4884  0.5260
20397SOL     OW63728   2.237   0.017   9.564  0.1955 -0.3397 -0.2128
20397SOL    HW163729   2.332   0.031   9.563  0.1687 -0.2060 -1.7985
20397SOL    HW263730   2.217  -0.002   9.655  1.9307 -1.5836 -0.0548
20398SOL     OW63731   6.788   8.363   2.197 -0.0015 -0.9698 -0.3882
20398SOL    HW163732   6.827   8.392   2.280  0.4609 -0.0834 -0.9032
20398SOL    HW263733   6.714   8.308   2.223  0.1207 -0.6741  0.6126
20399SOL     OW63734   7.977   8.811   7.654 -0.0965  0.2959 -0.1215
20399SOL    HW163735   7.959   8.903   7.636  0.4164  0.1171 -1.5820
20399SOL    HW263736   8.069   8.809   7.678 -0.5114  0.3792  1.6249
20400SOL     OW63737   9.492   3.489   1.573  0.6151  0.1603 -0.0551
20400SOL    HW163738   9.502   3.394   1.566 -0.1853  0.1369 -1.0059
20400SOL    HW263739   9.575   3.524   1.542  1.1839 -0.2376  0.9841
20401SOL     OW63740   2.225   6.274   4.628  0.6569 -0.3742 -0.1284
20401SOL    HW163741   2.277   6.283   4.548 -1.6589 -2.0756 -1.8838
20401SOL    HW263742   2.142   6.317   4.608 -0.4473 -2.0081  0.8979
20402SOL     OW63743   2.485   2.367   3.489 -0.4321  0.0149 -0.1476
20402SOL    HW163744   2.446   2.435   3.544 -1.7294 -0.4979 -0.4162
20402SOL    HW263745   2.446   2.285   3.521  0.6388 -0.5415 -0.2434
20403SOL     OW63746   2.641   7.193   1.256 -0.3160 -0.1289 -0.7291
20403SOL    HW163747   2.632   7.099   1.274  0.9112 -0.2467 -0.6584
20403SOL    HW263748   2.675   7.197   1.167  1.9125  0.1539  0.1115
20404SOL     OW63749   5.741   1.445   6.813 -0.3845  0.1017 -0.0543
20404SOL    HW163750   5.653   1.427   6.782 -0.7195  1.8289 -0.1809
20404SOL    HW263751   5.729   1.509   6.884  0.7338  0.1150  0.1333
20405SOL     OW63752   8.503   4.221   8.613  0.3373 -0.2742  0.1111
20405SOL    HW163753   8.540   4.133   8.610 -0.0818 -0.4439 -0.0291
20405SOL    HW263754   8.552   4.265   8.684  0.9037 -0.4505 -0.1698
20406SOL     OW63755   9.415   4.255   6.753 -0.1486 -0.0908 -0.0186
20406SOL    HW163756   9.382   4.345   6.761 -0.9538 -0.4383  0.5867
20406SOL    HW263757   9.393   4.229   6.663  2.1169  1.1118 -0.9698
20407SOL     OW63758   7.258   7.045   1.627  0.3735 -0.1209 -0.1406
20407SOL    HW163759   7.241   7.115   1.563  0.6932 -0.4152 -0.5507
20407SOL    HW263760   7.324   6.990   1.585 -0.6630 -1.2867 -0.2728
20408SOL     OW63761   7.577   3.582   2.546 -0.4989  0.1149  0.1021
20408SOL    HW163762   7.624   3.576   2.463 -0.0225  1.4202  0.2600
20408SOL    HW263763   7.615   3.658   2.589  0.4955 -1.5467  2.2782
20409SOL     OW63764   0.067   7.289   5.361  0.1180  0.1430 -0.2854
20409SOL    HW163765   0.091   7.378   5.337 -3.2650  0.8879 -1.1964
20409SOL    HW263766   0.127   7.234   5.310  2.7108  1.8359  0.8261
20410SOL     OW63767   8.415   4.235   0.870  0.1849  0.3149  0.2044
20410SOL    HW163768   8.440   4.272   0.785  1.0221 -0.0713  0.2796
20410SOL    HW263769   8.368   4.155   0.849  0.0798  0.4043  0.0978
20411SOL     OW63770   8.958  10.104   0.843  0.1806 -0.6594 -0.2104
20411SOL    HW163771   8.893  10.035   0.855 -0.2574  0.1704  2.3762
20411SOL    HW263772   8.908  10.177   0.806 -0.2314 -0.3016  1.0161
20412SOL     OW63773   6.815   0.424   4.778  0.0287  0.8056 -0.9821
20412SOL    HW163774   6.874   0.473   4.834 -1.9182  0.1429  1.7515
20412SOL    HW263775   6.733   0.473   4.781 -1.1428 -1.1448 -0.3362
20413SOL     OW63776   0.520   8.783   9.827 -0.2046  0.5230 -0.0479
20413SOL    HW163777   0.598   8.730   9.817  0.3646  1.1177  1.1334
20413SOL    HW263778   0.528   8.823   9.914 -2.4494 -0.4226  0.6560
20414SOL     OW63779   4.549   5.703   3.830 -0.2949  0.4428  0.1047
20414SOL    HW163780   4.542   5.698   3.735 -2.8251 -1.2944  0.3367
20414SOL    HW263781   4.498   5.780   3.853  1.3531  1.6031  0.0072
20415SOL     OW63782   1.549   3.531   9.601 -0.0991 -0.1865 -0.5936
20415SOL    HW163783   1.464   3.488   9.591  0.0414 -0.0561 -2.4812
20415SOL    HW263784   1.528   3.620   9.631 -0.5427 -0.5809  0.2855
20416SOL     OW63785   7.922   2.265   3.281 -0.2953 -0.5847 -0.3898
20416SOL    HW163786   7.885   2.211   3.351 -0.9803 -1.4541 -1.4171
20416SOL    HW263787   8.014   2.239   3.277  0.3302  1.1079  1.7213
20417SOL     OW63788   9.323   3.259   8.440 -0.6165  0.1306  0.7447
20417SOL    HW163789   9.371   3.180   8.465 -0.6983 -0.4358 -0.8404
20417SOL    HW263790   9.267   3.231   8.367 -0.1968  1.8049 -0.2346
20418SOL     OW63791   4.923   6.992   2.875 -0.0021 -0.3383  0.2066
20418SOL    HW163792   4.941   6.958   2.788 -2.2540  1.6862 -1.1096
20418SOL    HW263793   4.925   6.914   2.932 -2.2088 -2.3089 -2.2575
20419SOL     OW63794   6.501   0.731   9.755 -0.2313 -0.6065  0.0918
20419SOL    HW163795   6.468   0.745   9.666  1.8213 -1.3005 -0.8185
20419SOL    HW263796   6.428   0.753   9.812 -1.7315 -0.6144 -1.7920
20420SOL     OW63797   2.054   3.857   0.000  0.0652  0.1060  0.3808
20420SOL    HW163798   2.020   3.942   0.029  0.9597  0.1622  1.3055
20420SOL    HW263799   1.981   3.796   0.014 -0.3861  0.6174  0.2687
20421SOL     OW63800   6.107   3.785   0.747 -0.2249  0.2768  0.1397
20421SOL    HW163801   6.099   3.740   0.831  0.6715  2.3107  1.3650
20421SOL    HW263802   6.164   3.860   0.765  0.1270  0.6605 -2.3318
20422SOL     OW63803   1.199   7.292   1.540  0.8116  0.0919  0.2099
20422SOL    HW163804   1.261   7.256   1.605  0.7707 -0.5347 -0.0954
20422SOL    HW263805   1.122   7.236   1.547  1.1035 -0.4653 -0.9302
20423SOL     OW63806   2.646   0.538   7.422  0.3538  0.4912  0.2474
20423SOL    HW163807   2.595   0.473   7.470 -0.4560  0.9602  0.0495
20423SOL    HW263808   2.737   0.511   7.432  0.3103  1.1487  2.9443
20424SOL     OW63809   4.418   9.996   1.311  0.1385 -0.0182 -0.0702
20424SOL    HW163810   4.353  10.037   1.368  0.4498  1.6761 -0.8941
20424SOL    HW263811   4.488   9.969   1.370 -0.6202 -0.4696  0.6391
20425SOL     OW63812   2.528   1.878   0.185 -0.3735 -0.6163  0.3024
20425SOL    HW163813   2.437   1.896   0.206  0.5603  1.6399  2.6500
20425SOL    HW263814   2.557   1.817   0.253  0.6416  0.9357  1.2930
20426SOL     OW63815   8.483   6.492   7.770  0.1179  0.1479 -0.6421
20426SOL    HW163816   8.405   6.518   7.720  1.0260  2.4428 -0.9580
20426SOL    HW263817   8.450   6.467   7.856 -1.0643  0.3024 -1.0486
20427SOL     OW63818   3.939   7.064   5.618 -0.2397 -0.0478 -0.1667
20427SOL    HW163819   3.999   6.997   5.651  1.3232  0.9170 -0.9540
20427SOL    HW263820   3.910   7.112   5.696  1.8447  0.9462  0.0232
20428SOL     OW63821   9.529   4.779   1.067 -0.2549  0.4482  0.1967
20428SOL    HW163822   9.484   4.812   0.989  0.4263 -0.9815 -0.8305
20428SOL    HW263823   9.461   4.731   1.115 -0.4502  0.5042 -0.0233
20429SOL     OW63824   8.052   6.461   4.794 -0.0679  0.1099  0.1294
20429SOL    HW163825   8.040   6.393   4.860  0.2456 -0.5037 -0.4345
20429SOL    HW263826   7.969   6.465   4.747  0.5937 -1.3563 -1.1974
20430SOL     OW63827   3.500   5.234   4.841 -0.3627  0.4242  0.5020
20430SOL    HW163828   3.534   5.319   4.869  0.0308  1.0016 -1.5985
20430SOL    HW263829   3.512   5.177   4.917  3.0716  1.2270  0.6382
20431SOL     OW63830  10.155   1.897   2.521  0.1236  0.5043  0.3288
20431SOL    HW163831  10.238   1.934   2.490  0.8153 -1.6030 -0.3941
20431SOL    HW263832  10.149   1.925   2.613  2.3652 -0.5708  0.8273
20432SOL     OW63833   5.680   1.559   7.236  0.1964  0.4746 -0.5595
20432SOL    HW163834   5.728   1.594   7.161 -0.6927  0.2437 -1.2512
20432SOL    HW263835   5.673   1.465   7.219  1.1493  0.2110  0.4777
20433SOL     OW63836   4.082   2.906   4.742  0.0522 -0.1939  0.0077
20433SOL    HW163837   3.994   2.895   4.778 -0.7288 -0.5677 -1.9720
20433SOL    HW263838   4.092   3.001   4.731 -0.3059 -0.1872 -0.2551
20434SOL     OW63839  10.056   4.293   3.049 -0.1004 -0.8487 -0.0034
20434SOL    HW163840  10.046   4.211   3.001  1.3668 -0.1287 -1.5951
20434SOL    HW263841   9.988   4.351   3.013 -0.2621 -0.9306  0.1698
20435SOL     OW63842   2.599   7.095   1.695 -0.2814  0.0018  0.1680
20435SOL    HW163843   2.644   7.011   1.685  0.9545  0.8494 -1.7061
20435SOL    HW263844   2.523   7.089   1.637  0.1936  0.4389 -0.4972
20436SOL     OW63845   1.718   2.291   1.960  0.5445 -0.5031  0.3544
20436SOL    HW163846   1.700   2.304   1.867 -1.8705 -1.1180  0.6974
20436SOL    HW263847   1.783   2.221   1.962 -0.5338 -1.5928 -0.8600
20437SOL     OW63848   9.840   4.870   1.597  0.1535  0.3402  0.3651
20437SOL    HW163849   9.878   4.831   1.518  0.5705 -0.0739  0.7645
20437SOL    HW263850   9.845   4.801   1.663  3.1966  1.8032  1.7904
20438SOL     OW63851   6.923   1.958   6.470 -0.6274 -0.2242 -0.5570
20438SOL    HW163852   6.843   1.976   6.519 -0.7383 -0.4213 -0.6625
20438SOL    HW263853   6.990   2.012   6.511 -0.5469 -0.9823  0.3077
20439SOL     OW63854   5.184   0.155   6.443 -0.2844  0.3127 -0.4726
20439SOL    HW163855   5.183   0.248   6.422  1.6348  1.0136  2.2413
20439SOL    HW263856   5.093   0.135   6.467 -0.6486  1.5462 -0.7653
20440SOL     OW63857   5.912   1.738   8.239 -0.2356  0.1394 -0.4791
20440SOL    HW163858   5.966   1.738   8.160  1.1835  1.0435  0.4607
20440SOL    HW263859   5.869   1.824   8.238  0.1137  0.3241 -0.0665
20441SOL     OW63860   2.956   2.843   2.493  0.2187 -0.2099 -0.8782
20441SOL    HW163861   2.874   2.859   2.538  0.1545 -3.5615  0.4131
20441SOL    HW263862   2.934   2.842   2.400 -1.0214 -0.0793 -0.5862
20442SOL     OW63863   2.620   0.104   1.748  0.3153  0.3007  0.2129
20442SOL    HW163864   2.623   0.026   1.803  3.0433 -0.4786 -0.9530
20442SOL    HW263865   2.600   0.071   1.660  0.8717  0.9743 -0.1758
20443SOL     OW63866   3.019   5.111  10.049 -0.2392  0.4720 -0.1673
20443SOL    HW163867   3.022   5.183  10.113 -0.0429 -0.3826  0.7977
20443SOL    HW263868   2.934   5.122  10.006 -0.8326  0.4660  0.9573
20444SOL     OW63869   2.740   6.297   4.276 -0.0561  0.0517  0.4797
20444SOL    HW163870   2.704   6.317   4.362 -0.1249 -2.2327  1.0172
20444SOL    HW263871   2.834   6.287   4.291 -0.3129 -2.2881  0.6973
20445SOL     OW63872   6.063   4.548   7.614 -0.3876 -0.1790 -0.7986
20445SOL    HW163873   6.000   4.524   7.546  0.6421 -2.5809 -0.9299
20445SOL    HW263874   6.017   4.531   7.697 -0.7054  0.2316 -0.8899
20446SOL     OW63875   9.066   9.420   4.672  0.0173 -0.3784 -0.7664
20446SOL    HW163876   9.062   9.401   4.578 -0.0166 -2.1532 -0.4171
20446SOL    HW263877   9.159   9.418   4.693 -0.1016 -2.2417 -0.3315
20447SOL     OW63878   7.117   6.342   0.216 -0.2791 -0.2658  0.5121
20447SOL    HW163879   7.074   6.335   0.301 -1.1514  0.7944  0.1555
20447SOL    HW263880   7.166   6.424   0.220  1.4393 -1.2695  0.7758
20448SOL     OW63881   5.443   2.155   7.441 -0.4368 -0.1315 -0.3724
20448SOL    HW163882   5.510   2.213   7.477  0.2623 -0.8303 -0.5215
20448SOL    HW263883   5.488   2.105   7.373 -0.8334 -1.3534  0.2308
20449SOL     OW63884   6.875   6.282   4.629  0.4340  0.3885  0.5221
20449SOL    HW163885   6.854   6.356   4.685 -2.0451 -0.8767  1.3419
20449SOL    HW263886   6.882   6.320   4.541 -0.9147  1.6067  0.9109
20450SOL     OW63887   3.581   3.014   7.417  0.4251  0.0077  0.4351
20450SOL    HW163888   3.560   2.924   7.440  1.3120 -0.9718 -2.3682
20450SOL    HW263889   3.639   3.007   7.340 -3.5674  2.9925 -3.1400
20451SOL     OW63890   1.391   4.514   3.563  0.5380  0.1167 -0.1464
20451SOL    HW163891   1.486   4.517   3.578  0.6275  3.1216 -1.0476
20451SOL    HW263892   1.354   4.495   3.650  1.8684  0.5995  0.5382
20452SOL     OW63893   1.830   5.260   1.366  0.5792 -0.1452 -0.2586
20452SOL    HW163894   1.804   5.168   1.373 -0.4735  0.2563  1.6356
20452SOL    HW263895   1.787   5.292   1.287  0.1362 -1.0294 -0.3778
20453SOL     OW63896   5.100   1.351   7.211 -0.4201 -0.1082 -0.0669
20453SOL    HW163897   5.088   1.372   7.304  0.0232 -0.3694  0.0494
20453SOL    HW263898   5.187   1.311   7.206 -0.7794 -0.8635 -0.4636
20454SOL     OW63899   1.879   3.600   5.961 -0.5523  0.0045  0.3773
20454SOL    HW163900   1.844   3.625   5.875 -0.1762  0.1293  0.2583
20454SOL    HW263901   1.881   3.504   5.958 -0.7893 -0.0006  0.3478
20455SOL     OW63902   4.836   3.559   2.143 -0.8124  0.4166  0.1787
20455SOL    HW163903   4.889   3.594   2.215  0.7477  1.9975 -1.6759
20455SOL    HW263904   4.891   3.492   2.102 -1.4413 -0.0498  0.0892
20456SOL     OW63905   0.397   6.104   1.471  0.0541 -0.3266  0.2863
20456SOL    HW163906   0.488   6.084   1.494  0.1886 -0.4380 -0.3418
20456SOL    HW263907   0.400   6.129   1.379 -0.7194 -1.5118 -0.0698
20457SOL     OW63908   9.590   1.881   8.147 -0.4457  0.0140  0.2479
20457SOL    HW163909   9.528   1.879   8.219 -1.2427 -0.5973 -0.4357
20457SOL    HW263910   9.605   1.789   8.126  1.3451  0.1336  0.9536
20458SOL     OW63911   0.761   1.379   1.270 -0.4874  0.1838  0.1125
20458SOL    HW163912   0.702   1.309   1.298  1.6495 -1.5543  0.3344
20458SOL    HW263913   0.795   1.416   1.352  3.2003 -2.7081 -0.0126
20459SOL     OW63914   0.012   8.564   4.745  0.5251 -1.1440  0.2807
20459SOL    HW163915  -0.048   8.524   4.808  0.8683  0.1052  1.4268
20459SOL    HW263916   0.099   8.550   4.783  0.6479  0.6397  0.6724
20460SOL     OW63917   4.760   0.782   7.351  0.2896 -0.6013  0.2908
20460SOL    HW163918   4.798   0.824   7.428 -0.8215 -0.2314  0.6568
20460SOL    HW263919   4.833   0.735   7.310  1.6352  1.8707 -0.2574
20461SOL     OW63920   1.148  10.083   4.530  0.0173 -0.2435 -0.1671
20461SOL    HW163921   1.083  10.041   4.474 -0.2133  0.2310 -0.2614
20461SOL    HW263922   1.230  10.038   4.510 -0.3915 -1.2578  0.4030
20462SOL     OW63923   4.436   2.146   2.847 -0.5891 -0.4572 -0.3863
20462SOL    HW163924   4.408   2.089   2.919 -0.2922 -1.0537 -0.7392
20462SOL    HW263925   4.439   2.089   2.771 -1.5079  0.3147 -1.0112
20463SOL     OW63926   7.588   2.848   3.371 -0.0401  0.4791  0.2791
20463SOL    HW163927   7.639   2.874   3.447  1.0335 -1.0037  0.0856
20463SOL    HW263928   7.633   2.889   3.297  1.1877 -1.2092  0.0581
20464SOL     OW63929   9.010   8.994   4.789  0.0298 -0.1690  0.3615
20464SOL    HW163930   8.936   8.934   4.802  0.3686 -1.1824 -2.0869
20464SOL    HW263931   8.970   9.081   4.795 -1.3189 -0.6984 -0.5241
20465SOL     OW63932   9.458   2.912   3.522 -0.1735  0.0529 -0.2485
20465SOL    HW163933   9.410   2.944   3.598  2.0662  0.0981  1.1869
20465SOL    HW263934   9.483   2.991   3.475  0.6676  0.1500  0.3610
20466SOL     OW63935   0.363   4.898   0.458 -0.3186 -0.0727  0.2213
20466SOL    HW163936   0.385   4.881   0.367  0.4150 -1.4872  0.6374
20466SOL    HW263937   0.331   4.988   0.460  1.7951  0.7257 -1.0473
20467SOL     OW63938   6.956   2.147   4.014 -0.3067  0.6496  0.1129
20467SOL    HW163939   7.044   2.130   3.980 -0.0827  0.0397  0.9617
20467SOL    HW263940   6.965   2.228   4.064  0.0495 -0.0366  1.1736
20468SOL     OW63941   3.735   1.304   2.246  0.4652  0.1501 -0.1815
20468SOL    HW163942   3.670   1.236   2.232 -0.2528  0.7438  0.2222
20468SOL    HW263943   3.816   1.257   2.267 -0.3135 -0.5593  1.2682
20469SOL     OW63944   1.026   0.558   3.718 -0.1987  0.2196  0.5963
20469SOL    HW163945   1.016   0.647   3.752 -0.0702  0.8508 -0.9779
20469SOL    HW263946   0.944   0.514   3.741 -0.3403  0.8094  1.2209
20470SOL     OW63947   8.102   4.180   0.709 -0.3206  0.0822  0.1359
20470SOL    HW163948   8.186   4.151   0.675 -0.0585  1.0814 -0.0906
20470SOL    HW263949   8.101   4.150   0.800 -0.1531 -0.8188 -0.1610
20471SOL     OW63950   4.246   6.956   9.976 -0.0479  0.7596 -0.1494
20471SOL    HW163951   4.337   6.986   9.975 -0.3685  1.7795  0.5757
20471SOL    HW263952   4.226   6.939   9.884  1.2072 -0.5173 -0.2095
20472SOL     OW63953   3.424   2.757   5.744  0.3656 -0.4033  0.0054
20472SOL    HW163954   3.463   2.746   5.657  3.2813 -1.7841  1.3989
20472SOL    HW263955   3.348   2.699   5.744 -0.1826  0.2866 -1.9089
20473SOL     OW63956   7.987   1.468   7.126 -0.3129 -0.7833 -0.3257
20473SOL    HW163957   7.951   1.394   7.175 -0.0085 -0.0836  0.9815
20473SOL    HW263958   8.081   1.464   7.142 -0.3908  0.4203  0.5264
20474SOL     OW63959   2.975   5.466   0.238 -0.0828 -0.0915  0.2823
20474SOL    HW163960   2.971   5.497   0.148  0.1055  0.2042  0.3760
20474SOL    HW263961   3.009   5.540   0.288 -0.0906 -0.2869  0.5813
20475SOL     OW63962   8.366   1.126   2.038 -0.4040 -0.2129  0.5668
20475SOL    HW163963   8.348   1.148   1.947 -0.4397  1.5935  1.0059
20475SOL    HW263964   8.386   1.209   2.080  1.1439 -1.2109  1.8702
20476SOL     OW63965   4.834   2.984   3.094  0.5110  0.2748  0.1091
20476SOL    HW163966   4.869   3.000   3.181 -1.0265  0.7018  0.6729
20476SOL    HW263967   4.781   2.905   3.103 -0.6925  1.0350 -0.1171
20477SOL     OW63968   2.619   4.071   0.290  0.3982  0.2126  0.7162
20477SOL    HW163969   2.677   4.035   0.224 -0.3316  0.0169  0.1823
20477SOL    HW263970   2.540   4.018   0.285  0.6313 -0.3056  2.2883
20478SOL     OW63971   8.621   2.576   6.290  0.1069  0.0586 -0.5520
20478SOL    HW163972   8.552   2.585   6.224 -0.3708 -1.2652 -0.2550
20478SOL    HW263973   8.702   2.577   6.241 -0.2932 -2.2229 -1.3444
20479SOL     OW63974   2.126   5.876   6.968  0.1094  0.5752  0.0831
20479SOL    HW163975   2.056   5.836   7.020  0.6703  0.9009  1.1008
20479SOL    HW263976   2.079   5.933   6.907 -0.5156  1.1778  1.0915
20480SOL     OW63977   3.807   6.261   2.210 -0.5893 -0.4234 -0.0997
20480SOL    HW163978   3.897   6.236   2.189 -0.1225  0.1482  1.2092
20480SOL    HW263979   3.803   6.354   2.189 -0.8158 -0.3973  0.0689
20481SOL     OW63980   5.865   1.708   3.445 -0.1109 -0.2244  0.0710
20481SOL    HW163981   5.947   1.675   3.409 -0.4244 -1.0119  0.0452
20481SOL    HW263982   5.808   1.719   3.369 -0.5931 -1.3617  0.2505
20482SOL     OW63983   8.486   1.403   9.772 -0.7345 -0.0546  0.0116
20482SOL    HW163984   8.405   1.438   9.810  0.8779  1.2593  2.3764
20482SOL    HW263985   8.490   1.313   9.802 -1.5130 -0.2521 -0.4594
20483SOL     OW63986   3.001   0.467   2.356 -0.4415  0.1259  0.1304
20483SOL    HW163987   2.907   0.477   2.341 -0.2570  0.9496 -0.5783
20483SOL    HW263988   3.026   0.549   2.399 -0.0781 -0.1380  0.4080
20484SOL     OW63989   3.198   4.382   9.321 -0.1158  0.9319  0.1950
20484SOL    HW163990   3.241   4.466   9.336 -0.6715  0.9778  1.6137
20484SOL    HW263991   3.147   4.367   9.401 -0.2161 -0.6299 -0.1545
20485SOL     OW63992   6.781   1.814   8.977  0.7069 -0.0266  0.5673
20485SOL    HW163993   6.873   1.837   8.990  0.5341  0.0735  1.6687
20485SOL    HW263994   6.736   1.899   8.974  0.7379 -0.0447 -0.7356
20486SOL     OW63995   0.203   7.297   6.252  0.4011  0.3478  0.4762
20486SOL    HW163996   0.258   7.287   6.329 -1.8230 -2.8358  1.7179
20486SOL    HW263997   0.114   7.279   6.282 -0.5081 -1.2147 -2.8448
20487SOL     OW63998   1.114   5.946   0.877  0.5334 -0.7131 -0.0199
20487SOL    HW163999   1.155   5.943   0.790  1.0057  0.2350  0.1601
20487SOL    HW264000   1.020   5.947   0.858  0.6430  1.3261 -0.6155
20488SOL     OW64001   4.310   0.618   2.835  0.2152  0.2798  0.3808
20488SOL    HW164002   4.332   0.646   2.924 -0.7690 -2.2328  1.4682
20488SOL    HW264003   4.382   0.560   2.810  0.0745  0.3233 -0.1320
20489SOL     OW64004   1.214   3.100   0.618  0.5574 -0.0353 -0.4807
20489SOL    HW164005   1.124   3.078   0.640  0.3956  0.8765 -0.2330
20489SOL    HW264006   1.213   3.111   0.523  0.4165 -0.0527 -0.4815
20490SOL     OW64007  10.112   1.801   5.403  0.1256 -0.1003 -0.4643
20490SOL    HW164008  10.104   1.724   5.347 -1.8919  1.2437 -2.1044
20490SOL    HW264009  10.044   1.789   5.470 -0.1775  0.2511 -0.7105
20491SOL     OW64010   4.549   5.120   8.494  0.1170  0.2628  0.2362
20491SOL    HW164011   4.532   5.206   8.456  0.4942  0.7711  1.1843
20491SOL    HW264012   4.536   5.059   8.422  0.0875  1.1334 -0.5119
20492SOL     OW64013   2.803   0.202   3.592 -0.2292 -0.4960  0.1011
20492SOL    HW164014   2.802   0.112   3.626  0.3339 -1.0530 -1.3110
20492SOL    HW264015   2.715   0.215   3.557 -0.1619 -0.6692 -0.1312
20493SOL     OW64016   2.517   9.781   2.086  0.1773 -0.1480  0.0094
20493SOL    HW164017   2.578   9.753   2.154  0.8738  0.0139 -0.5376
20493SOL    HW264018   2.546   9.734   2.008 -0.8803 -0.6567 -0.0797
20494SOL     OW64019  10.118   7.024   0.924  1.0495  0.5275 -0.3829
20494SOL    HW164020  10.119   7.057   0.834 -2.2165 -0.9955 -1.0728
20494SOL    HW264021  10.134   6.930   0.915 -0.6798  0.1243  0.4226
20495SOL     OW64022   5.678   9.651   4.909 -0.1341 -0.2219 -0.4177
20495SOL    HW164023   5.726   9.631   4.828 -1.1118  0.4595 -1.1769
20495SOL    HW264024   5.586   9.652   4.883 -0.4422  0.2291  0.6570
20496SOL     OW64025   0.146  10.114   0.134 -0.5193  0.0756  0.7793
20496SOL    HW164026   0.096  10.091   0.055 -0.2405  0.4851  0.4805
20496SOL    HW264027   0.096  10.075   0.206 -0.9649 -0.0039  0.4323
20497SOL     OW64028   4.605   5.330   7.242 -0.4356 -0.0473 -0.3175
20497SOL    HW164029   4.646   5.413   7.265 -0.1091  0.1196 -1.4439
20497SOL    HW264030   4.677   5.268   7.237 -0.4448 -0.0038 -1.1797
20498SOL     OW64031   3.115   9.334   4.877  0.8847  0.2424  0.2582
20498SOL    HW164032   3.134   9.321   4.784  0.5785  0.8773  0.1020
20498SOL    HW264033   3.138   9.425   4.894 -1.3150  0.8322  0.2350
20499SOL     OW64034   1.687   5.020   0.234 -0.4411 -0.1149 -0.1715
20499SOL    HW164035   1.711   5.012   0.327 -1.4557  2.5359  0.3507
20499SOL    HW264036   1.618   4.955   0.222  0.2424 -1.0352  0.7266
20500SOL     OW64037   5.334   7.344   4.393  0.0866 -0.1088 -0.1965
20500SOL    HW164038   5.248   7.378   4.372 -0.3092 -1.5756 -1.0132
20500SOL    HW264039   5.354   7.381   4.479 -0.0783  2.5734 -1.2525
20501SOL     OW64040   1.967   9.882   5.681 -0.3868  0.1813  0.4321
20501SOL    HW164041   1.942   9.876   5.774 -1.3243  1.1956  0.2580
20501SOL    HW264042   1.991   9.793   5.657 -0.1987 -0.1094  1.6363
20502SOL     OW64043   7.000   5.350   0.599  0.7623  0.2192  0.1963
20502SOL    HW164044   7.066   5.361   0.668  0.6602 -2.3470  0.7209
20502SOL    HW264045   6.988   5.439   0.564  3.2283  1.0207  1.2410
20503SOL     OW64046   2.711   8.110   2.041  0.2765 -0.2845  0.2730
20503SOL    HW164047   2.636   8.053   2.055 -0.5226  0.6799 -0.0004
20503SOL    HW264048   2.765   8.099   2.119 -0.3534 -0.6899  0.6546
20504SOL     OW64049   8.067   2.262   9.506  0.5590  0.3121  0.0147
20504SOL    HW164050   7.979   2.295   9.486  0.7749  0.8308 -0.0757
20504SOL    HW264051   8.054   2.207   9.584  0.1172  0.2037 -0.1315
20505SOL     OW64052   8.428   5.895   8.797 -0.2697 -0.1114 -0.0469
20505SOL    HW164053   8.454   5.859   8.882  1.3802  1.0746 -0.0154
20505SOL    HW264054   8.337   5.922   8.809 -0.9069 -2.4208  0.5118
20506SOL     OW64055   2.695   5.274   3.441 -0.0827  0.3517 -0.5210
20506SOL    HW164056   2.764   5.337   3.461 -0.4026 -0.5087  3.6565
20506SOL    HW264057   2.620   5.302   3.494 -1.0713 -1.9955 -0.6092
20507SOL     OW64058   0.810   9.022   2.511 -0.4104  0.0368  0.1937
20507SOL    HW164059   0.844   9.100   2.555 -0.3020  1.0437 -1.6305
20507SOL    HW264060   0.792   8.961   2.582  2.8694  0.3729  1.4212
20508SOL     OW64061   5.031   7.760   9.930 -0.6247  0.2752  0.7209
20508SOL    HW164062   4.942   7.728   9.942 -1.3271  1.8037 -0.2954
20508SOL    HW264063   5.062   7.779  10.019 -1.0527 -0.8872  1.1288
20509SOL     OW64064   8.421   8.979  10.039 -0.7093  0.0036 -0.2455
20509SOL    HW164065   8.498   9.002   9.987 -1.0805  0.7307 -0.4850
20509SOL    HW264066   8.347   8.993   9.979 -0.9967 -1.1553 -0.1764
20510SOL     OW64067   3.809   1.143   5.956  0.3468  0.3049  0.6828
20510SOL    HW164068   3.803   1.236   5.978  0.2941  0.9033 -1.7163
20510SOL    HW264069   3.725   1.123   5.913  0.5880 -0.6892  0.6656
20511SOL     OW64070   3.672   3.367   2.440  0.6121 -0.3436  0.3871
20511SOL    HW164071   3.663   3.290   2.496 -1.6773  0.2378  0.8753
20511SOL    HW264072   3.652   3.336   2.352 -0.3406 -0.3159  0.5897
20512SOL     OW64073   9.573   0.737   0.686 -0.0115  0.0969  0.5050
20512SOL    HW164074   9.665   0.734   0.657 -0.5957 -0.7665 -1.3463
20512SOL    HW264075   9.528   0.782   0.615 -1.2103 -0.4837  0.8885
20513SOL     OW64076   6.638   1.194   4.290 -0.2062 -0.6193  0.3223
20513SOL    HW164077   6.619   1.279   4.329 -0.5379 -0.0703 -1.0071
20513SOL    HW264078   6.585   1.192   4.210  0.3505 -1.7807 -0.0251
20514SOL     OW64079   9.109   8.128   3.174 -0.4938  0.1568  0.1219
20514SOL    HW164080   9.110   8.223   3.183  1.0120  0.0332  1.3142
20514SOL    HW264081   9.018   8.104   3.192 -0.9153  1.3729 -0.3203
20515SOL     OW64082   5.364   8.931   9.204  0.0411 -0.8046 -0.1095
20515SOL    HW164083   5.364   9.016   9.250 -1.0691 -1.4618  1.1451
20515SOL    HW264084   5.366   8.954   9.111  1.9009  0.5738  0.2250
20516SOL     OW64085   1.431   0.397   1.062 -0.0099 -0.2207  0.2671
20516SOL    HW164086   1.339   0.372   1.057  0.1374 -0.4298 -2.6976
20516SOL    HW264087   1.439   0.470   1.000  1.9868 -0.8580 -0.2600
20517SOL     OW64088   8.445   5.714   9.873 -0.1207 -0.4436  0.3377
20517SOL    HW164089   8.461   5.759   9.957  0.8591 -0.1343  0.0004
20517SOL    HW264090   8.362   5.669   9.885 -1.7210  2.3603  0.3232
20518SOL     OW64091   5.287   4.331   4.410 -0.7303  0.0736  0.3091
20518SOL    HW164092   5.329   4.341   4.495 -2.1868 -1.3471  1.2394
20518SOL    HW264093   5.214   4.393   4.412 -0.3088  0.5929 -0.2238
20519SOL     OW64094   8.416   6.161   8.123 -0.3421 -0.6112 -0.5154
20519SOL    HW164095   8.346   6.107   8.159 -0.1594  0.3365  1.3006
20519SOL    HW264096   8.490   6.101   8.113 -0.8067 -1.1752 -0.6245
20520SOL     OW64097   8.796   0.068   7.514 -0.3990 -0.4579  0.5818
20520SOL    HW164098   8.765   0.019   7.438  1.3214  0.6268 -0.8504
20520SOL    HW264099   8.861   0.011   7.554  2.0867  0.8406 -1.4645
20521SOL     OW64100   8.516   8.659   2.533  0.1898 -0.3103 -0.2762
20521SOL    HW164101   8.422   8.677   2.531 -0.4183 -3.1575  0.6371
20521SOL    HW264102   8.525   8.570   2.499  2.1833 -1.4116  2.8750
20522SOL     OW64103   6.911   5.026   4.445  0.0458 -0.0850 -0.2906
20522SOL    HW164104   6.970   4.986   4.381 -0.9573 -0.1900 -1.1479
20522SOL    HW264105   6.946   5.115   4.456 -0.4939  0.3374 -1.8972
20523SOL     OW64106   1.914   2.655   8.724 -0.4564  0.0299 -0.1717
20523SOL    HW164107   1.837   2.684   8.773 -1.4986 -2.1409 -0.4370
20523SOL    HW264108   1.949   2.583   8.777  0.2447 -0.2776 -1.0447
20524SOL     OW64109   3.951   0.973   6.755 -0.2355  0.2669  0.3591
20524SOL    HW164110   3.972   0.981   6.849 -1.7680 -0.1511  0.7443
20524SOL    HW264111   3.926   0.882   6.744  2.1530 -0.2677 -0.9362
20525SOL     OW64112   2.902   7.311   4.172 -0.3639 -1.1118  0.0881
20525SOL    HW164113   2.896   7.366   4.249  0.7064 -0.6175 -0.1729
20525SOL    HW264114   2.910   7.372   4.099 -2.8440 -1.5304 -0.5946
20526SOL     OW64115   2.531   3.313   0.516 -0.0249 -0.0355  0.6570
20526SOL    HW164116   2.442   3.347   0.504 -0.3285 -0.2226  2.2399
20526SOL    HW264117   2.584   3.389   0.539  0.5509  0.3185 -1.6943
20527SOL     OW64118   0.655   8.554   0.877  0.4685  0.4675  0.2841
20527SOL    HW164119   0.729   8.549   0.817 -0.7280  0.4314 -1.2164
20527SOL    HW264120   0.659   8.473   0.927  0.2377 -0.4940 -1.2322
20528SOL     OW64121   9.368   4.959   7.602  0.0719  0.2908 -0.1199
20528SOL    HW164122   9.427   4.917   7.539 -0.4054 -1.9747  0.8664
20528SOL    HW264123   9.300   4.893   7.618  0.1439  0.8438  2.6884
20529SOL     OW64124   9.603   4.248   0.363  0.0243 -0.3331  0.1567
20529SOL    HW164125   9.538   4.281   0.301  1.0928  0.5404 -0.5262
20529SOL    HW264126   9.608   4.315   0.431  1.4869  0.4748 -0.7202
20530SOL     OW64127   6.914   0.299   9.946 -0.2619 -0.5574  0.0194
20530SOL    HW164128   6.860   0.266  10.018  0.6908  0.9987  1.4969
20530SOL    HW264129   6.922   0.393   9.965  2.7744 -0.7253 -0.2765
20531SOL     OW64130   8.251   5.819   1.869  0.0086 -0.0503  0.8790
20531SOL    HW164131   8.261   5.726   1.890  0.7614 -0.8902 -2.8333
20531SOL    HW264132   8.157   5.834   1.867 -0.2220 -1.5116 -1.3474
20532SOL     OW64133   8.934   2.164   5.636  0.2503 -0.0086 -0.2926
20532SOL    HW164134   8.915   2.254   5.610 -0.3671 -0.1065 -0.1822
20532SOL    HW264135   8.854   2.116   5.618  1.1066 -0.8689 -1.8600
20533SOL     OW64136   8.448   2.519   4.892 -0.0694  0.2021 -0.2022
20533SOL    HW164137   8.414   2.595   4.844 -0.9694  0.2223  0.4507
20533SOL    HW264138   8.381   2.452   4.881 -0.1647  0.1255  0.8147
20534SOL     OW64139   5.817   3.056   6.065  0.4461 -0.0998  0.3412
20534SOL    HW164140   5.805   3.116   6.138  1.4261  0.9979 -0.3731
20534SOL    HW264141   5.733   3.057   6.018  0.4935  0.8236  0.2643
20535SOL     OW64142   5.226   2.601   3.611  0.3596 -0.5044 -0.3391
20535SOL    HW164143   5.301   2.658   3.626  0.3604 -0.3219 -1.0387
20535SOL    HW264144   5.169   2.650   3.552 -0.1509 -0.7810 -0.0785
20536SOL     OW64145   3.417   4.680   6.790  0.5912  0.3548 -0.5746
20536SOL    HW164146   3.486   4.614   6.781  0.1582  0.1044 -2.2927
20536SOL    HW264147   3.369   4.654   6.869 -0.5008 -2.2892 -2.0480
20537SOL     OW64148   0.966   4.504   6.635 -0.3411  0.1213 -0.7003
20537SOL    HW164149   1.047   4.539   6.672 -0.3411  0.3570 -0.9217
20537SOL    HW264150   0.981   4.409   6.628 -0.9849 -0.1685  1.5153
20538SOL     OW64151   8.575   8.764   0.416 -0.5944  0.0274 -0.1034
20538SOL    HW164152   8.494   8.715   0.427 -0.4421  0.0744  1.1977
20538SOL    HW264153   8.623   8.751   0.497  1.5889 -1.6051 -1.5889
20539SOL     OW64154   7.813   6.197   8.325  0.3764  0.1723 -0.2464
20539SOL    HW164155   7.717   6.195   8.328  0.3319  1.1827 -0.7309
20539SOL    HW264156   7.838   6.246   8.403  0.5754 -1.5264  0.7701
20540SOL     OW64157   9.787   3.171   3.260  0.0586 -0.2557 -0.2082
20540SOL    HW164158   9.848   3.241   3.239  1.9511 -1.5849  0.6691
20540SOL    HW264159   9.833   3.091   3.233 -0.5585 -1.4132  2.0229
20541SOL     OW64160   0.924  10.157   9.975  0.2397  0.1706 -0.1285
20541SOL    HW164161   0.960  10.183   9.891 -1.0659 -0.0464 -0.7641
20541SOL    HW264162   1.000  10.124  10.024  1.1965  1.3616 -0.7853
20542SOL     OW64163   1.925   4.361   9.641 -0.3063  0.4236  0.0606
20542SOL    HW164164   1.844   4.407   9.622  0.6160  1.2643 -1.9320
20542SOL    HW264165   1.977   4.423   9.693  0.0790  0.8530 -0.8276
20543SOL     OW64166   8.535   3.903   0.719 -0.1262  0.0610  0.0062
20543SOL    HW164167   8.555   3.883   0.627 -2.2086 -0.2692 -0.4055
20543SOL    HW264168   8.601   3.856   0.769 -0.6344 -2.0665 -1.2401
20544SOL     OW64169   4.662   9.424   5.228  0.0229 -0.3690 -0.3368
20544SOL    HW164170   4.652   9.376   5.146 -1.8723  1.4315 -1.2092
20544SOL    HW264171   4.574   9.455   5.248  0.3754 -1.1097  2.6122
20545SOL     OW64172   9.844   0.231   8.940  0.2443  0.0326 -0.0711
20545SOL    HW164173   9.905   0.284   8.992  0.7734 -0.7822  0.1490
20545SOL    HW264174   9.757   0.258   8.969  0.4741  1.6603 -0.8334
20546SOL     OW64175   4.520   7.815   3.448 -0.0511  0.4202 -0.0602
20546SOL    HW164176   4.432   7.824   3.484  0.1140  1.3641  0.1277
20546SOL    HW264177   4.558   7.903   3.455  0.6843  0.1616 -0.7130
20547SOL     OW64178   1.432   9.206   8.408 -0.4506  0.0483  0.2644
20547SOL    HW164179   1.374   9.262   8.459 -0.4163  1.2710 -1.0030
20547SOL    HW264180   1.388   9.197   8.323 -0.7971 -2.4266  0.6801
20548SOL     OW64181   2.819   8.129   6.455 -0.6402 -0.1817  0.3354
20548SOL    HW164182   2.879   8.062   6.488  1.6881  1.3787 -0.5813
20548SOL    HW264183   2.788   8.175   6.533  1.3681  0.6274  0.6870
20549SOL     OW64184   0.245   8.899   5.946 -0.1404  0.2625 -0.1059
20549SOL    HW164185   0.244   8.995   5.952  0.2877  0.2997 -0.5333
20549SOL    HW264186   0.318   8.880   5.887  0.4551 -0.3764  0.8212
20550SOL     OW64187   6.501   0.124   4.575  0.3872  0.9054 -0.6479
20550SOL    HW164188   6.540   0.146   4.660 -1.0964  1.4671 -0.1147
20550SOL    HW264189   6.547   0.044   4.549  2.4949  1.9793 -0.4218
20551SOL     OW64190   6.000   8.364   6.059 -0.7852  0.2053 -0.2439
20551SOL    HW164191   6.066   8.424   6.095  0.2655 -0.3279 -1.2527
20551SOL    HW264192   6.015   8.282   6.105 -1.0439  0.2095 -0.1527
20552SOL     OW64193   6.499   6.108   8.925 -0.1196 -0.2818 -0.0482
20552SOL    HW164194   6.412   6.080   8.899  0.9068 -0.9339 -2.9099
20552SOL    HW264195   6.544   6.027   8.950  0.1979 -0.1416 -0.1687
20553SOL     OW64196   4.992   1.115   8.673  0.8212 -0.0060  0.2111
20553SOL    HW164197   5.034   1.035   8.640  0.5596  0.3648 -1.0660
20553SOL    HW264198   5.064   1.168   8.707  1.2167  0.0224 -0.6645
20554SOL     OW64199  10.093   5.205   3.847  0.0428  0.4256 -0.1426
20554SOL    HW164200  10.182   5.224   3.878  0.1060  0.9988 -0.6706
20554SOL    HW264201  10.046   5.179   3.926  0.8150 -0.3967  0.0540
20555SOL     OW64202   6.915   3.802   9.064 -0.0140  0.0930 -0.3382
20555SOL    HW164203   6.959   3.748   8.998  0.2038 -0.3278  0.1475
20555SOL    HW264204   6.822   3.798   9.041  0.0104 -0.4364 -0.3378
20556SOL     OW64205  10.034   1.199   9.366 -0.9700  0.8407  0.2173
20556SOL    HW164206   9.976   1.275   9.370 -3.8094 -1.1962 -0.1543
20556SOL    HW264207  10.040   1.169   9.457  1.3628  2.3424  0.5822
20557SOL     OW64208   9.856   6.895   9.880  0.7880 -0.1326 -0.0353
20557SOL    HW164209   9.773   6.847   9.876  1.1991 -0.7964 -0.8698
20557SOL    HW264210   9.876   6.900   9.973  0.5737 -1.3070  0.0869
20558SOL     OW64211   0.054   9.362   1.614 -0.3407 -0.0967 -0.0235
20558SOL    HW164212  -0.019   9.334   1.670  0.5858 -1.1277  0.6580
20558SOL    HW264213   0.019   9.357   1.525 -0.4336 -2.6398  0.1435
20559SOL     OW64214   0.091   3.905   5.267 -0.0500 -0.3240 -0.4093
20559SOL    HW164215   0.115   3.922   5.176  1.3119 -0.5627 -0.1020
20559SOL    HW264216   0.134   3.823   5.289 -2.0829 -1.3737 -0.1721
20560SOL     OW64217   0.372   6.157   8.463 -0.0950  0.6743  0.3415
20560SOL    HW164218   0.320   6.081   8.489 -0.0650  0.3394 -0.5638
20560SOL    HW264219   0.338   6.228   8.517 -0.6568  0.1924  0.6372
20561SOL     OW64220   2.301   1.303   0.985 -0.1817 -0.0516 -0.2210
20561SOL    HW164221   2.237   1.282   0.917  0.0107 -0.6227 -0.2340
20561SOL    HW264222   2.358   1.226   0.988 -0.1134  0.0210  0.4951
20562SOL     OW64223   9.792   4.284   8.671 -0.0578  0.1060 -0.7967
20562SOL    HW164224   9.855   4.224   8.633  0.3389 -0.0279  0.0470
20562SOL    HW264225   9.786   4.356   8.609  0.1769 -0.3582 -1.3574
20563SOL     OW64226   1.308   5.134   4.669  0.0464 -0.4017  0.0427
20563SOL    HW164227   1.253   5.065   4.706  0.7892 -0.5666  0.8727
20563SOL    HW264228   1.266   5.215   4.696 -0.1112 -0.5291  0.1781
20564SOL     OW64229   3.556   1.087   3.346 -0.1850  0.0708 -0.1788
20564SOL    HW164230   3.534   1.151   3.279  0.1356 -1.5075 -1.8255
20564SOL    HW264231   3.641   1.115   3.380  0.0000  0.4603 -0.9565
20565SOL     OW64232   2.312   8.848   3.583 -0.0687  0.2163  0.6372
20565SOL    HW164233   2.256   8.820   3.656 -0.5650 -0.2413  0.0849
20565SOL    HW264234   2.401   8.838   3.616 -0.2707 -0.6945  0.9387
20566SOL     OW64235   5.350   1.262   3.356 -0.1641  0.6251 -0.0287
20566SOL    HW164236   5.433   1.227   3.322  0.0689  0.9985  0.1432
20566SOL    HW264237   5.335   1.215   3.437  0.2829  1.1006  0.3368
20567SOL     OW64238   5.249   5.613   8.827  0.5617 -0.0342  0.0914
20567SOL    HW164239   5.276   5.570   8.908  0.9412 -0.9889 -0.5395
20567SOL    HW264240   5.253   5.545   8.761 -2.2014  0.0896 -0.2673
20568SOL     OW64241   8.247   9.693   2.269  0.0743  0.3205  0.1590
20568SOL    HW164242   8.334   9.662   2.292  0.0979 -1.1354 -1.7454
20568SOL    HW264243   8.222   9.751   2.341  1.3279 -1.6945  2.3025
20569SOL     OW64244   3.125   8.207   1.885  0.2361  0.7986 -0.4019
20569SOL    HW164245   3.191   8.267   1.852  0.3053 -0.2166 -2.1826
20569SOL    HW264246   3.053   8.213   1.822  0.1157 -0.7213 -0.4277
20570SOL     OW64247   6.019   2.469   8.750 -0.2933 -0.4138  0.9499
20570SOL    HW164248   6.101   2.421   8.739 -0.0251 -0.3577  2.6550
20570SOL    HW264249   5.973   2.455   8.667  0.7093 -1.8138  0.6013
20571SOL     OW64250   8.571   6.388   6.766  0.0570 -0.5148  0.3976
20571SOL    HW164251   8.624   6.360   6.840  1.8286  0.3529 -0.5135
20571SOL    HW264252   8.614   6.350   6.689  0.8288  2.1599 -0.5886
20572SOL     OW64253   0.454   3.121   3.945  0.3057  0.2682  0.0460
20572SOL    HW164254   0.384   3.062   3.917 -0.1251  0.5913  0.4385
20572SOL    HW264255   0.507   3.135   3.866  0.5600 -0.8518  0.0132
20573SOL     OW64256   3.888   0.980   7.045 -0.0558 -0.0291  0.4161
20573SOL    HW164257   3.886   1.075   7.032 -1.0176 -0.2495 -1.0591
20573SOL    HW264258   3.797   0.957   7.067  0.7430 -0.1998  3.8715
20574SOL     OW64259   1.848   1.988   1.637  0.5689  0.0350  0.8855
20574SOL    HW164260   1.935   1.959   1.664  0.7160  0.7873  1.2256
20574SOL    HW264261   1.790   1.917   1.663  1.0721 -0.4393  0.7201
20575SOL     OW64262   0.706   0.970   1.995 -0.0592 -0.0271  0.5196
20575SOL    HW164263   0.790   1.000   2.029  0.5236 -2.7798  1.6576
20575SOL    HW264264   0.707   0.993   1.902  2.5864 -1.3088  0.2034
20576SOL     OW64265   5.552   2.930   3.292  0.2632 -0.3452 -0.8647
20576SOL    HW164266   5.510   2.993   3.351  0.5537 -0.9361 -0.0048
20576SOL    HW264267   5.630   2.975   3.261  1.2748 -0.8030  0.9255
20577SOL     OW64268   6.850   3.259   8.367  0.2563 -0.2180  0.5920
20577SOL    HW164269   6.843   3.243   8.273 -0.1833 -2.0810  0.9216
20577SOL    HW264270   6.908   3.335   8.374 -1.3589  1.2384 -1.2543
20578SOL     OW64271   3.901   7.131   5.109 -0.7414  0.4704 -0.0813
20578SOL    HW164272   3.915   7.056   5.167  1.4744 -0.3452 -1.5848
20578SOL    HW264273   3.812   7.118   5.074 -0.3712 -1.4941 -0.3516
20579SOL     OW64274   0.700   1.313   0.266  0.0826 -0.0110 -0.0539
20579SOL    HW164275   0.768   1.380   0.258  0.1293 -0.1752 -1.0595
20579SOL    HW264276   0.640   1.348   0.333  1.2661  0.0285  0.9968
20580SOL     OW64277   2.350   8.250   8.319 -0.6229 -0.2355 -0.8416
20580SOL    HW164278   2.350   8.326   8.261 -0.7305  2.2154  2.1894
20580SOL    HW264279   2.269   8.258   8.368 -0.9607 -2.7420 -0.9439
20581SOL     OW64280   7.919   5.895   7.618  0.0755 -0.7452  0.0057
20581SOL    HW164281   8.014   5.895   7.608  0.2361  1.2167  1.2120
20581SOL    HW264282   7.903   5.855   7.704  0.0103  1.2423  0.9608
20582SOL     OW64283   4.865   9.143   0.535 -0.7361 -0.2809 -0.4012
20582SOL    HW164284   4.916   9.066   0.562  0.4544  0.7924  0.4661
20582SOL    HW264285   4.929   9.199   0.490 -1.3269  0.7522  0.0328
20583SOL     OW64286   1.674   9.311   1.081  0.0098  0.7598 -0.5236
20583SOL    HW164287   1.662   9.221   1.111 -0.9528  0.7884 -0.8047
20583SOL    HW264288   1.696   9.302   0.988 -0.0637  0.8148 -0.5460
20584SOL     OW64289   2.734   3.545   5.858 -0.3288 -0.1488  0.0745
20584SOL    HW164290   2.812   3.591   5.887 -0.4192  0.5528 -0.7919
20584SOL    HW264291   2.681   3.535   5.938  0.3333 -0.0452  0.5315
20585SOL     OW64292   1.304   4.391   1.219 -0.3731  0.0612  0.5456
20585SOL    HW164293   1.315   4.372   1.126  1.9891  2.0211  0.3512
20585SOL    HW264294   1.278   4.483   1.222 -2.4800 -0.5250  1.7813
20586SOL     OW64295   9.080   5.525   0.945  0.3637  0.5202  0.3233
20586SOL    HW164296   9.000   5.547   0.993  1.1009  1.7699  1.0084
20586SOL    HW264297   9.127   5.608   0.937  0.3279  0.3343 -2.4914
20587SOL     OW64298   5.030   3.392   0.769 -0.3370 -0.5568  0.1294
20587SOL    HW164299   5.014   3.404   0.675  0.5508  0.7346  0.1287
20587SOL    HW264300   4.942   3.389   0.808 -0.7037 -0.0588 -0.6320
20588SOL     OW64301   3.963   7.601   8.403  0.4420  0.1056  0.1364
20588SOL    HW164302   3.973   7.688   8.443 -1.2408  0.2319  0.3090
20588SOL    HW264303   4.003   7.541   8.465  1.2047  0.7024  0.2315
20589SOL     OW64304   5.754   5.048   5.074  0.1325 -0.5584  0.6687
20589SOL    HW164305   5.707   5.025   4.993 -0.2289  0.0944  0.6865
20589SOL    HW264306   5.814   5.117   5.048 -0.9405  0.6000  1.2304
20590SOL     OW64307   2.432   0.281   4.579 -0.1905 -0.3029  0.4893
20590SOL    HW164308   2.461   0.272   4.670 -0.1506 -0.8696  0.4191
20590SOL    HW264309   2.344   0.319   4.586 -0.3597 -0.7486  0.7792
20591SOL     OW64310   5.213   9.297   1.784  0.3494 -0.0555  0.1840
20591SOL    HW164311   5.292   9.264   1.742  1.1178  0.8667  0.8802
20591SOL    HW264312   5.176   9.360   1.722 -0.4200 -1.2511 -0.5915
20592SOL     OW64313   8.433   3.617   9.433 -0.9029 -0.3869  0.2098
20592SOL    HW164314   8.355   3.623   9.378 -0.6729 -1.8198 -0.2802
20592SOL    HW264315   8.400   3.618   9.522 -1.4554 -0.6199  0.0067
20593SOL     OW64316   6.999   5.019   1.816  0.4873 -0.0325 -0.2379
20593SOL    HW164317   6.913   5.060   1.804  0.9870  0.8572 -0.8435
20593SOL    HW264318   7.003   4.951   1.749 -1.4100 -2.9006  2.4371
20594SOL     OW64319   9.302   1.202   5.256 -0.1484 -0.1162  0.9889
20594SOL    HW164320   9.255   1.280   5.227  0.8118 -0.5109 -1.7078
20594SOL    HW264321   9.383   1.234   5.293  0.7148  0.1316 -1.0730
20595SOL     OW64322   6.080   1.039   3.174  0.6037 -0.3406 -0.4370
20595SOL    HW164323   6.151   1.077   3.226  0.8614  0.4308 -1.3271
20595SOL    HW264324   6.002   1.050   3.228  0.7892  0.8653 -0.4015
20596SOL     OW64325   8.728  10.180   4.876  0.5752  0.0097 -0.6414
20596SOL    HW164326   8.699  10.185   4.967 -2.1117  0.4481 -1.4615
20596SOL    HW264327   8.779  10.099   4.872  0.8511  0.0583  1.2671
20597SOL     OW64328   7.924   7.149   9.399 -0.3131 -0.2183 -0.0018
20597SOL    HW164329   7.935   7.062   9.437 -0.4564  1.0427  2.9984
20597SOL    HW264330   7.993   7.202   9.439 -0.8611  1.3170 -1.0435
20598SOL     OW64331   9.039   0.092   5.303 -0.3167  0.4190 -0.4968
20598SOL    HW164332   9.113   0.091   5.363  0.1701  2.8359 -0.9900
20598SOL    HW264333   9.078   0.114   5.218 -1.8250  4.0964 -0.3294
20599SOL     OW64334   9.640   8.507   8.627  0.1507  0.4789  0.2128
20599SOL    HW164335   9.590   8.566   8.682  1.6295 -0.3882  2.5405
20599SOL    HW264336   9.574   8.452   8.584 -0.9953  0.9165  1.3964
20600SOL     OW64337   1.484   7.800   8.060 -0.4281  0.4526  0.0022
20600SOL    HW164338   1.570   7.839   8.075  0.7203 -1.4561 -1.3373
20600SOL    HW264339   1.479   7.729   8.124 -1.7704  1.6320  1.2469
20601SOL     OW64340   5.651   1.041   3.575 -0.3332 -0.4816  0.8071
20601SOL    HW164341   5.723   1.092   3.539  0.1918 -0.2569  2.1338
20601SOL    HW264342   5.572   1.087   3.545  0.1283  1.2912  2.1755
20602SOL     OW64343   0.054   1.874   1.833 -0.6882 -0.2058 -0.3417
20602SOL    HW164344   0.114   1.801   1.816 -0.5656 -0.3491  0.6645
20602SOL    HW264345   0.079   1.941   1.770  0.3340 -0.3830 -0.1440
20603SOL     OW64346   9.803   8.391   1.745 -0.0772  0.5806 -0.0013
20603SOL    HW164347   9.853   8.310   1.735  0.3442  0.7495  0.7072
20603SOL    HW264348   9.719   8.372   1.704  0.9742  0.7046 -2.2931
20604SOL     OW64349   8.931   6.672   9.388  0.0614 -0.3416 -0.1119
20604SOL    HW164350   9.021   6.693   9.413 -0.2462 -0.9710  1.5652
20604SOL    HW264351   8.938   6.633   9.301  1.3898 -0.2610 -0.0378
20605SOL     OW64352   3.183   6.765   7.459 -0.5395  0.0299  0.5652
20605SOL    HW164353   3.143   6.729   7.537  0.9368 -0.7808  0.9757
20605SOL    HW264354   3.274   6.782   7.484 -0.3758  0.9591 -0.5934
20606SOL     OW64355   6.008   2.545   9.918  0.2407  0.1329  0.3937
20606SOL    HW164356   5.956   2.569   9.994  1.6611  0.4099  1.2918
20606SOL    HW264357   6.094   2.586   9.933  0.9033 -0.7893 -0.7703
20607SOL     OW64358   3.793   4.838  10.077  0.3295 -0.5486  0.2450
20607SOL    HW164359   3.854   4.907  10.105  1.4235 -1.0600 -0.8273
20607SOL    HW264360   3.761   4.800  10.159  2.0882 -0.8021  0.8481
20608SOL     OW64361   9.109   9.012   5.872 -0.0364 -0.0232  0.0371
20608SOL    HW164362   9.051   9.014   5.948  1.0554 -0.0179  0.8821
20608SOL    HW264363   9.114   9.103   5.842 -0.6542 -0.0625 -0.1901
20609SOL     OW64364   0.353   0.701   6.127 -0.3924  0.5348 -0.6132
20609SOL    HW164365   0.404   0.630   6.087  0.2859  1.6051 -1.6713
20609SOL    HW264366   0.391   0.781   6.091 -0.2221  1.5040  1.6545
20610SOL     OW64367   5.609   6.304   3.351 -0.1465  0.1929  0.3479
20610SOL    HW164368   5.581   6.229   3.403  0.5932 -0.5801 -0.3519
20610SOL    HW264369   5.529   6.340   3.314 -0.3150 -1.5690 -1.0731
20611SOL     OW64370   1.712   5.656   6.964 -0.2608 -0.4092 -0.2010
20611SOL    HW164371   1.694   5.563   6.978 -0.9396 -0.0612  1.3901
20611SOL    HW264372   1.766   5.681   7.039 -0.0654  0.4865 -0.6343
20612SOL     OW64373   0.411   8.179   4.943  0.2926  0.2239 -0.1094
20612SOL    HW164374   0.501   8.155   4.921 -0.6696 -2.1354 -1.6829
20612SOL    HW264375   0.381   8.232   4.869 -0.6551 -1.8004 -1.2221
20613SOL     OW64376   0.103   9.615   9.078 -0.3061 -0.7371  0.3477
20613SOL    HW164377   0.080   9.656   9.161  0.9103  0.2758  0.2083
20613SOL    HW264378   0.099   9.687   9.014  1.4746 -0.9126  0.0276
20614SOL     OW64379   8.224   3.720   1.167 -0.1998  0.6346  0.3117
20614SOL    HW164380   8.150   3.780   1.155 -1.3330 -0.9953 -1.1555
20614SOL    HW264381   8.279   3.762   1.232 -1.0555  3.1888 -0.5688
20615SOL     OW64382   0.694   2.206   4.538 -0.0769 -0.0616  0.3123
20615SOL    HW164383   0.730   2.133   4.589  1.5287 -0.5023 -1.4011
20615SOL    HW264384   0.752   2.212   4.462 -0.8759  2.2799 -0.1264
20616SOL     OW64385   9.740   1.362   7.401  0.1760  0.3599  0.0841
20616SOL    HW164386   9.690   1.356   7.319  0.7202  0.3151 -0.2471
20616SOL    HW264387   9.725   1.451   7.431  1.0200  0.7889 -0.7406
20617SOL     OW64388   2.718   1.532   0.979 -0.1565  0.3820 -0.5305
20617SOL    HW164389   2.734   1.514   0.886  0.2278 -1.1006 -0.1770
20617SOL    HW264390   2.656   1.464   1.007  0.1873  0.4613  0.4494
20618SOL     OW64391   6.117   3.106   4.633 -0.3507  0.0949 -0.1039
20618SOL    HW164392   6.212   3.095   4.631 -0.5578 -1.7670 -0.5556
20618SOL    HW264393   6.100   3.160   4.710  1.0990  0.7492 -0.2431
20619SOL     OW64394   8.220   9.319   7.054  0.2380 -0.4454 -0.4475
20619SOL    HW164395   8.191   9.391   7.110 -2.2442 -1.5409 -0.2394
20619SOL    HW264396   8.311   9.304   7.079  0.5490  2.0933  0.0339
20620SOL     OW64397   6.599   3.889   8.612 -0.5604 -0.4349 -0.2267
20620SOL    HW164398   6.645   3.805   8.611  0.7994  0.2257  2.8255
20620SOL    HW264399   6.649   3.945   8.553 -1.6228 -1.7800 -2.4887
20621SOL     OW64400   8.661   7.424   4.191  0.8416 -0.3591  0.2380
20621SOL    HW164401   8.679   7.437   4.098 -1.2838 -0.2843 -0.1875
20621SOL    HW264402   8.692   7.505   4.233 -0.1534  0.5111 -0.6884
20622SOL     OW64403   3.527   4.039   4.077 -0.2370 -0.8432  0.1072
20622SOL    HW164404   3.493   4.086   4.153 -0.8259  0.8201 -1.1383
20622SOL    HW264405   3.606   4.089   4.052  1.5813 -3.0310  1.2939
20623SOL     OW64406   3.250   8.963   9.277 -0.1393 -0.1875 -0.0496
20623SOL    HW164407   3.180   8.903   9.250  0.3712  0.2694 -2.4989
20623SOL    HW264408   3.317   8.953   9.209  0.1528  2.8191 -0.2495
20624SOL     OW64409   4.208  10.152   2.605 -0.2601  0.0406 -0.7330
20624SOL    HW164410   4.188  10.064   2.575 -1.1533 -0.0778  0.2159
20624SOL    HW264411   4.169  10.209   2.538  0.4131 -0.2767 -1.4044
20625SOL     OW64412   4.981  10.129   6.028  0.4299 -0.2892  0.2818
20625SOL    HW164413   5.001  10.036   6.033 -0.1672 -0.4809 -0.6739
20625SOL    HW264414   5.002  10.153   5.938 -0.9706  0.1151  0.0511
20626SOL     OW64415   8.259   2.362   9.176  0.0989 -0.1528 -0.0646
20626SOL    HW164416   8.284   2.271   9.192  1.2491  0.0483 -0.6146
20626SOL    HW264417   8.164   2.361   9.168 -0.0763 -0.9985  1.8909
20627SOL     OW64418   8.882   8.474   9.213  0.0701  0.3803  0.0094
20627SOL    HW164419   8.857   8.479   9.121 -2.1791 -0.5238  0.5340
20627SOL    HW264420   8.839   8.395   9.246  0.1255  1.1496  2.0264
20628SOL     OW64421   4.311   9.016   2.743  0.6791  0.6528  0.1310
20628SOL    HW164422   4.381   8.966   2.786 -0.0609 -0.5547 -0.0551
20628SOL    HW264423   4.265   8.952   2.690 -1.2166  1.2287  1.0502
20629SOL     OW64424   8.236   0.684   6.716 -0.0735  0.0738  0.0716
20629SOL    HW164425   8.305   0.687   6.783 -1.8515 -3.0398  2.1543
20629SOL    HW264426   8.162   0.729   6.756 -1.7628 -3.4138  1.0838
20630SOL     OW64427   9.180   4.754   3.240 -0.6821  0.0676  0.4979
20630SOL    HW164428   9.171   4.781   3.331  0.1883 -0.0909  0.6388
20630SOL    HW264429   9.114   4.686   3.228 -1.3894  0.6987  0.7620
20631SOL     OW64430   6.449   9.212   5.401 -0.3158 -0.1718 -0.8869
20631SOL    HW164431   6.541   9.195   5.384 -0.1011  1.5558 -1.5581
20631SOL    HW264432   6.444   9.307   5.417 -1.8650 -0.3427 -0.2107
20632SOL     OW64433   2.419   1.641   4.147 -0.2200 -0.1105  0.4728
20632SOL    HW164434   2.506   1.601   4.152  0.1067  0.4160 -0.7618
20632SOL    HW264435   2.436   1.734   4.135 -0.9490 -0.1067 -0.5853
20633SOL     OW64436   1.614   1.312   8.015 -0.5382 -0.7096 -0.0756
20633SOL    HW164437   1.523   1.319   8.042 -0.5524  0.1679 -0.3233
20633SOL    HW264438   1.661   1.372   8.074 -0.4320  0.4897 -1.3626
20634SOL     OW64439   6.456   0.198   9.096 -0.5682  0.1834  0.6548
20634SOL    HW164440   6.533   0.232   9.141 -0.7075  0.3298  0.7820
20634SOL    HW264441   6.484   0.114   9.059  0.1514  1.0289 -0.7596
20635SOL     OW64442   3.382   5.592   2.944 -0.0502 -0.0540 -0.4369
20635SOL    HW164443   3.336   5.509   2.953  0.0749 -0.3943 -2.7509
20635SOL    HW264444   3.329   5.654   2.994 -0.9822 -1.2074  0.0264
20636SOL     OW64445   6.502   4.413   3.766 -0.4231 -0.2314  0.4235
20636SOL    HW164446   6.486   4.340   3.826 -0.3356 -0.9854 -0.4514
20636SOL    HW264447   6.571   4.464   3.808 -0.2883 -0.8136  0.9241
20637SOL     OW64448   4.816   1.027   1.773  0.6473 -0.4416 -0.5918
20637SOL    HW164449   4.863   0.960   1.823  1.6697 -1.9780 -3.4986
20637SOL    HW264450   4.871   1.105   1.779  0.2412 -0.2972  1.4935
20638SOL     OW64451   9.975   2.824   5.460  0.2555 -0.0403 -0.4403
20638SOL    HW164452   9.981   2.853   5.551 -1.4520  1.9169 -0.9078
20638SOL    HW264453  10.052   2.863   5.417  0.0681  0.5836 -0.2179
20639SOL     OW64454   7.451   8.875   3.390  0.6445  0.5732 -0.6318
20639SOL    HW164455   7.507   8.951   3.407  2.0776 -0.5898 -0.0522
20639SOL    HW264456   7.473   8.850   3.300  2.4798 -1.0166  0.2206
20640SOL     OW64457   9.368   4.612   1.236 -0.3864 -0.1974 -0.1595
20640SOL    HW164458   9.298   4.639   1.295 -0.2872 -0.2848  0.0014
20640SOL    HW264459   9.438   4.583   1.295 -0.4777 -0.7617 -0.3294
20641SOL     OW64460   6.353   1.010   7.831  0.6247  0.3111  0.0763
20641SOL    HW164461   6.347   1.106   7.836  2.6695  0.4295  0.7549
20641SOL    HW264462   6.331   0.980   7.919 -0.4180  0.1195 -0.2438
20642SOL     OW64463   0.974   5.268   8.904 -0.7453  0.0597 -0.2869
20642SOL    HW164464   1.063   5.305   8.907 -1.3543  1.5241  0.5898
20642SOL    HW264465   0.947   5.278   8.813 -0.7676  1.4937 -0.1340
20643SOL     OW64466   2.141   6.294   6.034 -0.3142 -0.1894 -0.5724
20643SOL    HW164467   2.187   6.364   6.079 -1.8457 -0.6887  1.8506
20643SOL    HW264468   2.123   6.329   5.947 -0.2631  2.0815  0.3089
20644SOL     OW64469   1.019   1.816   0.640  0.0027 -0.3432  0.0414
20644SOL    HW164470   1.076   1.888   0.668 -0.6870  0.2494 -0.0618
20644SOL    HW264471   0.932   1.839   0.673 -0.3567 -0.7967 -0.5703
20645SOL     OW64472   0.068   2.728   4.635 -0.4105  0.2466  0.0347
20645SOL    HW164473   0.096   2.644   4.598  0.6487  1.5117 -2.1431
20645SOL    HW264474   0.132   2.747   4.703  0.5984  0.2892 -0.9108
20646SOL     OW64475   9.032   5.947   2.568 -0.2655 -0.3139  0.0594
20646SOL    HW164476   8.967   5.998   2.522  0.4692  0.7556  0.1812
20646SOL    HW264477   8.999   5.940   2.658 -0.7363 -0.6998 -0.1468
20647SOL     OW64478   7.808   5.322   9.965  0.2461 -0.1564 -0.1679
20647SOL    HW164479   7.776   5.408   9.937 -2.7868 -1.7052 -1.6254
20647SOL    HW264480   7.772   5.261   9.901  0.4057 -2.8087  2.1845
20648SOL     OW64481   2.223   1.492   3.988 -0.3961 -0.3262 -0.0005
20648SOL    HW164482   2.307   1.524   4.021  0.1119 -0.5396 -1.0663
20648SOL    HW264483   2.158   1.537   4.042  0.3707  0.6380  0.1488
20649SOL     OW64484   6.415   3.887   1.084  0.1162 -0.6041 -0.3255
20649SOL    HW164485   6.401   3.829   1.009 -2.2049  0.1454 -0.5184
20649SOL    HW264486   6.366   3.846   1.156  0.6409 -0.2631  0.2284
20650SOL     OW64487   0.597   4.072   7.695  0.9736  0.0404 -1.0436
20650SOL    HW164488   0.552   4.125   7.761 -0.1128  0.7121 -2.2889
20650SOL    HW264489   0.624   4.136   7.628  2.0650 -0.6263 -1.2518
20651SOL     OW64490   2.990   9.523   9.027 -0.7887  0.5046  0.3978
20651SOL    HW164491   3.003   9.613   9.057 -1.0923 -0.2785  3.0261
20651SOL    HW264492   2.902   9.501   9.057 -0.0581 -1.2306  1.3069
20652SOL     OW64493   4.081   6.212   8.606 -0.7431  0.2489 -0.0122
20652SOL    HW164494   4.073   6.229   8.513 -2.2376 -3.2627 -0.6146
20652SOL    HW264495   4.171   6.182   8.617 -0.8344 -0.2192 -0.5064
20653SOL     OW64496   6.322   4.256   3.559 -0.2915 -0.5171 -0.1413
20653SOL    HW164497   6.378   4.258   3.637  2.0230  0.4605 -1.7775
20653SOL    HW264498   6.289   4.345   3.551 -1.0710 -0.7851  0.1147
20654SOL     OW64499   1.480   5.974   8.899 -0.6284 -0.1550 -0.0081
20654SOL    HW164500   1.499   6.051   8.844  0.0495 -0.2630  0.0765
20654SOL    HW264501   1.562   5.925   8.900 -1.1221 -0.9907 -0.2331
20655SOL     OW64502   4.324   0.493   5.591  0.0812  0.2051  0.0061
20655SOL    HW164503   4.233   0.496   5.561 -0.0033  0.7814  0.3025
20655SOL    HW264504   4.369   0.560   5.540  0.5470 -0.7180 -0.8005
20656SOL     OW64505   8.413   5.030   8.357 -0.1053 -0.0112  0.7376
20656SOL    HW164506   8.439   4.974   8.430 -1.5131  0.3164  1.4953
20656SOL    HW264507   8.399   5.116   8.396 -1.6425 -0.0153  0.2272
20657SOL     OW64508   8.774   2.809   9.855 -0.4302 -0.0811 -0.0309
20657SOL    HW164509   8.712   2.871   9.815  0.2381  1.3510  1.1024
20657SOL    HW264510   8.825   2.863   9.915  1.0780 -1.4974 -0.0329
20658SOL     OW64511   5.504   6.579   5.398 -0.0401 -0.0032 -0.1399
20658SOL    HW164512   5.582   6.611   5.354  0.2998 -0.0323  0.4496
20658SOL    HW264513   5.495   6.633   5.476 -0.8382  0.2758 -0.4135
20659SOL     OW64514   8.767   0.675  10.138  0.2966 -0.1392  0.1363
20659SOL    HW164515   8.734   0.737  10.072 -0.0057  0.2734  0.6696
20659SOL    HW264516   8.733   0.590  10.111 -0.2701  0.1119  0.0604
20660SOL     OW64517   3.781   6.636   3.441 -0.1003  0.3635 -0.0348
20660SOL    HW164518   3.693   6.669   3.459 -1.6515 -3.4283 -0.0702
20660SOL    HW264519   3.794   6.653   3.348 -2.0070 -1.4469 -0.6939
20661SOL     OW64520   8.287   1.003   3.286 -0.4852  0.5736  0.6613
20661SOL    HW164521   8.364   1.054   3.309  0.2820  0.1582 -0.8894
20661SOL    HW264522   8.298   0.984   3.193 -1.9109 -0.4370  0.6787
20662SOL     OW64523   2.978   0.199   0.067 -0.1665 -0.3165  0.0814
20662SOL    HW164524   3.007   0.252  -0.007 -0.7052  1.0283  0.8152
20662SOL    HW264525   3.055   0.190   0.122  0.1272 -0.9725 -0.4193
20663SOL     OW64526   0.463   2.043   2.906  0.2379  0.8075 -0.0111
20663SOL    HW164527   0.405   2.031   2.831 -0.9406 -0.7133  1.0914
20663SOL    HW264528   0.541   1.992   2.885 -1.8409 -3.2402  1.5638
20664SOL     OW64529   5.794   2.508   8.906 -0.1329  0.0207  0.4311
20664SOL    HW164530   5.868   2.508   8.846 -0.3974 -0.0923  0.1059
20664SOL    HW264531   5.832   2.484   8.991  0.1990 -0.0568  0.2611
20665SOL     OW64532   8.725   1.851   6.141 -0.3267 -0.1782 -0.2549
20665SOL    HW164533   8.670   1.780   6.108 -0.1650 -0.1280 -0.6438
20665SOL    HW264534   8.812   1.832   6.106  0.0688 -0.6612  0.9864
20666SOL     OW64535   6.924   1.655   9.602  0.1017  0.1562  0.1202
20666SOL    HW164536   6.861   1.717   9.564  0.3110  0.9334  1.0370
20666SOL    HW264537   6.879   1.618   9.677  0.9300  1.1216  1.1075
20667SOL     OW64538   4.191   8.963   6.483  0.3182 -0.3203  0.3648
20667SOL    HW164539   4.233   8.983   6.567  0.5729  1.1632 -0.1006
20667SOL    HW264540   4.250   8.900   6.442  0.2784 -0.9256  1.2178
20668SOL     OW64541   8.623   5.156   5.874 -0.1952 -0.1283  0.1462
20668SOL    HW164542   8.681   5.157   5.950 -0.4076 -0.0494  0.3075
20668SOL    HW264543   8.580   5.242   5.876 -1.2085 -0.6427  0.7104
20669SOL     OW64544   6.444   8.967   5.799  0.0962  0.4991 -0.7044
20669SOL    HW164545   6.494   9.048   5.815  0.2334  0.1652  0.5770
20669SOL    HW264546   6.508   8.897   5.811 -0.3438  0.1406 -0.4562
20670SOL     OW64547   1.785   9.264   3.708  0.2403  0.6806  0.2849
20670SOL    HW164548   1.730   9.342   3.705 -0.4244  0.1481 -2.5665
20670SOL    HW264549   1.855   9.282   3.645  1.0440 -0.3387  0.8724
20671SOL     OW64550   6.981   3.353   6.778 -0.0117 -0.4321  0.4265
20671SOL    HW164551   6.908   3.293   6.759 -1.1731  0.9050  0.5936
20671SOL    HW264552   6.946   3.413   6.843  0.4258  1.7662 -1.3133
20672SOL     OW64553   6.985   9.865   6.227  0.3281  0.7091 -0.6984
20672SOL    HW164554   7.024   9.939   6.181 -0.4216  1.4665 -0.1288
20672SOL    HW264555   6.893   9.864   6.199 -0.0607  0.9813  0.5149
20673SOL     OW64556   3.410   4.157   1.990  0.6262 -0.4547 -0.0464
20673SOL    HW164557   3.326   4.128   2.024  0.7869  0.1632  0.9084
20673SOL    HW264558   3.389   4.199   1.906  0.1167 -1.1761 -0.2874
20674SOL     OW64559   2.962   2.004   7.367  0.5729  0.3469 -0.1994
20674SOL    HW164560   2.943   2.066   7.297  0.0544 -0.3881 -0.7228
20674SOL    HW264561   2.969   1.920   7.323 -0.5398 -0.2463  0.7225
20675SOL     OW64562   4.820   5.053   7.668 -0.0485  0.1210  0.4846
20675SOL    HW164563   4.913   5.071   7.653 -0.4411  0.3648 -1.7455
20675SOL    HW264564   4.806   5.080   7.759  2.3435 -1.1472  1.2821
20676SOL     OW64565   2.792   9.256   0.795  0.1958  0.7773  0.2578
20676SOL    HW164566   2.881   9.286   0.776 -0.2312  2.3121  0.6853
20676SOL    HW264567   2.798   9.215   0.881  0.2568  1.8921  0.7880
20677SOL     OW64568   0.712   5.663   0.015 -0.1908  0.2181 -0.3670
20677SOL    HW164569   0.714   5.637   0.107 -2.9320 -1.1389 -0.6337
20677SOL    HW264570   0.704   5.581  -0.034  1.3274  0.9223 -1.8229
20678SOL     OW64571   0.467   9.390   0.433  0.1460  0.5072 -0.3002
20678SOL    HW164572   0.515   9.414   0.512  0.3791  1.2828 -0.6696
20678SOL    HW264573   0.534   9.353   0.375  0.1084  0.6026 -0.4050
20679SOL     OW64574   1.687   7.430   8.623  0.8905 -0.2486 -0.0084
20679SOL    HW164575   1.640   7.506   8.589 -0.7910 -1.3215 -0.1368
20679SOL    HW264576   1.698   7.447   8.716  1.0604  0.4176 -0.1511
20680SOL     OW64577   9.088   9.614   9.258  0.5177  0.0475  0.3945
20680SOL    HW164578   9.021   9.546   9.266  0.4963  0.1596  1.1579
20680SOL    HW264579   9.078   9.646   9.168 -0.0256 -0.3764  0.2985
20681SOL     OW64580   7.669   9.111   3.611  0.0843 -0.0418  0.3334
20681SOL    HW164581   7.750   9.141   3.571  0.5910 -2.0833 -0.2631
20681SOL    HW264582   7.604   9.177   3.589  0.1453 -1.4304 -4.5653
20682SOL     OW64583   5.055   2.846   7.752 -0.6272  0.3753 -0.6436
20682SOL    HW164584   5.063   2.779   7.821  0.6476  1.5261  0.3579
20682SOL    HW264585   4.961   2.863   7.746 -0.7157  0.6626  1.2157
20683SOL     OW64586   1.894   6.390   8.920 -0.4239  0.4969 -0.6191
20683SOL    HW164587   1.812   6.364   8.963  0.1503 -2.2451 -1.0647
20683SOL    HW264588   1.962   6.363   8.982  0.1746  2.4186 -0.4221
20684SOL     OW64589   6.040   5.493   2.699  0.1861  0.7120  0.4321
20684SOL    HW164590   6.101   5.521   2.768 -0.3655  0.1427  1.1518
20684SOL    HW264591   5.981   5.567   2.687 -0.1129  0.5650  1.0175
20685SOL     OW64592   7.842   4.125   2.738 -0.0358 -0.0262 -0.1642
20685SOL    HW164593   7.775   4.166   2.794  1.0947  1.0681  0.4184
20685SOL    HW264594   7.892   4.069   2.797  0.6945  0.5618 -0.2117
20686SOL     OW64595   6.281   4.338   4.763 -0.4067 -0.0655  0.0186
20686SOL    HW164596   6.371   4.365   4.782  0.0908  0.4368 -2.8384
20686SOL    HW264597   6.259   4.277   4.833  1.5181  1.1837  1.7586
20687SOL     OW64598   4.143   4.798   6.104 -0.6639  0.1225  0.0513
20687SOL    HW164599   4.070   4.832   6.155 -1.2479  0.1382 -0.7761
20687SOL    HW264600   4.166   4.715   6.146 -1.9187 -0.4431 -0.3843
20688SOL     OW64601   4.681   1.494   3.788  0.3193 -0.0734 -0.1789
20688SOL    HW164602   4.604   1.543   3.757  0.1237 -0.1856  0.1186
20688SOL    HW264603   4.713   1.546   3.862 -0.8261 -1.2090  1.1364
20689SOL     OW64604   3.087   4.339   9.600 -0.0191  0.0411  0.5167
20689SOL    HW164605   3.155   4.274   9.615  0.6379  1.3272  3.4262
20689SOL    HW264606   3.005   4.291   9.608  0.4809 -0.9176 -0.0133
20690SOL     OW64607   1.856   4.897   6.614 -0.1794 -0.1422 -0.0822
20690SOL    HW164608   1.947   4.869   6.612 -0.7104 -2.1402  1.4807
20690SOL    HW264609   1.859   4.991   6.626  1.6962 -0.3087  0.8574
20691SOL     OW64610   3.913   5.460   4.180  0.1126 -0.0109 -0.2918
20691SOL    HW164611   3.921   5.388   4.118 -0.3964 -1.8650  1.7125
20691SOL    HW264612   4.001   5.495   4.188  0.5681 -1.0615 -0.5768
20692SOL     OW64613   6.539   5.379   4.451 -0.2615 -0.2253  0.1495
20692SOL    HW164614   6.594   5.340   4.383  0.1869 -1.6392  1.3102
20692SOL    HW264615   6.451   5.379   4.413  0.2458  0.5454 -1.0722
20693SOL     OW64616   7.591   2.509   0.484 -0.1578 -0.4327 -0.3251
20693SOL    HW164617   7.496   2.507   0.477 -0.3483  1.3034  1.4774
20693SOL    HW264618   7.620   2.552   0.403 -0.8594 -1.1536 -0.9776
20694SOL     OW64619   1.781   4.905   8.318 -0.2500  0.8115 -0.3305
20694SOL    HW164620   1.755   4.996   8.310 -0.5256  0.7697  0.0656
20694SOL    HW264621   1.699   4.857   8.326 -0.0849  0.6109  0.2528
20695SOL     OW64622   1.570   5.476   6.349 -0.0205  1.2817 -0.5575
20695SOL    HW164623   1.512   5.433   6.286  1.8163 -0.7122 -0.9655
20695SOL    HW264624   1.620   5.539   6.297 -1.5736  2.8052 -0.2544
20696SOL     OW64625   2.785   6.166   9.511  0.2535  0.0638  0.4597
20696SOL    HW164626   2.842   6.147   9.437 -1.5264 -1.0874 -0.6351
20696SOL    HW264627   2.725   6.233   9.479 -1.4405 -1.4621  0.3777
20697SOL     OW64628   7.798   1.970   8.237  0.0398 -0.1021  0.0588
20697SOL    HW164629   7.841   2.049   8.269 -0.0299 -0.8411  2.0887
20697SOL    HW264630   7.730   2.002   8.177  1.5073  1.2209 -0.9315
20698SOL     OW64631   4.800   4.470   4.060 -0.2545 -0.3075 -0.1485
20698SOL    HW164632   4.869   4.435   4.116  0.3697 -0.5975 -1.0839
20698SOL    HW264633   4.823   4.439   3.972 -0.4661  1.2743 -0.7700
20699SOL     OW64634   5.747   8.043   8.307  0.5844 -0.4664 -0.1375
20699SOL    HW164635   5.754   7.958   8.265  1.5154 -0.6926  0.4590
20699SOL    HW264636   5.789   8.032   8.392  2.9990  1.2256 -1.0462
20700SOL     OW64637   2.555   8.921   7.177  0.1604 -0.3103  0.0592
20700SOL    HW164638   2.609   8.883   7.247  0.4102 -0.4310 -0.1984
20700SOL    HW264639   2.614   8.927   7.102  0.0473  0.3461  0.0253
20701SOL     OW64640   8.350   9.559  10.200  0.9541  0.3062 -0.1766
20701SOL    HW164641   8.264   9.596  10.181  0.0532 -3.6783 -4.8105
20701SOL    HW264642   8.333   9.488  10.261  0.6155 -1.5396 -2.3511
20702SOL     OW64643   3.649   2.502   4.574  0.0720 -0.2437  0.7078
20702SOL    HW164644   3.555   2.516   4.564  0.3565  1.9459  0.7113
20702SOL    HW264645   3.673   2.442   4.504 -1.1560 -0.0146  0.0834
20703SOL     OW64646   8.507   4.950   5.459  0.0921 -0.1520 -0.5669
20703SOL    HW164647   8.421   4.909   5.449 -0.1673  0.0180  0.8358
20703SOL    HW264648   8.516   5.006   5.382 -1.4095  0.4319 -0.3340
20704SOL     OW64649  10.026   4.575   4.406  0.7635  0.1767 -0.5230
20704SOL    HW164650  10.034   4.667   4.429 -0.8722 -0.1263  1.3689
20704SOL    HW264651  10.108   4.535   4.436  1.7730  1.1038 -1.9788
20705SOL     OW64652   6.087   0.303   3.584  0.0454 -0.2071 -0.2067
20705SOL    HW164653   6.087   0.291   3.489 -1.3420  1.1158 -0.3820
20705SOL    HW264654   6.079   0.214   3.620 -1.2792 -0.5594 -1.3453
20706SOL     OW64655   7.949   8.711   7.090 -0.0552  0.3543 -0.7366
20706SOL    HW164656   7.921   8.629   7.132  2.1348 -0.4837 -0.8127
20706SOL    HW264657   7.874   8.738   7.038 -2.0148  0.1655  1.8784
20707SOL     OW64658   6.441   7.967   9.096 -0.0490  0.4836 -0.4855
20707SOL    HW164659   6.473   7.897   9.039 -1.0230 -0.9284  0.6683
20707SOL    HW264660   6.346   7.965   9.085 -0.1726  0.7787  0.5460
20708SOL     OW64661   7.115   3.868   2.482  0.4309  0.1473 -0.0133
20708SOL    HW164662   7.139   3.901   2.568  1.0064  0.7928 -0.4209
20708SOL    HW264663   7.186   3.809   2.458  0.0615 -0.3655  0.1321
20709SOL     OW64664   1.495   2.705  10.177 -0.0992  0.3584 -0.2578
20709SOL    HW164665   1.519   2.613  10.184 -0.6461  0.1934 -0.5513
20709SOL    HW264666   1.516   2.729  10.086 -0.4474  0.3869 -0.3298
20710SOL     OW64667   7.009   8.224   8.715 -0.7446  0.5159  0.4661
20710SOL    HW164668   6.989   8.156   8.779 -0.5630 -0.5046 -0.5409
20710SOL    HW264669   7.090   8.264   8.747 -0.7561  0.1392  0.9698
20711SOL     OW64670   5.739   6.899   4.146  0.4466 -0.4148 -0.8253
20711SOL    HW164671   5.793   6.906   4.225  2.0117  1.1445 -1.9857
20711SOL    HW264672   5.650   6.914   4.176  0.6038 -3.0766  1.1503
20712SOL     OW64673   0.907   9.238   3.556 -0.0825  0.3115  0.1266
20712SOL    HW164674   0.823   9.266   3.593 -0.9706 -0.8267 -0.9937
20712SOL    HW264675   0.948   9.187   3.625  0.8381  2.9397  1.6048
20713SOL     OW64676   8.823   0.122   0.721  0.5774  0.2318  0.2966
20713SOL    HW164677   8.785   0.206   0.747  2.0059  0.6636  1.0536
20713SOL    HW264678   8.771   0.095   0.645 -0.5259  1.3222  0.6360
20714SOL     OW64679   5.027   0.499   7.716  0.2469 -0.2892  0.1071
20714SOL    HW164680   4.938   0.485   7.749  0.2755  0.1600  0.3752
20714SOL    HW264681   5.084   0.472   7.789  0.3108  0.5518  0.3833
20715SOL     OW64682   7.982   2.100   1.328  0.1744  0.0845 -0.2192
20715SOL    HW164683   8.028   2.133   1.251 -1.3826  0.2410 -1.1089
20715SOL    HW264684   8.045   2.044   1.372  0.7188 -0.9377 -2.2613
20716SOL     OW64685   3.268   9.258   9.180 -0.1082  0.0858 -0.1657
20716SOL    HW164686   3.299   9.172   9.207  0.5254  0.4648  0.3267
20716SOL    HW264687   3.196   9.240   9.119  1.1258 -0.8233 -1.3940
20717SOL     OW64688   4.737   3.293  10.066  0.0478 -0.1324  0.0267
20717SOL    HW164689   4.711   3.201  10.055  1.8321 -0.5671 -0.7234
20717SOL    HW264690   4.730   3.308  10.161 -1.2168 -0.7322  0.0457
20718SOL     OW64691   0.350   1.611   6.489  0.6455 -0.1689  0.6745
20718SOL    HW164692   0.284   1.589   6.555  0.3836  0.6979  0.7090
20718SOL    HW264693   0.430   1.625   6.540  0.8840 -1.3003  0.6256
20719SOL     OW64694   3.509   5.895   2.755 -0.1053  0.2794  0.3348
20719SOL    HW164695   3.497   5.966   2.691  0.6597  1.8676  1.8984
20719SOL    HW264696   3.603   5.894   2.772 -0.3282  0.0489  1.6134
20720SOL     OW64697   8.998   9.502   0.422  0.4251  0.4405 -0.3050
20720SOL    HW164698   9.081   9.472   0.460  1.0548  0.5394 -1.5900
20720SOL    HW264699   8.961   9.424   0.382 -0.3588  0.2843  0.7039
20721SOL     OW64700   8.375   5.248   6.920  0.4067 -0.2727  0.1323
20721SOL    HW164701   8.320   5.241   6.842 -0.1414 -1.2473  0.5872
20721SOL    HW264702   8.329   5.196   6.986  1.1252  0.1192  0.9535
20722SOL     OW64703   7.739   5.471   5.026 -0.1654 -0.4090  0.5312
20722SOL    HW164704   7.745   5.440   4.935  2.4012 -1.1523  0.9164
20722SOL    HW264705   7.731   5.391   5.078 -2.6713  0.0606  0.9336
20723SOL     OW64706   4.635   9.894   4.035 -0.3077  0.1585 -0.1853
20723SOL    HW164707   4.567   9.912   4.100  0.0042 -0.5999  0.3497
20723SOL    HW264708   4.611   9.949   3.960  1.1470  3.5326  1.7255
20724SOL     OW64709   7.036   5.544   4.003 -0.2775 -0.4214  0.1662
20724SOL    HW164710   7.074   5.602   3.938 -0.4267 -0.6247 -0.1017
20724SOL    HW264711   6.986   5.602   4.061 -1.8916 -0.4593 -1.1253
20725SOL     OW64712   3.735   9.971   8.082  0.4087 -0.2509  0.7224
20725SOL    HW164713   3.815  10.010   8.118 -0.4530  1.7126  0.5899
20725SOL    HW264714   3.753   9.959   7.989  0.4486  0.5235  0.6241
20726SOL     OW64715   3.911   5.463   3.744  0.5186  0.1733  0.4051
20726SOL    HW164716   3.947   5.538   3.791 -0.7221 -0.4497  2.4346
20726SOL    HW264717   3.865   5.412   3.811 -1.6787 -0.5366 -1.5538
20727SOL     OW64718   0.829   7.013   6.670  0.5505  0.5234 -0.7243
20727SOL    HW164719   0.801   7.045   6.756  1.0371  0.3224 -0.4891
20727SOL    HW264720   0.869   6.928   6.689  0.0187  0.1556 -1.2393
20728SOL     OW64721   5.441  10.005   9.945  0.1357  0.4542 -0.5655
20728SOL    HW164722   5.450   9.947   9.869 -0.0144 -0.5176  0.1607
20728SOL    HW264723   5.488  10.085   9.919  1.1514 -0.3377 -1.2015
20729SOL     OW64724   4.371   3.480   2.807  0.1353 -0.0522 -0.4758
20729SOL    HW164725   4.447   3.469   2.749  0.3210 -1.6885  0.0658
20729SOL    HW264726   4.402   3.453   2.893  0.0681  3.0871  0.5919
20730SOL     OW64727   5.968   7.700   9.747  0.7929  0.5981  0.1517
20730SOL    HW164728   5.919   7.668   9.823  2.1677 -1.0350  0.3898
20730SOL    HW264729   6.015   7.776   9.780 -0.6886  1.4963  0.2218
20731SOL     OW64730   3.393   0.334   9.374 -0.3632  0.2204 -0.1372
20731SOL    HW164731   3.370   0.278   9.300  0.7852  0.2131 -0.5054
20731SOL    HW264732   3.343   0.298   9.448 -0.1753 -0.8686 -0.5232
20732SOL     OW64733   7.370   5.348   0.574 -0.2700 -0.1460 -0.7605
20732SOL    HW164734   7.329   5.366   0.659 -0.0873  2.4716 -1.2049
20732SOL    HW264735   7.461   5.328   0.595 -0.1543  0.7888 -0.3666
20733SOL     OW64736  10.033   4.666  10.037 -1.0508 -0.0102  0.2918
20733SOL    HW164737  10.119   4.659  10.079 -0.9647 -0.1850  0.0920
20733SOL    HW264738   9.994   4.745  10.074 -0.4470  0.5537 -0.2524
20734SOL     OW64739   9.813   2.000   8.554 -0.8139  0.0941  0.2321
20734SOL    HW164740   9.728   1.965   8.580 -0.9825  0.9325  0.8428
20734SOL    HW264741   9.851   2.033   8.635 -0.0800  0.0925 -0.1109
20735SOL     OW64742   0.041   8.780   5.673  0.2273  0.4562  0.3808
20735SOL    HW164743   0.002   8.723   5.606 -0.7337 -0.8697  2.0490
20735SOL    HW264744   0.135   8.761   5.669 -0.2544 -2.4953  2.0251
20736SOL     OW64745   4.925   9.080   7.397  0.1383 -0.0426 -1.0332
20736SOL    HW164746   4.875   9.102   7.318 -0.2656 -0.5234 -0.9141
20736SOL    HW264747   4.993   9.146   7.401  1.1806 -0.9666 -2.7156
20737SOL     OW64748   2.726   9.012   6.974 -0.2993  0.6459  0.2460
20737SOL    HW164749   2.756   9.054   6.893 -0.6213 -2.0626 -1.3505
20737SOL    HW264750   2.792   9.037   7.040  1.0805  1.2377 -1.3194
20738SOL     OW64751   2.674   5.084   6.973 -0.0800  0.1695  0.3214
20738SOL    HW164752   2.756   5.103   7.018  0.4686  0.0793 -0.6197
20738SOL    HW264753   2.652   5.166   6.927 -0.8656  0.4034  1.1060
20739SOL     OW64754   2.522   2.730   7.058 -0.0360  1.4167 -0.3476
20739SOL    HW164755   2.432   2.716   7.089  0.3651 -0.8376 -0.1079
20739SOL    HW264756   2.577   2.715   7.135  0.7927 -1.5241 -1.4448
20740SOL     OW64757   7.827   8.271   3.232  0.2439 -0.3854  0.2338
20740SOL    HW164758   7.792   8.346   3.183 -0.8405 -1.1934 -0.2384
20740SOL    HW264759   7.857   8.210   3.165  2.1649  0.0971  0.6280
20741SOL     OW64760   9.653   5.968   4.657 -0.5703  0.1073  0.3139
20741SOL    HW164761   9.576   6.020   4.680 -0.6077 -0.8496  2.4402
20741SOL    HW264762   9.694   6.017   4.585 -1.9184  1.8060  0.6607
20742SOL     OW64763   7.037   7.481   6.011 -0.2526  0.3086 -0.3829
20742SOL    HW164764   6.955   7.451   5.973 -0.7620  0.1295  0.8453
20742SOL    HW264765   7.035   7.576   6.001  0.5698  0.1328 -2.6732
20743SOL     OW64766   2.576   1.583   9.849  0.1107 -0.3638  0.3088
20743SOL    HW164767   2.505   1.583   9.784  0.8972  1.0532 -0.5555
20743SOL    HW264768   2.539   1.628   9.925 -0.2110 -0.4408  0.1987
20744SOL     OW64769   9.716   3.740   2.790  0.2560  0.0207  0.4791
20744SOL    HW164770   9.734   3.834   2.803 -0.5484  0.2275  0.1632
20744SOL    HW264771   9.629   3.738   2.749  0.7983 -0.8180 -0.6575
20745SOL     OW64772   9.735   3.649   1.469 -0.2681  0.9165  0.2239
20745SOL    HW164773   9.747   3.571   1.414 -0.3913  0.5223  0.7413
20745SOL    HW264774   9.799   3.638   1.539 -0.9527  0.7726  0.8452
20746SOL     OW64775   5.348   9.879   0.754 -0.1191 -0.8046  0.2643
20746SOL    HW164776   5.365   9.802   0.701 -0.7511  1.1130 -2.8850
20746SOL    HW264777   5.285   9.930   0.703  0.9889  2.2420  1.7765
20747SOL     OW64778   0.906  10.197   1.850 -0.4572 -0.7927 -0.1007
20747SOL    HW164779   0.833  10.231   1.799  0.6060 -0.7958 -1.6586
20747SOL    HW264780   0.981  10.201   1.790  0.6149 -1.6745  1.1581
20748SOL     OW64781   0.117   4.688   2.414  0.4894 -0.5361  0.4912
20748SOL    HW164782   0.205   4.712   2.443  1.0976 -0.0146 -1.6718
20748SOL    HW264783   0.131   4.622   2.346 -0.6936  0.8038 -1.1008
20749SOL     OW64784   3.883   4.240   3.843  0.4776  0.1284 -0.2236
20749SOL    HW164785   3.841   4.198   3.768 -1.4965  2.6075 -0.5549
20749SOL    HW264786   3.823   4.224   3.916  1.8925 -1.3892  0.6558
20750SOL     OW64787   8.924   4.541   7.659 -1.3116 -0.5931 -0.3850
20750SOL    HW164788   8.989   4.586   7.713 -2.1076 -0.2444  0.3045
20750SOL    HW264789   8.924   4.451   7.692 -1.1370 -0.6075 -0.4242
20751SOL     OW64790   7.053   7.044   2.294  0.2605 -0.1484  0.0257
20751SOL    HW164791   7.083   7.088   2.215 -1.6290  0.8424 -0.1661
20751SOL    HW264792   6.968   7.007   2.270  0.5637 -1.5522  1.0149
20752SOL     OW64793   1.849   6.804   6.081 -0.2125 -0.1685 -0.4258
20752SOL    HW164794   1.850   6.736   6.148  0.6551 -1.0604 -1.3272
20752SOL    HW264795   1.782   6.775   6.019 -0.2646  0.1128 -0.5036
20753SOL     OW64796   7.026   9.523   1.332  0.2245  0.3250 -0.0438
20753SOL    HW164797   7.092   9.590   1.345  1.2085 -0.6239 -0.0750
20753SOL    HW264798   7.017   9.481   1.417  0.4133 -0.2230 -0.2920
20754SOL     OW64799   6.223   1.344   5.497  0.5494 -0.0041  0.4636
20754SOL    HW164800   6.176   1.425   5.480  1.8752  0.5789 -0.4156
20754SOL    HW264801   6.159   1.275   5.478  0.1117  0.7744 -0.9494
20755SOL     OW64802   0.651   6.919   9.102  0.4829 -0.0958  0.0944
20755SOL    HW164803   0.641   6.882   9.014  0.6676 -0.5383  0.2606
20755SOL    HW264804   0.633   7.012   9.091 -0.6986 -0.3516 -0.1979
20756SOL     OW64805   0.937   2.260   0.663 -0.4117 -0.2921  0.0833
20756SOL    HW164806   0.867   2.245   0.726 -2.1220  1.0683 -1.4040
20756SOL    HW264807   0.977   2.343   0.691  0.7235 -1.1359  1.0097
20757SOL     OW64808   4.943   3.955   0.282  0.0512 -0.3700 -0.3707
20757SOL    HW164809   5.039   3.964   0.281  0.0530 -0.0034  1.3200
20757SOL    HW264810   4.928   3.864   0.304  0.0164 -0.3017 -0.1086
20758SOL     OW64811   2.944   6.004  10.177  0.0312 -0.6430  0.3635
20758SOL    HW164812   2.930   6.062  10.101 -1.6435 -0.8983  0.4553
20758SOL    HW264813   3.039   5.996  10.184  0.2047 -1.8887 -2.6870
20759SOL     OW64814   0.876   7.090   1.339  0.5195  0.4614  0.0312
20759SOL    HW164815   0.851   7.031   1.268  1.7937  0.3355 -0.3371
20759SOL    HW264816   0.878   7.035   1.417 -3.2703  1.0976  0.6660
20760SOL     OW64817   9.798   3.302   5.905 -0.4345 -0.9391 -0.6166
20760SOL    HW164818   9.861   3.373   5.916 -1.3111 -0.1638 -0.5311
20760SOL    HW264819   9.776   3.304   5.812  0.6190 -2.0394 -0.9057
20761SOL     OW64820   4.718   0.510   7.608 -0.1694  0.1161  0.1792
20761SOL    HW164821   4.723   0.421   7.572 -0.3755 -0.9313  2.6731
20761SOL    HW264822   4.795   0.555   7.573 -0.0505 -1.0260 -1.0703
20762SOL     OW64823   2.515   0.200   9.899 -0.2335  0.0337 -0.5176
20762SOL    HW164824   2.595   0.252   9.894 -0.1425 -0.0370  0.0904
20762SOL    HW264825   2.544   0.110   9.910 -0.3862  0.1008  0.5262
20763SOL     OW64826   0.649   2.281   7.053  0.2707  0.8279  0.3450
20763SOL    HW164827   0.683   2.370   7.045  0.6112  0.7393  0.7557
20763SOL    HW264828   0.589   2.271   6.979  1.7437  0.7155 -0.8609
20764SOL     OW64829   5.856   9.562   8.750 -0.4237 -0.3636 -0.0598
20764SOL    HW164830   5.893   9.583   8.836 -0.5077 -0.1965 -0.0625
20764SOL    HW264831   5.834   9.469   8.755  0.4429 -0.5795 -0.2254
20765SOL     OW64832   1.295   7.184   7.033  0.7109  0.2473 -0.2208
20765SOL    HW164833   1.358   7.224   7.093  0.9316  0.5646 -0.6665
20765SOL    HW264834   1.348   7.128   6.976  0.3271 -1.2331  0.8456
20766SOL     OW64835   0.890   1.956   8.329  0.2635  0.0999 -0.0713
20766SOL    HW164836   0.798   1.929   8.330  0.4120 -0.4624 -1.0784
20766SOL    HW264837   0.891   2.038   8.380 -1.2772  1.5729 -2.3053
20767SOL     OW64838   3.509   8.364   3.371  0.1954  0.5676 -0.2829
20767SOL    HW164839   3.504   8.454   3.403 -1.5411  0.9805 -1.6611
20767SOL    HW264840   3.428   8.324   3.402  0.9914 -0.5559  0.3831
20768SOL     OW64841   1.098   3.499   6.977 -0.3638  0.0586  0.2659
20768SOL    HW164842   1.111   3.438   7.049  0.7172 -0.4379 -0.3415
20768SOL    HW264843   1.186   3.517   6.944 -0.9212 -0.5504 -1.6051
20769SOL     OW64844   3.737   0.134   6.280  0.3589 -0.1452  0.4392
20769SOL    HW164845   3.816   0.129   6.225 -0.1806  0.6867 -0.4302
20769SOL    HW264846   3.706   0.044   6.287  0.4622 -0.2581 -0.5694
20770SOL     OW64847  10.024   8.453   8.363  0.1672 -0.1255  0.4966
20770SOL    HW164848   9.995   8.520   8.301 -1.0044  0.4383  1.6167
20770SOL    HW264849   9.996   8.486   8.448  0.9214 -1.3306  1.2257
20771SOL     OW64850   5.553   9.049   8.994 -0.7530  0.3500 -0.1818
20771SOL    HW164851   5.470   9.032   8.948  0.0725 -0.0945 -1.5263
20771SOL    HW264852   5.619   9.006   8.940  0.5272  1.8790  0.1605
20772SOL     OW64853   0.802   5.767   9.595 -1.2291  0.1467 -0.2322
20772SOL    HW164854   0.783   5.774   9.501 -0.2871 -1.3631 -0.5352
20772SOL    HW264855   0.891   5.799   9.604 -0.9250 -0.7720 -0.0038
20773SOL     OW64856   4.014   2.224   0.078 -0.1033 -0.7320 -0.3845
20773SOL    HW164857   4.096   2.258   0.114 -0.6954 -0.9948  1.2194
20773SOL    HW264858   3.960   2.301   0.064 -0.4994 -0.7812  0.8680
20774SOL     OW64859   1.861   1.805   9.412  0.0680 -0.1204 -0.3240
20774SOL    HW164860   1.798   1.732   9.413  0.1875 -0.2199  0.2514
20774SOL    HW264861   1.946   1.762   9.404  0.1037 -0.0179 -0.4844
20775SOL     OW64862   0.094   2.052   9.203 -0.5057  0.8486 -0.2431
20775SOL    HW164863   0.080   2.145   9.191 -2.3418  0.7212  0.7425
20775SOL    HW264864   0.175   2.046   9.255 -0.6529  1.9073  0.1126
20776SOL     OW64865   9.161   4.547   3.587 -0.4012 -0.5770  0.7182
20776SOL    HW164866   9.185   4.571   3.498  0.5466 -0.9343  0.8763
20776SOL    HW264867   9.222   4.595   3.643 -0.6090 -0.8082  1.1500
20777SOL     OW64868   4.066   8.971   4.546 -0.0486  0.4251 -0.2868
20777SOL    HW164869   4.041   9.060   4.569  1.4185  0.9252 -0.5756
20777SOL    HW264870   4.075   8.972   4.451  2.3174  0.6239 -0.0953
20778SOL     OW64871   7.561   9.555   1.112  0.6107  0.1117  0.5126
20778SOL    HW164872   7.646   9.598   1.108 -0.1743  1.7495  0.9704
20778SOL    HW264873   7.526   9.580   1.197 -0.9206  0.6101 -0.2484
20779SOL     OW64874   0.257   8.174   9.577  0.0899  0.3989  0.3751
20779SOL    HW164875   0.346   8.143   9.561  0.1154  0.6061  0.1112
20779SOL    HW264876   0.201   8.112   9.530  0.1118  0.4287  0.3091
20780SOL     OW64877   4.824   5.660   3.616  0.0857 -0.1131 -0.7417
20780SOL    HW164878   4.860   5.749   3.612 -0.5192  0.1464 -0.5057
20780SOL    HW264879   4.890   5.605   3.573  0.9777  0.2893  0.0995
20781SOL     OW64880   0.277   6.506   5.100 -0.0771  0.4727 -0.3253
20781SOL    HW164881   0.195   6.474   5.140 -3.1008  2.2291 -4.7492
20781SOL    HW264882   0.289   6.592   5.139 -1.2241  0.8682 -0.8195
20782SOL     OW64883   8.488   0.332   3.590  0.0885  0.1214  0.2417
20782SOL    HW164884   8.458   0.419   3.615 -0.1329 -0.1517  0.9241
20782SOL    HW264885   8.416   0.274   3.615 -0.3664 -0.0966 -1.4758
20783SOL     OW64886   8.716   3.968   3.685  0.1164  0.1985 -0.0285
20783SOL    HW164887   8.728   3.882   3.726 -0.1712  0.2323  0.1283
20783SOL    HW264888   8.674   3.949   3.602  2.0232  0.0040 -0.9757
20784SOL     OW64889  10.032   7.840   1.181  0.3807 -0.3623  0.0934
20784SOL    HW164890  10.019   7.912   1.120  1.0941  0.5877  1.0443
20784SOL    HW264891  10.127   7.833   1.191  0.2817 -0.6039  0.9819
20785SOL     OW64892   6.878   1.097   9.472  0.2358 -0.6564  0.3517
20785SOL    HW164893   6.927   1.177   9.494 -0.0388 -1.2195  3.1385
20785SOL    HW264894   6.795   1.107   9.518  0.2712 -2.6090  0.8765
20786SOL     OW64895   8.334   0.851   1.931  0.4135  0.1130  0.2711
20786SOL    HW164896   8.373   0.938   1.943 -0.6598  0.9099 -1.7401
20786SOL    HW264897   8.389   0.792   1.982  2.0597  1.7533  0.4206
20787SOL     OW64898   7.891   9.293   3.080 -0.0058  0.5640 -0.7280
20787SOL    HW164899   7.812   9.239   3.083  0.7969 -0.5409  1.3630
20787SOL    HW264900   7.919   9.290   2.989 -2.0156  0.4594 -1.3701
20788SOL     OW64901   5.957   8.035   2.180 -0.2887 -0.4781 -0.0858
20788SOL    HW164902   5.891   8.002   2.241 -0.4968 -1.4031 -0.8156
20788SOL    HW264903   5.908   8.063   2.103  0.2311 -1.9168 -0.9610
20789SOL     OW64904   1.664   7.876   9.902 -0.0304 -0.3371 -0.0584
20789SOL    HW164905   1.664   7.810   9.831  4.3751  0.9136 -1.3627
20789SOL    HW264906   1.680   7.959   9.857 -2.2735  1.2430  1.9508
20790SOL     OW64907   9.924   7.572   8.657  0.0495 -0.2079  0.0763
20790SOL    HW164908  10.002   7.599   8.609 -0.5548 -0.3326 -0.9745
20790SOL    HW264909   9.952   7.570   8.749  1.4036 -0.7154 -0.3449
20791SOL     OW64910   2.206   6.851   3.988  0.0941 -0.0966  0.1319
20791SOL    HW164911   2.149   6.875   4.061 -0.1943  0.0288 -0.1333
20791SOL    HW264912   2.149   6.804   3.927  0.4158 -0.5113  0.1530
20792SOL     OW64913   1.576   7.931   1.342 -0.5306  0.4797  0.8217
20792SOL    HW164914   1.593   7.859   1.281 -0.3018 -0.1357  1.6063
20792SOL    HW264915   1.496   7.972   1.310  0.2006  0.8514 -0.5465
20793SOL     OW64916   1.676  10.126   2.282 -0.6871 -0.3944  0.2022
20793SOL    HW164917   1.675  10.073   2.202  0.8076  0.7780 -0.6131
20793SOL    HW264918   1.635  10.070   2.348 -0.4848 -1.9959 -0.9952
20794SOL     OW64919   7.456   8.484   2.416  0.7258  0.0826 -0.3776
20794SOL    HW164920   7.434   8.555   2.355 -1.1935 -0.1727 -0.0259
20794SOL    HW264921   7.441   8.404   2.365  2.0493 -0.0825 -0.5066
20795SOL     OW64922   1.255   9.763   9.013  0.0977 -0.3592 -0.4221
20795SOL    HW164923   1.272   9.673   9.039 -1.2637 -0.3789  0.4740
20795SOL    HW264924   1.161   9.775   9.029  0.4961  1.5784  0.6253
20796SOL     OW64925   9.407   3.389   8.683 -0.0557  0.5600  0.0966
20796SOL    HW164926   9.369   3.350   8.604  1.4725  0.4506 -0.5991
20796SOL    HW264927   9.478   3.445   8.650  0.4670  0.6624  1.3825
20797SOL     OW64928   4.566   6.773   0.223  0.4173  0.0227  0.3173
20797SOL    HW164929   4.572   6.787   0.128 -1.4428  0.6294  0.2843
20797SOL    HW264930   4.607   6.850   0.261 -0.1693  0.4826  0.0211
20798SOL     OW64931   1.271   5.268   6.527  0.1284 -0.0568 -0.2395
20798SOL    HW164932   1.190   5.245   6.482 -0.2919  1.6513 -0.3794
20798SOL    HW264933   1.338   5.215   6.484 -0.6830 -0.4460 -1.0527
20799SOL     OW64934   7.275   2.001   9.770 -0.3344  0.3515  0.0771
20799SOL    HW164935   7.210   1.937   9.740  0.0167  0.8942 -1.8932
20799SOL    HW264936   7.258   2.080   9.718  0.8795  1.0225  0.6620
20800SOL     OW64937   4.199   9.837   1.018 -0.0993 -0.1497  0.1245
20800SOL    HW164938   4.128   9.851   1.081  0.2883  0.1202  0.5067
20800SOL    HW264939   4.235   9.924   1.003  0.1299 -0.2810 -0.0900
20801SOL     OW64940   1.089   6.593   7.102  0.6229  0.2449 -0.1656
20801SOL    HW164941   1.140   6.651   7.045  1.3265 -0.7917 -0.6114
20801SOL    HW264942   1.032   6.652   7.152  2.1884  1.4343  0.2716
20802SOL     OW64943  10.001   5.715   6.811  0.0716  0.4373  0.3643
20802SOL    HW164944   9.949   5.680   6.738  1.2081  0.5068 -0.4795
20802SOL    HW264945  10.025   5.638   6.862  0.7685  0.1968 -0.3171
20803SOL     OW64946   2.915   7.877   3.232 -0.3012  0.4957  0.3418
20803SOL    HW164947   2.842   7.915   3.182 -0.6920  1.5856  1.6982
20803SOL    HW264948   2.946   7.949   3.287  0.7878 -0.4027  0.9297
20804SOL     OW64949   6.104   1.203   0.386  0.8483  0.0190 -0.1879
20804SOL    HW164950   6.011   1.220   0.370  0.9428 -0.0745 -0.8293
20804SOL    HW264951   6.143   1.290   0.395  0.4656  0.0300  1.4158
20805SOL     OW64952   6.636   7.282   8.982 -0.2293  0.1920 -0.2917
20805SOL    HW164953   6.578   7.213   8.950 -1.4942  1.3787 -0.6089
20805SOL    HW264954   6.695   7.238   9.043 -0.7793 -1.2303 -0.7749
20806SOL     OW64955   6.162   7.619   4.024 -0.3183 -0.2298 -0.2556
20806SOL    HW164956   6.202   7.604   3.938 -0.4128 -1.0364 -0.1662
20806SOL    HW264957   6.082   7.669   4.005 -0.9348 -1.3745 -0.7600
20807SOL     OW64958   1.285   3.067   2.297  0.4419  0.0098 -0.1241
20807SOL    HW164959   1.198   3.092   2.327 -0.1315 -2.5835  0.5257
20807SOL    HW264960   1.310   2.995   2.355  2.8672  0.4886 -0.5303
20808SOL     OW64961   9.511   3.403   7.858 -0.1661 -0.2653 -0.3638
20808SOL    HW164962   9.514   3.426   7.765 -0.8786  1.1712 -0.0487
20808SOL    HW264963   9.434   3.449   7.892  0.3582 -0.3852  1.0423
20809SOL     OW64964   2.844   6.830   7.605 -0.2258  0.4310  0.3596
20809SOL    HW164965   2.770   6.855   7.662 -1.2338  1.7858 -1.5092
20809SOL    HW264966   2.918   6.878   7.640 -0.8154  1.1642  0.6214
20810SOL     OW64967   1.385   3.330   9.594 -0.0777 -0.7051  0.1452
20810SOL    HW164968   1.302   3.294   9.561 -1.2246  0.0160  2.0955
20810SOL    HW264969   1.392   3.294   9.683  0.4380  1.1871  0.9021
20811SOL     OW64970   2.132   5.444   9.894  0.0550  0.3851  0.2110
20811SOL    HW164971   2.078   5.381   9.941  1.5456 -0.3877  0.9428
20811SOL    HW264972   2.090   5.453   9.808  0.3381 -2.3503 -0.2774
20812SOL     OW64973   9.723   8.863   0.350 -0.2933  0.9750  0.0645
20812SOL    HW164974   9.700   8.774   0.325 -0.7272  1.4187 -1.1240
20812SOL    HW264975   9.806   8.854   0.397  1.2936  0.3007 -2.8092
20813SOL     OW64976   1.216   3.799   5.554 -0.3415  0.1875 -0.8076
20813SOL    HW164977   1.128   3.771   5.577 -0.0709 -0.6770 -0.8359
20813SOL    HW264978   1.235   3.753   5.472  0.6452 -0.6468 -0.1125
20814SOL     OW64979   7.677   7.512   6.453  0.6638  0.5198 -0.0753
20814SOL    HW164980   7.583   7.516   6.473  0.6261 -0.8660  0.1009
20814SOL    HW264981   7.689   7.573   6.380 -0.2896  1.0707  0.2207
20815SOL     OW64982   8.454   5.726   3.700  0.3785 -0.2845  0.2009
20815SOL    HW164983   8.482   5.635   3.701  2.1275  0.2208  1.5574
20815SOL    HW264984   8.426   5.743   3.790  0.9500  0.7606  0.1890
20816SOL     OW64985   6.652   4.911   8.448  0.1336  0.5916 -0.4676
20816SOL    HW164986   6.719   4.949   8.506 -0.0095  1.4094 -0.8282
20816SOL    HW264987   6.665   4.816   8.456 -0.2282  0.6676  1.3197
20817SOL     OW64988   6.259   1.030   3.501 -0.2197  0.0109 -0.0748
20817SOL    HW164989   6.338   1.047   3.553 -0.3150 -1.8641  0.7016
20817SOL    HW264990   6.241   1.113   3.458  0.7272  1.1930  1.7286
20818SOL     OW64991   3.814   2.654   1.890  0.6422  0.2502 -0.1660
20818SOL    HW164992   3.844   2.622   1.805  1.7891 -1.1471  0.7347
20818SOL    HW264993   3.723   2.626   1.895  0.2433  1.2655 -1.3597
20819SOL     OW64994   8.522   8.521   7.270 -0.2342 -0.0760  0.0286
20819SOL    HW164995   8.449   8.523   7.208 -0.5735  0.7056  0.4511
20819SOL    HW264996   8.528   8.610   7.303  1.5829  0.1166 -0.7724
20820SOL     OW64997   6.632   2.638   6.170  0.2193  0.2086  0.2848
20820SOL    HW164998   6.588   2.557   6.193  0.7489  0.2070  1.3050
20820SOL    HW264999   6.575   2.679   6.105 -0.1802 -0.8445 -0.0309
20821SOL     OW65000  10.048   5.051   5.979  0.4826 -0.4377 -0.3674
20821SOL    HW165001   9.971   5.047   6.036  0.6718  1.6824  0.0694
20821SOL    HW265002  10.012   5.054   5.890  0.1305 -1.2390 -0.2613
20822SOL     OW65003   7.547   0.272   6.296 -0.6698  0.1356 -0.3703
20822SOL    HW165004   7.499   0.189   6.305 -0.2663 -0.0216  0.3439
20822SOL    HW265005   7.490   0.326   6.241 -2.0454  0.2287  1.1080
20823SOL     OW65006   8.871   4.696   5.333  0.7431  0.2737  0.6449
20823SOL    HW165007   8.778   4.689   5.310  1.0049  1.1655 -0.7970
20823SOL    HW265008   8.873   4.762   5.402  0.5897  2.7780 -1.6370
20824SOL     OW65009   5.897   8.380   1.872 -0.2932  0.1394 -0.5325
20824SOL    HW165010   5.884   8.383   1.967 -0.7530  0.8406 -0.6109
20824SOL    HW265011   5.984   8.416   1.859  0.6752 -2.0571 -0.2075
20825SOL     OW65012   5.024   6.002   6.335 -0.3173 -0.0451 -0.1203
20825SOL    HW165013   4.949   5.990   6.394  1.0545 -1.9354  1.3362
20825SOL    HW265014   5.037   6.096   6.332 -1.1629  0.1654  1.6972
20826SOL     OW65015   7.447   1.128   2.389  0.0141 -0.0693 -0.1087
20826SOL    HW165016   7.530   1.160   2.354  0.9034 -1.2133  0.8840
20826SOL    HW265017   7.422   1.192   2.455  0.5262 -0.1413  0.1555
20827SOL     OW65018   8.061   3.500   6.915  0.5263 -0.2810 -0.3354
20827SOL    HW165019   8.118   3.438   6.869  2.0963 -0.5467  1.9052
20827SOL    HW265020   7.972   3.477   6.885  1.2723 -2.1381 -1.2235
20828SOL     OW65021   7.056   8.910   1.450 -0.5538  0.7503  0.1621
20828SOL    HW165022   7.138   8.895   1.403 -1.2768 -0.8093 -0.6264
20828SOL    HW265023   7.026   8.996   1.419 -0.4401  0.2549 -1.3598
20829SOL     OW65024   8.633   5.999   2.455 -0.1333  0.1834 -0.1526
20829SOL    HW165025   8.581   6.080   2.457 -1.5046 -0.6883  0.4072
20829SOL    HW265026   8.724   6.029   2.455 -0.6159  1.7216  0.1835
20830SOL     OW65027   6.110   4.281   5.905  0.2514 -0.2284  0.0093
20830SOL    HW165028   6.135   4.360   5.858  0.7062 -1.4282 -1.8280
20830SOL    HW265029   6.194   4.241   5.930  0.2297 -2.3905 -3.0017
20831SOL     OW65030   2.690   8.556   9.595  0.0433  0.3425  0.0584
20831SOL    HW165031   2.624   8.557   9.526  0.1095  0.4835 -0.0024
20831SOL    HW265032   2.770   8.529   9.550  0.0734  0.3766  0.0924
20832SOL     OW65033   0.174   0.908   7.656 -0.5709 -0.3378  0.6038
20832SOL    HW165034   0.154   0.838   7.595  0.9103  0.3939 -0.7557
20832SOL    HW265035   0.238   0.870   7.717 -0.4258 -0.4371  0.3908
20833SOL     OW65036   2.670   6.269   2.114 -0.9454 -0.1618 -0.3342
20833SOL    HW165037   2.576   6.248   2.114 -1.4494  1.8890  0.5611
20833SOL    HW265038   2.683   6.317   2.032 -0.4302 -1.3847 -0.9790
20834SOL     OW65039   8.299   9.823   2.984  0.4998  0.0127  0.2972
20834SOL    HW165040   8.274   9.734   2.958  1.4280 -0.4325  0.9003
20834SOL    HW265041   8.215   9.866   3.003 -0.0694 -0.2215 -1.5486
20835SOL     OW65042   3.934   2.992   6.778 -0.3898  0.1536 -0.0668
20835SOL    HW165043   3.928   3.087   6.772 -1.0150  0.0637 -1.0136
20835SOL    HW265044   3.936   2.973   6.872  2.2568  1.2516  0.1252
20836SOL     OW65045   9.842   6.876   4.260  0.0050 -0.3715 -0.2206
20836SOL    HW165046   9.870   6.912   4.176  1.4941  1.4977  1.0237
20836SOL    HW265047   9.777   6.938   4.292 -0.9273 -1.3464 -0.2158
20837SOL     OW65048   8.834   9.087   9.290 -0.0815  0.1048 -0.1796
20837SOL    HW165049   8.739   9.098   9.285 -0.3461 -2.7650 -2.3835
20837SOL    HW265050   8.855   9.102   9.383 -2.1604  4.1302 -0.2258
20838SOL     OW65051   7.943   9.798   5.203  0.3848  0.2706  0.9623
20838SOL    HW165052   7.863   9.761   5.239 -0.6078  0.5180 -0.9406
20838SOL    HW265053   7.993   9.722   5.173 -0.4135  0.2800 -0.4223
20839SOL     OW65054   0.705   4.030   0.619 -0.0702 -0.2286  0.0604
20839SOL    HW165055   0.719   3.975   0.543  1.1385  1.0017 -0.6235
20839SOL    HW265056   0.650   4.102   0.588  0.1776  0.1242  0.4291
20840SOL     OW65057  10.105   6.396   4.748  0.0117  0.2231 -0.3611
20840SOL    HW165058  10.067   6.477   4.713 -0.1840  0.3147  0.0615
20840SOL    HW265059  10.062   6.326   4.699  2.1599  0.4430 -2.6993
20841SOL     OW65060   4.565   3.149   2.010  0.1261 -1.2490  0.7827
20841SOL    HW165061   4.599   3.209   2.076 -0.3242 -0.3644  0.2113
20841SOL    HW265062   4.588   3.189   1.926 -1.2375 -1.2461  0.3982
20842SOL     OW65063   6.924   6.788   1.965  0.1917 -0.0953 -0.5447
20842SOL    HW165064   6.898   6.878   1.945 -2.3435 -0.5579  0.4999
20842SOL    HW265065   7.019   6.788   1.953  0.4324  3.0924  0.7485
20843SOL     OW65066   6.381   3.624   0.913  0.6757  0.2212  0.0000
20843SOL    HW165067   6.407   3.550   0.967 -2.2802 -0.0550  1.1189
20843SOL    HW265068   6.345   3.584   0.833 -0.3531  0.4293  0.3455
20844SOL     OW65069   2.457   0.094   2.221 -0.4561  0.1711  0.3997
20844SOL    HW165070   2.450   0.006   2.183 -0.0824  0.3779 -0.1547
20844SOL    HW265071   2.468   0.078   2.315 -0.7978 -0.3623  0.3542
20845SOL     OW65072   9.263   6.586   9.333 -0.6222 -0.3609 -0.7714
20845SOL    HW165073   9.264   6.512   9.273 -1.1924  0.0559 -1.3072
20845SOL    HW265074   9.349   6.626   9.324 -0.6899 -0.3274 -1.2863
20846SOL     OW65075   2.202   6.198   8.253  0.0525 -0.0111  0.1975
20846SOL    HW165076   2.144   6.122   8.252 -1.0818  0.7549  2.9332
20846SOL    HW265077   2.290   6.161   8.263 -0.2898 -1.0332 -0.4617
20847SOL     OW65078   4.893   0.429   7.345  0.0857 -0.1380 -0.2901
20847SOL    HW165079   4.929   0.470   7.267  1.0177 -2.0612 -0.8714
20847SOL    HW265080   4.846   0.352   7.313  2.9799 -2.6453  1.2606
20848SOL     OW65081  10.046   3.014   7.889  0.4282  0.4649  0.1734
20848SOL    HW165082   9.984   3.068   7.938 -1.0645  1.1747 -2.3954
20848SOL    HW265083  10.086   3.074   7.826 -0.6913 -1.2036 -2.1963
20849SOL     OW65084   3.387   7.988   4.545 -0.2046  0.0997  0.3875
20849SOL    HW165085   3.370   7.999   4.638  0.0690  0.7933  0.3548
20849SOL    HW265086   3.361   8.071   4.505 -1.6137 -0.6615 -0.3368
20850SOL     OW65087   5.244   5.456   0.251  0.5592 -0.2416  0.6094
20850SOL    HW165088   5.175   5.392   0.233  0.6172  0.2397 -1.4049
20850SOL    HW265089   5.211   5.537   0.212  0.9646  0.7076  2.2012
20851SOL     OW65090   4.928   5.172   4.203 -0.1419 -0.1375  0.4139
20851SOL    HW165091   4.913   5.165   4.297  4.3268  1.0224  1.3452
20851SOL    HW265092   4.963   5.086   4.178  1.6612  0.5502  0.5015
20852SOL     OW65093   0.281   2.755   8.552 -0.2483  0.3476 -0.2786
20852SOL    HW165094   0.189   2.734   8.540 -0.4882  1.6429 -0.7968
20852SOL    HW265095   0.300   2.728   8.642 -1.3553  0.8159  0.1105
20853SOL     OW65096   7.866   6.475   9.535  0.1670  0.2448  0.1421
20853SOL    HW165097   7.784   6.494   9.489 -0.0842  1.1474  0.9667
20853SOL    HW265098   7.841   6.463   9.626  0.9647  0.6285  0.4176
20854SOL     OW65099   2.647   3.851   7.489  0.3565  0.3953  0.5750
20854SOL    HW165100   2.639   3.934   7.442 -2.2746 -0.3450 -0.3720
20854SOL    HW265101   2.663   3.786   7.421 -2.7201 -0.5689  0.7049
20855SOL     OW65102   3.580   7.796   2.570 -0.3336  0.7478  0.5875
20855SOL    HW165103   3.510   7.822   2.511  1.1520  0.8643 -1.1750
20855SOL    HW265104   3.589   7.701   2.557 -0.1541  0.7393  0.7658
20856SOL     OW65105  10.193   0.985   8.593 -0.5384  0.6192 -0.2699
20856SOL    HW165106  10.112   1.002   8.544 -1.0951 -0.2632  0.3292
20856SOL    HW265107  10.191   0.891   8.610 -0.3575  0.9149  1.4408
20857SOL     OW65108   2.451   0.239   0.012  0.1056  0.1360  0.1352
20857SOL    HW165109   2.543   0.236   0.038  0.1861  0.3795 -0.1195
20857SOL    HW265110   2.453   0.246  -0.083 -0.1931 -1.0580  0.0286
20858SOL     OW65111   0.120   7.003   3.779  0.0359  0.0868  0.4400
20858SOL    HW165112   0.199   7.056   3.790 -0.4955  1.2512 -1.2090
20858SOL    HW265113   0.117   6.984   3.685  0.1106 -2.7347  0.9750
20859SOL     OW65114   0.972   3.941   6.966 -0.2880  0.8427  0.2314
20859SOL    HW165115   0.934   3.854   6.955 -0.8219  1.3011 -1.6760
20859SOL    HW265116   1.006   3.941   7.055 -0.7749 -1.1286  0.4351
20860SOL     OW65117   8.721   6.173   3.241  0.5843  0.1600  0.2281
20860SOL    HW165118   8.805   6.212   3.216  0.8398 -1.0844 -0.9114
20860SOL    HW265119   8.691   6.128   3.162 -1.2425  0.7309  0.5827
20861SOL     OW65120   5.835   1.680   0.570  0.4263  0.1279 -0.3544
20861SOL    HW165121   5.742   1.685   0.550  0.1101 -2.3149  0.3757
20861SOL    HW265122   5.872   1.630   0.498  0.9897  0.0604 -0.0206
20862SOL     OW65123   0.868   4.051   9.411 -0.0956 -0.2592 -0.8936
20862SOL    HW165124   0.806   3.983   9.437  1.2657 -0.9336  0.6826
20862SOL    HW265125   0.932   4.006   9.356  0.5978 -0.1787 -0.1621
20863SOL     OW65126   5.003   8.612   8.126 -0.0928 -0.6644  0.5354
20863SOL    HW165127   4.909   8.595   8.115 -0.1601  0.2477 -0.3971
20863SOL    HW265128   5.012   8.706   8.109  1.1337 -0.9363 -0.3971
20864SOL     OW65129   9.284   9.860   0.376 -0.5256 -0.1976  0.6083
20864SOL    HW165130   9.232   9.800   0.323 -0.7559 -0.6402  1.3246
20864SOL    HW265131   9.258   9.841   0.467 -1.5135  1.8534  0.7613
20865SOL     OW65132   4.454   5.206   5.587 -0.2741 -0.3943 -0.2512
20865SOL    HW165133   4.532   5.168   5.546  0.1864 -1.6619  1.7609
20865SOL    HW265134   4.401   5.130   5.612 -0.7678  0.3855  1.0657
20866SOL     OW65135   8.065   9.159   5.971 -1.1763  0.8174  0.0915
20866SOL    HW165136   8.039   9.075   5.935 -0.4463  1.5028 -2.1345
20866SOL    HW265137   8.013   9.223   5.924  1.0522  1.8626 -1.0205
20867SOL     OW65138   2.542   8.297   7.362 -0.3002 -0.0508 -0.3698
20867SOL    HW165139   2.624   8.268   7.403  0.5798  3.0886  0.2567
20867SOL    HW265140   2.506   8.361   7.423 -2.4701 -0.2685 -1.3724
20868SOL     OW65141   2.378   6.289   3.705  0.1174  0.7640 -0.3224
20868SOL    HW165142   2.303   6.344   3.684 -0.0420  0.8906  0.5415
20868SOL    HW265143   2.339   6.203   3.726  0.3256  0.4532 -1.2265
20869SOL     OW65144   1.493   6.157   6.344 -0.5446 -0.0483  0.6010
20869SOL    HW165145   1.435   6.225   6.379 -0.0561  0.5689  0.2369
20869SOL    HW265146   1.490   6.087   6.409 -4.1549 -1.3909 -0.9030
20870SOL     OW65147   8.326   0.334   8.029  0.2727  1.0210  0.0535
20870SOL    HW165148   8.356   0.347   7.939  2.0887 -0.3532  0.4382
20870SOL    HW265149   8.397   0.368   8.084 -0.6627  1.5133  0.9812
20871SOL     OW65150   4.733   3.477   2.431  0.0105  0.2032 -0.2816
20871SOL    HW165151   4.677   3.446   2.502  0.3773 -0.5560 -0.3169
20871SOL    HW265152   4.726   3.408   2.364  0.3338  0.5076 -0.6305
20872SOL     OW65153   1.990   1.062   1.882  0.1461  0.4067  0.1423
20872SOL    HW165154   2.005   1.001   1.809  0.4698  1.0441 -0.3216
20872SOL    HW265155   2.075   1.105   1.895  0.3494 -0.3480  1.4927
20873SOL     OW65156   6.323   3.546   0.052 -0.0712  0.5429  0.3681
20873SOL    HW165157   6.278   3.596   0.120 -1.7253  0.9013 -0.9464
20873SOL    HW265158   6.401   3.512   0.095 -1.7496 -0.3620  2.8002
20874SOL     OW65159   7.389   1.779   6.089  0.1462  0.6367 -0.0356
20874SOL    HW165160   7.449   1.776   6.163  0.3904 -0.4316 -0.2539
20874SOL    HW265161   7.446   1.782   6.012 -0.0415 -0.8934 -0.2651
20875SOL     OW65162   3.009   6.454   1.865  0.3585  0.7447 -0.2056
20875SOL    HW165163   2.968   6.440   1.950  2.5438 -0.7087  0.6330
20875SOL    HW265164   3.012   6.368   1.824  1.5912  1.0034 -0.6949
20876SOL     OW65165   4.944   3.216   4.680 -0.2522 -0.0913 -0.2382
20876SOL    HW165166   4.863   3.178   4.645  0.2359 -0.5472 -0.8932
20876SOL    HW265167   4.933   3.311   4.668 -0.5110 -0.1792 -0.7208
20877SOL     OW65168   7.589   7.806   2.690  0.5183 -0.5303 -0.6670
20877SOL    HW165169   7.556   7.864   2.759  0.4586  0.5808 -1.6151
20877SOL    HW265170   7.511   7.779   2.643  0.6433 -0.5973 -0.8336
20878SOL     OW65171   8.987   1.938   4.660  0.0017 -0.7115  0.2818
20878SOL    HW165172   8.913   1.996   4.640  2.0777  1.8088 -0.4123
20878SOL    HW265173   8.953   1.878   4.726 -2.8958 -0.1329 -0.6067
20879SOL     OW65174   9.838   9.205   9.768 -0.1080  0.5967 -0.1094
20879SOL    HW165175   9.850   9.178   9.677 -2.0567 -0.2125 -0.1525
20879SOL    HW265176   9.868   9.296   9.771 -0.1499  0.6572 -1.5783
20880SOL     OW65177   2.397   7.804   4.351  0.0158 -0.5513  0.0755
20880SOL    HW165178   2.410   7.877   4.411 -0.6466  0.7367 -1.3153
20880SOL    HW265179   2.312   7.768   4.375  0.8309 -1.5743  1.4825
20881SOL     OW65180   9.377   1.209   2.557 -0.2062 -0.0691  0.0561
20881SOL    HW165181   9.393   1.237   2.467  0.5218  0.1729  0.2520
20881SOL    HW265182   9.336   1.284   2.600  0.3905  0.1867  0.1912
20882SOL     OW65183   0.345   4.086   2.972 -0.2231  0.0079 -0.1775
20882SOL    HW165184   0.254   4.068   2.997 -0.3160 -1.2157 -1.3604
20882SOL    HW265185   0.371   4.158   3.029 -1.7981  0.0884  0.4739
20883SOL     OW65186   3.080   1.399   0.480  0.4926 -0.0134 -0.5852
20883SOL    HW165187   3.137   1.421   0.407  0.8341  0.4966 -0.1709
20883SOL    HW265188   3.048   1.311   0.460  1.3683 -0.2757 -0.8544
20884SOL     OW65189   2.448   5.313   7.768  0.2496  0.0135 -0.2367
20884SOL    HW165190   2.368   5.342   7.812  1.2091  1.8435  0.3812
20884SOL    HW265191   2.450   5.364   7.687  1.1523  0.5333  0.1035
20885SOL     OW65192   0.502   3.354   9.077 -0.1176  0.4688 -0.9391
20885SOL    HW165193   0.464   3.411   9.143 -1.2131 -0.0782 -1.0981
20885SOL    HW265194   0.437   3.286   9.063  0.0496  0.6365 -2.6598
20886SOL     OW65195  10.009   0.111   0.905  0.5367 -0.3675  0.0486
20886SOL    HW165196  10.103   0.119   0.924  0.2685  2.3822  0.4154
20886SOL    HW265197   9.971   0.077   0.986  0.9722  0.3167  0.5454
20887SOL     OW65198   3.584   1.997  10.173 -0.4988  0.1993 -0.2536
20887SOL    HW165199   3.641   2.011  10.098  0.8287 -0.3965  0.6277
20887SOL    HW265200   3.633   1.938  10.230 -2.3133 -0.9137  0.1856
20888SOL     OW65201   1.826   7.355   7.738 -0.1148 -0.3618 -0.3031
20888SOL    HW165202   1.766   7.429   7.745 -0.0692 -0.3783  0.2443
20888SOL    HW265203   1.769   7.281   7.718 -0.0282  0.0423 -2.1259
20889SOL     OW65204   3.689   8.535   4.639  0.3948  0.3345  0.2295
20889SOL    HW165205   3.694   8.509   4.731  0.3651 -0.5445 -0.0142
20889SOL    HW265206   3.637   8.466   4.598 -1.2415  1.7185 -0.0743
20890SOL     OW65207   1.051   2.366   0.391  0.6811 -0.2610  0.2432
20890SOL    HW165208   1.045   2.336   0.481 -0.8729  1.2855  0.6809
20890SOL    HW265209   1.015   2.294   0.339 -0.7139 -0.1927  1.0764
20891SOL     OW65210   1.829   9.937   9.932  0.7587  0.4793 -0.3805
20891SOL    HW165211   1.755   9.876   9.924  0.9326 -0.2180  2.6437
20891SOL    HW265212   1.825   9.968  10.023  2.3103  2.9070 -1.0867
20892SOL     OW65213   7.552   2.563   1.529 -0.0447  0.7795 -0.3527
20892SOL    HW165214   7.642   2.566   1.560 -0.3650 -0.1257  0.7331
20892SOL    HW265215   7.556   2.592   1.438  1.4495  0.0148 -0.5488
20893SOL     OW65216   0.737   4.722   6.988  0.1360 -0.1599 -0.6879
20893SOL    HW165217   0.715   4.681   6.904 -0.7076 -1.2636  0.0469
20893SOL    HW265218   0.654   4.759   7.019  0.9457  2.3783 -1.4614
20894SOL     OW65219   1.997   1.308   2.070 -0.2383 -0.0126 -0.2522
20894SOL    HW165220   1.980   1.229   2.122  0.7032  0.5650  0.9854
20894SOL    HW265221   2.085   1.295   2.035  0.1542  0.7081  0.4262
20895SOL     OW65222   3.136   7.343   8.215  0.1051  0.3497 -0.2466
20895SOL    HW165223   3.053   7.346   8.263 -0.6124 -0.0458 -1.4454
20895SOL    HW265224   3.202   7.322   8.282 -1.0344 -1.2887  0.3940
20896SOL     OW65225   1.906   3.474   2.311 -0.2310  0.7408 -0.1312
20896SOL    HW165226   1.883   3.500   2.222  0.4703 -0.0367 -0.5483
20896SOL    HW265227   1.989   3.428   2.302 -0.4301  0.1672  0.8533
20897SOL     OW65228   7.176   1.019   4.388  0.1475 -0.1721  0.3096
20897SOL    HW165229   7.265   0.984   4.387 -0.3021 -1.3849  1.5525
20897SOL    HW265230   7.124   0.953   4.342 -0.1442  0.4831 -0.3168
20898SOL     OW65231   2.981   5.736   8.927  0.2300 -0.2532  0.7390
20898SOL    HW165232   3.059   5.791   8.920  0.3325 -0.4307  0.4488
20898SOL    HW265233   3.008   5.652   8.890 -0.6831  0.2866 -1.2201
20899SOL     OW65234   7.590   8.898   5.075 -0.0534  0.4606 -0.0336
20899SOL    HW165235   7.558   8.926   4.989 -0.9848 -0.5157 -0.0216
20899SOL    HW265236   7.624   8.810   5.061 -1.7206 -0.3743  0.9006
20900SOL     OW65237   0.937   2.659   5.190  0.8917 -0.1914 -0.3475
20900SOL    HW165238   1.025   2.652   5.152  0.5994  0.1101 -1.0993
20900SOL    HW265239   0.879   2.670   5.114  0.3300  0.7481  0.2056
20901SOL     OW65240   8.071   9.919   0.434  0.0555 -0.3355 -0.0215
20901SOL    HW165241   8.077   9.827   0.460 -0.8760 -0.4366 -0.1649
20901SOL    HW265242   8.090   9.967   0.515  0.3277 -0.6438  0.1032
20902SOL     OW65243   6.357   7.677   9.843  0.2426  0.3900 -0.0389
20902SOL    HW165244   6.431   7.655   9.787  0.2783 -1.4459  0.6949
20902SOL    HW265245   6.397   7.714   9.922  0.4267 -1.4816  0.7480
20903SOL     OW65246   7.284   3.720   0.011 -0.2722 -0.1191 -0.1931
20903SOL    HW165247   7.231   3.646  -0.020  1.7541 -1.9950  0.6144
20903SOL    HW265248   7.367   3.711  -0.036 -0.5940  2.7414 -1.4167
20904SOL     OW65249   8.933   5.820   5.394 -0.4291 -0.2117 -0.8238
20904SOL    HW165250   8.854   5.767   5.388 -1.4485  1.0957  0.5839
20904SOL    HW265251   8.912   5.901   5.346 -0.0990  0.3128 -0.0946
20905SOL     OW65252   0.408   3.660   7.746  0.4317  1.0038 -0.5605
20905SOL    HW165253   0.490   3.625   7.711 -0.1239 -1.6112  0.6191
20905SOL    HW265254   0.390   3.606   7.823 -3.0979  0.6362 -1.5576
20906SOL     OW65255   8.144   8.616   9.202 -0.3428 -0.3753  0.6868
20906SOL    HW165256   8.121   8.595   9.293  1.0906 -0.4166  1.0419
20906SOL    HW265257   8.236   8.642   9.205 -0.5223  0.4938 -0.6193
20907SOL     OW65258  10.035   2.566   5.420 -0.4718 -0.0728  0.4854
20907SOL    HW165259   9.997   2.652   5.439  1.1487  0.5004  1.2123
20907SOL    HW265260  10.071   2.576   5.332 -0.9547 -0.2428  0.2692
20908SOL     OW65261   5.043   8.157  10.126 -0.4495  0.0404 -0.2414
20908SOL    HW165262   5.113   8.191  10.181 -0.8469  1.4230 -0.5792
20908SOL    HW265263   5.083   8.145  10.040 -1.0022  2.3534 -0.8567
20909SOL     OW65264   7.336   7.344   3.364 -0.2873  0.0027  0.2756
20909SOL    HW165265   7.424   7.375   3.385 -0.6312  1.0351  0.2136
20909SOL    HW265266   7.318   7.276   3.429  0.0041  0.7642  1.1623
20910SOL     OW65267   1.145   9.613   9.633  0.5928 -0.1532  0.3650
20910SOL    HW165268   1.214   9.573   9.686  0.0511 -0.9145  0.4994
20910SOL    HW265269   1.170   9.592   9.543  0.1925 -1.0033  0.4436
20911SOL     OW65270   6.816   6.818   4.366  0.6718  0.3402 -0.9914
20911SOL    HW165271   6.891   6.866   4.402  0.7724 -0.0706 -0.6459
20911SOL    HW265272   6.830   6.727   4.395  0.0734  0.2530 -0.9792
20912SOL     OW65273   5.292   9.227  10.023 -0.6279  0.3856  0.2370
20912SOL    HW165274   5.321   9.136  10.030  0.5503  0.7644  0.3858
20912SOL    HW265275   5.340   9.261   9.948  0.4327  1.4265  1.3579
20913SOL     OW65276   4.482   1.033  10.083 -0.5000 -0.8894 -0.3902
20913SOL    HW165277   4.439   0.949  10.066 -1.7542 -0.1771 -0.8289
20913SOL    HW265278   4.496   1.070   9.997  0.0073 -0.6249 -0.1907
20914SOL     OW65279   4.782   9.380   1.765  0.6540 -0.1075  0.2770
20914SOL    HW165280   4.785   9.474   1.781  0.1639  0.1298 -0.9250
20914SOL    HW265281   4.789   9.372   1.670 -1.2032 -1.1750  0.1959
20915SOL     OW65282   3.475   5.788   9.199 -0.0757 -0.4886  0.3655
20915SOL    HW165283   3.505   5.835   9.276 -1.3125 -0.3301  0.7726
20915SOL    HW265284   3.509   5.699   9.210  0.7829 -0.1499  0.4728
20916SOL     OW65285   9.347   8.237   6.729  0.2495 -0.2418  0.3664
20916SOL    HW165286   9.392   8.238   6.645 -0.0943 -1.1562  0.1655
20916SOL    HW265287   9.401   8.293   6.786 -0.2608  1.5048 -0.8263
20917SOL     OW65288   9.166   8.607   6.170 -0.7113  0.4962 -0.3558
20917SOL    HW165289   9.169   8.703   6.168  2.2510  0.4445 -1.0256
20917SOL    HW265290   9.143   8.586   6.261 -0.6352  1.8318 -0.0127
20918SOL     OW65291   6.955   3.764   6.971  0.3170 -0.1695 -0.1361
20918SOL    HW165292   6.932   3.766   7.064 -2.9755  0.2686 -0.8936
20918SOL    HW265293   7.000   3.847   6.956  0.7931 -0.1994  1.0518
20919SOL     OW65294   2.460   4.792   9.944  0.4871  0.3684 -0.4735
20919SOL    HW165295   2.406   4.772   9.868 -1.6017  1.8730  0.5916
20919SOL    HW265296   2.438   4.724  10.008 -1.7564  2.1410  0.7219
20920SOL     OW65297   9.780   0.620   8.718 -0.0545 -0.1181 -0.0531
20920SOL    HW165298   9.846   0.646   8.654 -1.5877 -0.7195 -1.9046
20920SOL    HW265299   9.775   0.693   8.779  1.9450  0.1492 -0.1862
20921SOL     OW65300   6.530   2.493   6.415  0.4856 -0.0800  0.0368
20921SOL    HW165301   6.451   2.443   6.439  1.1694 -0.9671  0.4651
20921SOL    HW265302   6.503   2.585   6.421 -0.6783 -0.3898 -0.3731
20922SOL     OW65303   9.780   1.623   1.909 -0.1664 -0.2918  0.1221
20922SOL    HW165304   9.712   1.687   1.930 -0.6713 -1.0695  0.9121
20922SOL    HW265305   9.860   1.662   1.942 -0.4997 -0.1287  0.7586
20923SOL     OW65306   2.915   2.088   9.230 -0.1485  0.7884 -0.6600
20923SOL    HW165307   2.848   2.037   9.274  0.6329  0.5015  0.2223
20923SOL    HW265308   2.940   2.155   9.294 -0.5299  1.7149 -1.4723
20924SOL     OW65309   1.675   7.784   7.717  0.4353  0.1354  0.0978
20924SOL    HW165310   1.581   7.769   7.729  0.5652  0.3474  1.3544
20924SOL    HW265311   1.701   7.838   7.792  1.3336  1.0372 -0.8424
20925SOL     OW65312   6.841   1.372   6.489  0.4900  0.2860  0.2685
20925SOL    HW165313   6.747   1.362   6.504 -0.0410  1.2870 -2.1415
20925SOL    HW265314   6.855   1.467   6.491  0.9739  0.2799 -1.9534
20926SOL     OW65315   5.784   0.910   1.955  0.8326  0.8059  0.3700
20926SOL    HW165316   5.723   0.836   1.943  0.8248  0.9469 -0.4558
20926SOL    HW265317   5.797   0.945   1.867  2.7772  0.2539  0.4282
20927SOL     OW65318   1.532   0.483   4.055 -0.0265 -0.3674 -0.3711
20927SOL    HW165319   1.498   0.397   4.031 -2.1375  0.4217 -0.3131
20927SOL    HW265320   1.465   0.545   4.025  0.6333  1.1315  1.1418
20928SOL     OW65321   1.978   2.670   9.393  0.1660 -0.2566  0.0190
20928SOL    HW165322   2.041   2.655   9.462 -0.4451 -0.4515  0.5384
20928SOL    HW265323   1.946   2.759   9.408  1.6489  0.5389 -1.3312
20929SOL     OW65324   4.031   9.635   8.673 -0.2309  0.0917 -0.2923
20929SOL    HW165325   3.946   9.611   8.636 -0.2782 -1.0866  0.5393
20929SOL    HW265326   4.043   9.574   8.746  1.1628  0.4864 -0.1773
20930SOL     OW65327   5.572   9.481   1.271  0.5770 -0.0641  0.2832
20930SOL    HW165328   5.635   9.553   1.280 -1.0255  1.7484 -2.3985
20930SOL    HW265329   5.625   9.404   1.255  2.1871  1.2076 -0.6242
20931SOL     OW65330   1.472   5.201   1.515  0.8952  0.1875 -0.1100
20931SOL    HW165331   1.561   5.172   1.536  0.7374  0.0963  0.4175
20931SOL    HW265332   1.427   5.204   1.599  0.3501  0.0717 -0.4001
20932SOL     OW65333   5.249   3.827   6.166 -0.0118  0.2853 -0.2640
20932SOL    HW165334   5.332   3.781   6.177 -0.6630 -0.7188  0.5702
20932SOL    HW265335   5.263   3.913   6.205  0.6206  0.1040 -0.0932
20933SOL     OW65336   4.179   0.170   9.151  0.3828  0.6565  0.5911
20933SOL    HW165337   4.218   0.113   9.084 -1.3900  0.3994 -0.2350
20933SOL    HW265338   4.150   0.111   9.220 -1.6555  0.5189 -0.3655
20934SOL     OW65339   9.471   4.608   7.049  0.6051 -0.1076 -0.1724
20934SOL    HW165340   9.381   4.595   7.081  0.8521 -0.9768  0.1765
20934SOL    HW265341   9.521   4.538   7.091  1.1283 -0.6459 -1.6792
20935SOL     OW65342   1.116   3.115   6.544 -0.2434 -0.1093 -0.0187
20935SOL    HW165343   1.130   3.193   6.596 -1.0870 -0.6510  1.0548
20935SOL    HW265344   1.152   3.136   6.458  0.6833  0.9864  0.6250
20936SOL     OW65345   8.223   9.029   7.994  0.0621  0.0093  0.1629
20936SOL    HW165346   8.155   9.092   7.970  0.2014  0.4713  0.9647
20936SOL    HW265347   8.223   8.965   7.923 -0.9107  0.2519 -0.0585
20937SOL     OW65348   4.986   7.262   4.005  0.7110  0.1329 -0.2838
20937SOL    HW165349   5.068   7.311   3.991 -0.9001  3.0790  0.1714
20937SOL    HW265350   4.946   7.303   4.081 -1.1697 -1.3405 -0.4390
20938SOL     OW65351   4.649   5.020   1.775 -0.3605 -0.6953 -0.0714
20938SOL    HW165352   4.596   4.969   1.713  0.0808 -1.5499  0.2437
20938SOL    HW265353   4.586   5.054   1.839 -1.0228  1.4016 -1.7792
20939SOL     OW65354   2.665   1.276   7.144  0.1522 -0.4484  0.4832
20939SOL    HW165355   2.691   1.339   7.076 -1.6603 -0.0575  0.1098
20939SOL    HW265356   2.743   1.222   7.158  1.4129  1.1977  0.0511
20940SOL     OW65357   0.976   0.750   4.724  0.3757  0.3045  0.0060
20940SOL    HW165358   0.927   0.794   4.654 -0.2685  0.6993  0.6910
20940SOL    HW265359   1.061   0.730   4.685 -0.0481  0.3409 -0.9504
20941SOL     OW65360   4.866   0.055   2.724 -0.0736 -0.1191 -0.5258
20941SOL    HW165361   4.828   0.136   2.689 -1.1395  0.2346  1.3514
20941SOL    HW265362   4.819  -0.015   2.679 -1.5861  0.3263  0.3058
20942SOL     OW65363   4.781   9.766   6.226 -0.4328  0.2496  0.3985
20942SOL    HW165364   4.854   9.778   6.286  0.0703  0.4351 -0.2438
20942SOL    HW265365   4.820   9.775   6.139 -1.1952  0.2171  0.0499
20943SOL     OW65366   5.068   4.325   0.246  0.4455 -0.2215 -0.3903
20943SOL    HW165367   5.016   4.405   0.237  1.6542  0.7994  1.2920
20943SOL    HW265368   5.050   4.294   0.335  1.5188 -0.7002 -0.3280
20944SOL     OW65369   8.094   0.406   7.301  0.3116 -0.2665 -0.2147
20944SOL    HW165370   8.047   0.420   7.384  1.1038  2.0975 -0.1258
20944SOL    HW265371   8.116   0.313   7.302 -0.0234 -0.3537  2.0554
20945SOL     OW65372   6.925   3.602   9.276  0.2242  0.2928  0.1603
20945SOL    HW165373   6.965   3.677   9.233  2.6418  0.3202  2.3379
20945SOL    HW265374   6.973   3.592   9.358 -0.1716 -3.4907  0.0481
20946SOL     OW65375   5.800   8.502   9.128  0.5297  0.3413  0.0501
20946SOL    HW165376   5.823   8.571   9.191  3.6466 -0.3800 -0.1921
20946SOL    HW265377   5.812   8.420   9.177  0.5071 -0.1335 -0.7289
20947SOL     OW65378   1.156   4.065   3.929 -0.3425  0.5325 -0.8589
20947SOL    HW165379   1.202   4.144   3.957 -1.3292  1.0274 -0.6240
20947SOL    HW265380   1.192   4.046   3.842  3.1292 -1.3248  0.8492
20948SOL     OW65381   0.155   3.980   7.344 -0.4877 -0.4780 -0.6428
20948SOL    HW165382   0.200   3.924   7.280  1.4063 -0.0331  0.2448
20948SOL    HW265383   0.165   4.069   7.309 -2.6565 -0.5839 -1.5675
20949SOL     OW65384   4.533   7.355   4.823 -0.0969 -0.4183  0.4325
20949SOL    HW165385   4.534   7.262   4.801  0.0813 -0.2547 -0.2629
20949SOL    HW265386   4.476   7.361   4.899 -0.6256 -1.0096  0.0857
20950SOL     OW65387   9.989   2.728   4.604 -0.1523  0.4215  0.3608
20950SOL    HW165388   9.992   2.805   4.547  0.2622  1.7446  2.1124
20950SOL    HW265389  10.073   2.730   4.651 -0.1482 -1.0885  0.4274
20951SOL     OW65390   2.089   3.731   7.364 -0.1187  0.3968 -0.2198
20951SOL    HW165391   2.087   3.813   7.413  0.7522  0.8923 -1.0034
20951SOL    HW265392   2.159   3.743   7.300  1.2816 -1.6610  0.8663
20952SOL     OW65393   9.209   1.792   9.347  0.1357 -0.5004 -0.2217
20952SOL    HW165394   9.193   1.781   9.254  0.5921  0.5918 -0.4374
20952SOL    HW265395   9.256   1.875   9.354 -1.5575  0.3801  1.1620
20953SOL     OW65396   8.354   8.309   9.291  0.3548 -0.3300  0.1844
20953SOL    HW165397   8.311   8.236   9.247 -1.4962 -1.3917  3.5098
20953SOL    HW265398   8.294   8.382   9.282  0.8317 -0.0409 -0.6351
20954SOL     OW65399   0.639   1.690   6.085 -0.3903  0.6156  0.1470
20954SOL    HW165400   0.603   1.610   6.046  1.6632 -0.6039  0.6357
20954SOL    HW265401   0.710   1.715   6.025 -0.2082  1.3666  0.6740
20955SOL     OW65402   6.220   8.059   7.433 -0.6838 -0.2331 -0.1657
20955SOL    HW165403   6.304   8.034   7.396  0.0320  0.0358  1.2338
20955SOL    HW265404   6.160   7.988   7.409  0.1133 -0.7642 -0.5791
20956SOL     OW65405   7.762   3.819   8.827 -0.5019  0.2112  0.8827
20956SOL    HW165406   7.756   3.884   8.898 -1.0378  0.7939  0.3177
20956SOL    HW265407   7.856   3.810   8.810 -0.3599 -0.1033  1.8203
20957SOL     OW65408   6.160   2.852   2.778 -0.2898  0.0497 -0.2753
20957SOL    HW165409   6.144   2.941   2.810 -0.4198  0.9494 -2.7149
20957SOL    HW265410   6.197   2.806   2.853  1.8062  2.7515  0.4375
20958SOL     OW65411   7.754   6.993   8.795 -0.9587 -0.0631 -0.0414
20958SOL    HW165412   7.821   7.058   8.774  0.2872 -1.5829 -0.9071
20958SOL    HW265413   7.803   6.913   8.812 -2.4701 -0.7987  0.9682
20959SOL     OW65414   4.858   3.239   6.244 -0.3413 -0.2879  0.3816
20959SOL    HW165415   4.773   3.203   6.218 -1.2479  1.3479  0.9906
20959SOL    HW265416   4.860   3.326   6.204  1.3230 -0.5548 -0.1436
20960SOL     OW65417   0.793   0.094   0.734  0.2889  0.3790  0.2994
20960SOL    HW165418   0.779   0.027   0.666 -0.6334  0.0521  0.7907
20960SOL    HW265419   0.765   0.176   0.693  1.1412  0.4122 -0.2079
20961SOL     OW65420   7.773   8.022   3.598  0.4868  0.2812  0.1453
20961SOL    HW165421   7.840   8.076   3.639 -0.9459  0.2722  2.5496
20961SOL    HW265422   7.699   8.024   3.658 -1.1026 -1.0466 -1.6715
20962SOL     OW65423   2.742   1.977   6.279  0.4307 -0.3663 -0.4027
20962SOL    HW165424   2.724   2.060   6.322 -0.6373 -0.5649 -0.4508
20962SOL    HW265425   2.794   2.000   6.202 -1.3304  0.4608 -1.3817
20963SOL     OW65426   5.022   3.071   5.720 -0.5549  0.5231  0.3719
20963SOL    HW165427   5.039   3.110   5.806 -0.1612  1.6433 -0.2067
20963SOL    HW265428   4.972   2.992   5.739 -1.7297  1.5215  1.5499
20964SOL     OW65429   3.241   2.649   0.607 -0.1917  0.1938  0.3261
20964SOL    HW165430   3.210   2.597   0.532  2.7302 -0.2175 -0.6911
20964SOL    HW265431   3.241   2.587   0.680  0.1855 -0.3657 -0.1386
20965SOL     OW65432   2.623   9.628   7.653 -0.9954  0.0360  0.6268
20965SOL    HW165433   2.711   9.604   7.624 -0.7992  1.9272 -0.4261
20965SOL    HW265434   2.571   9.630   7.573 -1.9815 -0.9297  1.2267
20966SOL     OW65435   1.055   6.022   5.955 -0.5710  0.4848  0.1753
20966SOL    HW165436   1.065   5.977   5.871 -0.5644 -0.1389  0.5088
20966SOL    HW265437   0.984   6.086   5.940  0.1429  1.1010 -0.6009
20967SOL     OW65438   4.755   9.131   4.470 -0.1087 -0.0862 -0.2370
20967SOL    HW165439   4.711   9.179   4.540 -0.9878  1.3164 -1.6935
20967SOL    HW265440   4.848   9.148   4.483 -0.3101  0.6861  0.2146
20968SOL     OW65441   4.292   8.064   1.801  0.1332  0.6449 -0.3904
20968SOL    HW165442   4.275   8.158   1.805  1.7767  1.0431 -2.2460
20968SOL    HW265443   4.278   8.040   1.710 -0.1921 -0.9261  0.0440
20969SOL     OW65444   3.965   0.357   2.732 -0.5534  0.4119 -0.1160
20969SOL    HW165445   3.974   0.345   2.827 -2.4369  1.6150  0.2241
20969SOL    HW265446   3.898   0.294   2.706  0.0549 -0.0131 -0.6922
20970SOL     OW65447   6.079   8.167   1.855  0.3426 -0.3794  0.2403
20970SOL    HW165448   6.007   8.229   1.867  0.2302 -0.7125  1.4038
20970SOL    HW265449   6.075   8.142   1.763  0.3565  1.3032 -0.2375
20971SOL     OW65450   3.987   0.244   3.352 -0.0379  0.3591 -0.6017
20971SOL    HW165451   3.910   0.283   3.312 -1.2096 -0.7647  0.5203
20971SOL    HW265452   4.054   0.313   3.347 -0.7617  0.9430 -2.5904
20972SOL     OW65453   7.548   6.478   8.209 -0.1405 -0.1062  0.3146
20972SOL    HW165454   7.597   6.430   8.142 -0.7906  0.3085 -0.4626
20972SOL    HW265455   7.616   6.518   8.264  0.3947  0.1829 -0.5508
20973SOL     OW65456   3.766   5.097   7.349  0.1414 -0.2944 -0.0383
20973SOL    HW165457   3.861   5.086   7.347  0.1118 -0.6256  0.2584
20973SOL    HW265458   3.743   5.122   7.260  0.7201  1.6175  0.3328
20974SOL     OW65459   0.487   3.995   9.763 -0.4806  0.8963  0.3329
20974SOL    HW165460   0.468   4.005   9.857  0.0780 -0.1913  0.5594
20974SOL    HW265461   0.577   4.025   9.754 -0.3998  0.6027  0.2007
20975SOL     OW65462   0.245  10.057   1.723 -0.0469 -0.0932 -0.4231
20975SOL    HW165463   0.168  10.088   1.771 -0.2609 -1.0918 -0.1007
20975SOL    HW265464   0.225  10.076   1.632 -1.4230 -1.8267 -0.5188
20976SOL     OW65465   2.139   7.234   9.757  0.3753 -0.8528 -0.1561
20976SOL    HW165466   2.122   7.143   9.732  1.0759 -1.1865  0.5712
20976SOL    HW265467   2.225   7.232   9.799  1.2616  0.4688 -1.8456
20977SOL     OW65468   3.269   9.848   5.968 -0.5085  0.2813 -0.0086
20977SOL    HW165469   3.301   9.836   5.879 -0.6778 -1.1389  0.1032
20977SOL    HW265470   3.322   9.918   6.004  0.3923  0.0276 -0.8275
20978SOL     OW65471   5.573   9.581  10.133  0.2055 -0.8487 -0.3790
20978SOL    HW165472   5.597   9.496  10.171 -1.7895 -0.4846  1.8135
20978SOL    HW265473   5.619   9.645  10.186 -1.1546 -0.4062  0.2736
20979SOL     OW65474   3.198   6.332   9.308  0.4350 -0.3396 -0.0304
20979SOL    HW165475   3.177   6.288   9.390  0.1134  0.0580  0.1083
20979SOL    HW265476   3.149   6.414   9.312 -0.0487 -0.5801 -0.8809
20980SOL     OW65477   9.966   9.572   4.433 -0.4955 -0.1974  0.1843
20980SOL    HW165478   9.940   9.533   4.516  1.2664 -0.4053  0.6644
20980SOL    HW265479  10.006   9.655   4.457  1.2086 -0.8410 -0.3161
20981SOL     OW65480   8.888   6.162   2.434 -0.1922  0.2846  0.1342
20981SOL    HW165481   8.874   6.248   2.473  0.7811  0.1545  0.7968
20981SOL    HW265482   8.924   6.181   2.347  1.1015  0.5376  0.7216
20982SOL     OW65483   5.698   3.764   5.393  0.2512  0.0729  0.5771
20982SOL    HW165484   5.703   3.841   5.450  1.3354  1.6776 -1.6226
20982SOL    HW265485   5.627   3.783   5.332 -0.1025 -1.1038  0.5966
20983SOL     OW65486   5.643   7.923   7.639 -0.1220 -0.1823  0.1861
20983SOL    HW165487   5.696   7.843   7.645 -0.8031 -0.6147  0.5236
20983SOL    HW265488   5.567   7.896   7.587 -0.8417 -0.0108  1.1500
20984SOL     OW65489   6.720   8.463   7.411 -0.3986  0.2880 -0.2749
20984SOL    HW165490   6.780   8.512   7.468  0.1889  0.8212 -1.3267
20984SOL    HW265491   6.673   8.404   7.470  1.2096 -0.1822  0.5674
20985SOL     OW65492   7.304   4.323   4.612 -0.3774  0.5553  0.5538
20985SOL    HW165493   7.237   4.369   4.563  0.0134  0.0009 -0.5154
20985SOL    HW265494   7.387   4.359   4.579 -0.0731 -0.8872 -0.2782
20986SOL     OW65495   9.608   8.942   9.614 -0.1058 -0.1949 -0.0060
20986SOL    HW165496   9.601   8.982   9.700 -0.2661  1.7475 -0.8940
20986SOL    HW265497   9.523   8.901   9.599 -0.5367  0.6082  0.2121
20987SOL     OW65498   7.279  10.102   1.750  0.3494  0.6074  0.2385
20987SOL    HW165499   7.250  10.179   1.700  1.3837  1.5415  1.0594
20987SOL    HW265500   7.311  10.042   1.683 -2.3288  0.0200 -0.5993
20988SOL     OW65501   5.842   1.106   5.264  0.0113 -0.5450 -0.3110
20988SOL    HW165502   5.755   1.104   5.304  0.3998  1.1210  0.6693
20988SOL    HW265503   5.868   1.014   5.259 -1.7082 -1.0442 -0.4119
20989SOL     OW65504   6.329   8.727   6.410  0.0318 -0.1670 -0.1835
20989SOL    HW165505   6.255   8.745   6.468  0.8475 -1.3883  1.2921
20989SOL    HW265506   6.396   8.790   6.436 -0.0054  0.0276 -0.5666
20990SOL     OW65507   1.622   9.151   1.821  0.4590 -0.2182  0.5251
20990SOL    HW165508   1.709   9.126   1.789  1.0687 -1.5346  3.0732
20990SOL    HW265509   1.636   9.233   1.866  0.4021 -0.4845  1.0298
20991SOL     OW65510   1.205   4.690   8.463 -0.4821  0.1167 -0.2845
20991SOL    HW165511   1.237   4.727   8.381  0.4880 -1.2052 -0.5176
20991SOL    HW265512   1.114   4.719   8.469 -0.8458 -0.5532 -2.3002
20992SOL     OW65513   3.208   9.173   8.885  0.5939  0.0710  0.2110
20992SOL    HW165514   3.288   9.124   8.862  0.4158 -0.4374  0.6756
20992SOL    HW265515   3.141   9.105   8.898  0.8668  0.2711  2.9955
20993SOL     OW65516   2.852   0.141   9.975 -0.2900  0.3946 -0.1718
20993SOL    HW165517   2.807   0.223   9.957 -0.3345  1.1110  2.9305
20993SOL    HW265518   2.943   0.167   9.993 -0.2927 -0.2243  0.7653
20994SOL     OW65519   2.985   0.694   7.093 -0.0944 -0.2330 -0.0878
20994SOL    HW165520   3.070   0.651   7.099  0.0076 -0.1756 -1.0761
20994SOL    HW265521   3.006   0.787   7.084 -0.3323  0.1902  3.2691
20995SOL     OW65522   2.173   7.725   5.100 -0.0740 -0.0593 -0.2703
20995SOL    HW165523   2.161   7.789   5.170  0.6447 -2.6082  2.3254
20995SOL    HW265524   2.234   7.766   5.040  1.4992  1.1627  2.0807
20996SOL     OW65525   6.994   7.078   7.867  0.6948 -0.7171 -0.3400
20996SOL    HW165526   7.077   7.059   7.911 -0.6752  0.0754  2.7536
20996SOL    HW265527   6.936   7.108   7.937 -1.4641  1.1859 -2.8183
20997SOL     OW65528   9.918   8.393   4.584 -0.6586 -0.4443  0.6965
20997SOL    HW165529   9.981   8.322   4.577 -0.5499 -0.4023  1.2057
20997SOL    HW265530   9.966   8.471   4.554  0.1377 -0.0706  2.8354
20998SOL     OW65531   8.893   4.537   1.787  0.3693 -0.0802  0.3623
20998SOL    HW165532   8.874   4.475   1.857  0.5556  0.3440  0.7920
20998SOL    HW265533   8.882   4.623   1.827  2.3066  0.1827  0.3827
20999SOL     OW65534   5.667   3.574   6.780 -0.4484  0.1804 -0.4064
20999SOL    HW165535   5.723   3.496   6.784 -0.7501  0.0093  0.6641
20999SOL    HW265536   5.616   3.571   6.861  0.4178  2.1724  0.2487
21000SOL     OW65537   7.101   0.827   6.873  0.0467  0.4654  0.8270
21000SOL    HW165538   7.046   0.848   6.949 -1.1171  1.8697 -0.3810
21000SOL    HW265539   7.082   0.734   6.856 -3.4875  1.3839 -0.7528
21001SOL     OW65540   5.220   8.363   9.011 -0.7971 -0.3097 -0.2613
21001SOL    HW165541   5.271   8.339   9.089 -1.1280  0.1579  0.1007
21001SOL    HW265542   5.261   8.444   8.980 -1.5670  0.2875  0.2644
21002SOL     OW65543   9.199   4.575   2.483 -0.1765  0.4027  0.4149
21002SOL    HW165544   9.228   4.546   2.397 -0.0376 -1.6106  1.1289
21002SOL    HW265545   9.122   4.630   2.465 -0.3937 -0.3358 -0.9557
21003SOL     OW65546   1.423   1.734   9.713 -0.1127  0.2634 -0.1314
21003SOL    HW165547   1.477   1.789   9.656  0.1647 -0.5745 -0.6933
21003SOL    HW265548   1.335   1.740   9.675  0.1177 -0.4837 -0.8075
21004SOL     OW65549   3.797   1.938   2.555  0.1744  0.0244 -0.3796
21004SOL    HW165550   3.765   1.896   2.635 -0.9441  0.6211 -0.5178
21004SOL    HW265551   3.833   2.021   2.584  1.7572 -0.6956 -0.2067
21005SOL     OW65552   6.276   2.309   1.088 -0.9647 -0.1492  0.0780
21005SOL    HW165553   6.303   2.237   1.031 -1.7174 -0.0952 -0.3593
21005SOL    HW265554   6.192   2.280   1.125 -0.9019  0.1826  0.4909
21006SOL     OW65555   1.805   6.880  10.144 -0.5350 -0.3171 -0.4815
21006SOL    HW165556   1.718   6.842  10.133 -1.8567  2.3254  0.5079
21006SOL    HW265557   1.826   6.866  10.236 -1.0382  1.3181 -0.1039
21007SOL     OW65558   0.662   0.641   8.192  0.1446 -0.1574  0.1097
21007SOL    HW165559   0.689   0.614   8.280  0.3925  1.3196  0.5002
21007SOL    HW265560   0.607   0.717   8.206 -1.1320 -0.8736 -0.9317
21008SOL     OW65561   8.317   5.509   6.033 -0.3586  0.3782  0.2065
21008SOL    HW165562   8.410   5.507   6.011 -0.3618 -1.9372  0.2905
21008SOL    HW265563   8.278   5.442   5.976 -2.1181  1.9129 -0.4374
21009SOL     OW65564   8.046   7.253   2.936  0.0389  0.3156 -0.3306
21009SOL    HW165565   8.037   7.341   2.973 -1.7677 -0.4995  1.2861
21009SOL    HW265566   8.106   7.264   2.863  1.2753  2.5631  0.9618
21010SOL     OW65567   8.679   0.089   8.322  0.3939  0.5384  0.0754
21010SOL    HW165568   8.760   0.105   8.274  0.1827 -1.0465 -0.8312
21010SOL    HW265569   8.610   0.094   8.256  0.0051 -0.6479  0.3870
21011SOL     OW65570   9.265   5.293   9.379  0.1158  0.2007 -0.0881
21011SOL    HW165571   9.203   5.316   9.309 -0.0129 -3.1516 -1.1522
21011SOL    HW265572   9.211   5.286   9.457 -0.4848 -0.3922 -0.5483
21012SOL     OW65573   1.379   8.810   4.609  0.7545 -0.2231  0.1242
21012SOL    HW165574   1.373   8.879   4.543  0.1243 -0.0015  0.4151
21012SOL    HW265575   1.427   8.850   4.682  1.0007 -0.3100  0.0107
21013SOL     OW65576   0.080   5.833   0.627  0.2863 -0.5641 -1.1076
21013SOL    HW165577   0.006   5.891   0.641 -0.4315 -1.4815 -1.0378
21013SOL    HW265578   0.094   5.834   0.532 -0.6636 -1.4129 -1.2602
21014SOL     OW65579   7.068   0.448   3.224 -0.4314 -0.2370  0.0730
21014SOL    HW165580   7.027   0.409   3.301  0.3204 -1.3373 -0.0728
21014SOL    HW265581   6.995   0.488   3.176 -0.9121  0.3575  1.2907
21015SOL     OW65582   4.306   7.805   7.300  0.1663  0.0216 -0.0894
21015SOL    HW165583   4.260   7.858   7.364 -0.4417  1.1435 -1.4149
21015SOL    HW265584   4.394   7.793   7.336  0.1177  1.4052  0.5188
21016SOL     OW65585   8.017   2.066   9.693  0.6304 -0.1415  0.9491
21016SOL    HW165586   8.024   1.994   9.756 -1.5561 -0.5102  0.7907
21016SOL    HW265587   8.039   2.026   9.609 -1.7529 -0.9335  0.6776
21017SOL     OW65588   0.615   4.150   6.961 -0.0005 -0.3529 -0.1564
21017SOL    HW165589   0.669   4.121   6.888  0.5960 -0.3280  0.2631
21017SOL    HW265590   0.673   4.207   7.012  0.1507 -1.7234  1.2563
21018SOL     OW65591   1.013   2.570   5.944  0.3081 -0.1246 -0.0263
21018SOL    HW165592   0.974   2.617   5.870 -0.3505  0.0529  0.4411
21018SOL    HW265593   0.997   2.626   6.020 -0.1652 -0.9340  0.4716
21019SOL     OW65594   5.866   1.979   9.533 -0.7479  0.0501  0.2239
21019SOL    HW165595   5.869   1.893   9.574  0.2635 -0.2989 -0.5563
21019SOL    HW265596   5.957   2.008   9.531 -1.1196  1.3096  0.8288
21020SOL     OW65597   3.431  10.022   3.859 -0.1075  0.2570  0.4803
21020SOL    HW165598   3.385   9.950   3.903 -0.6810  0.9923  1.0799
21020SOL    HW265599   3.372  10.049   3.789  0.4244 -0.3284 -0.2056
21021SOL     OW65600   9.072   5.879   1.145  0.0836  0.2842 -0.0229
21021SOL    HW165601   8.999   5.870   1.084  0.0057 -0.0626  0.1198
21021SOL    HW265602   9.137   5.930   1.098 -0.3574  0.8243 -0.0605
21022SOL     OW65603   3.323   1.601   4.570  0.3058 -0.1941  0.0537
21022SOL    HW165604   3.243   1.556   4.541  1.6805 -1.3701 -2.1197
21022SOL    HW265605   3.379   1.602   4.492  1.7635  2.0892  1.0870
21023SOL     OW65606   1.136   1.819   5.752 -0.4202  0.4497  0.1084
21023SOL    HW165607   1.127   1.906   5.790  1.2693  0.2777  0.9376
21023SOL    HW265608   1.116   1.759   5.824  0.6771  0.1347  0.1506
21024SOL     OW65609   0.009   7.614   5.903  0.3072  0.1277  0.4785
21024SOL    HW165610   0.060   7.563   5.966  0.9724  0.9083  0.5869
21024SOL    HW265611   0.037   7.582   5.817 -2.2950 -2.5846  0.5515
21025SOL     OW65612   9.313   1.546   0.072 -0.2112 -0.0987 -0.2934
21025SOL    HW165613   9.230   1.498   0.067  0.0774 -0.4816 -1.4261
21025SOL    HW265614   9.287   1.638   0.075 -0.6490 -0.1855 -1.3806
21026SOL     OW65615   9.482   5.355   3.740  0.2771 -0.4789  0.1993
21026SOL    HW165616   9.424   5.306   3.681 -2.1207  0.1987  1.9215
21026SOL    HW265617   9.561   5.301   3.745 -0.6343 -2.0241 -1.2809
21027SOL     OW65618   6.163   3.873   5.647  0.4056  0.7858  0.1984
21027SOL    HW165619   6.170   3.945   5.584  3.2534  0.4460  0.0539
21027SOL    HW265620   6.249   3.870   5.689 -0.5430 -0.8233  2.1089
21028SOL     OW65621   0.621   9.514   9.652  0.1267  0.3955 -0.7021
21028SOL    HW165622   0.586   9.527   9.565  0.2910  1.2990 -0.6394
21028SOL    HW265623   0.716   9.507   9.639  0.2368  1.4035 -0.5159
21029SOL     OW65624   9.811   9.302   0.181  0.0983  0.6019 -0.5848
21029SOL    HW165625   9.895   9.310   0.136 -0.3705  1.0762 -1.3899
21029SOL    HW265626   9.825   9.345   0.266  0.9215 -0.1189 -0.3530
21030SOL     OW65627   2.720   5.776   4.940  0.0924  0.6706  0.1626
21030SOL    HW165628   2.765   5.726   5.009 -0.7337 -1.7393 -1.0244
21030SOL    HW265629   2.631   5.786   4.972 -0.3849 -0.7572 -0.6972
21031SOL     OW65630   0.903   6.841   7.544 -0.0268  0.8826  0.2119
21031SOL    HW165631   0.829   6.876   7.494  1.2223 -0.6121 -2.8448
21031SOL    HW265632   0.968   6.911   7.542  0.6268  0.2520 -1.7191
21032SOL     OW65633   3.573   8.509   6.008 -0.3810 -0.2325  0.2569
21032SOL    HW165634   3.553   8.582   5.949 -1.1463 -1.3128 -0.8527
21032SOL    HW265635   3.550   8.430   5.957  0.9538 -1.2626  1.2225
21033SOL     OW65636  10.187   1.232   0.034  0.2483 -0.0142 -0.0947
21033SOL    HW165637  10.100   1.201   0.059 -0.3770  1.3032 -0.5895
21033SOL    HW265638  10.236   1.235   0.116 -0.7477  1.0151  0.4787
21034SOL     OW65639   6.615   7.731   5.110  0.5040  0.2083  0.3618
21034SOL    HW165640   6.645   7.715   5.020  0.3629 -1.1404  0.5540
21034SOL    HW265641   6.583   7.647   5.140 -0.8626  1.0044  1.1573
21035SOL     OW65642   3.926   2.273   0.483 -0.2125 -0.1700  0.0214
21035SOL    HW165643   3.864   2.268   0.555  1.1385  1.1752  1.3286
21035SOL    HW265644   3.874   2.299   0.408 -1.2060  1.1638  1.1453
21036SOL     OW65645   2.456   8.580   3.103 -0.2589 -0.0334  0.2856
21036SOL    HW165646   2.402   8.641   3.052 -0.5488  1.0273  1.8099
21036SOL    HW265647   2.409   8.497   3.098 -0.1685 -0.0046 -1.3384
21037SOL     OW65648   8.402   2.214   8.766  0.5947  0.0090 -0.5429
21037SOL    HW165649   8.339   2.145   8.784  0.3272  0.2133 -0.7023
21037SOL    HW265650   8.448   2.185   8.687  0.2601  0.1657 -0.7982
21038SOL     OW65651   6.459   9.994   6.167  0.2103  0.0412 -0.2750
21038SOL    HW165652   6.432   9.903   6.153 -0.4817  0.5449 -2.3433
21038SOL    HW265653   6.554   9.990   6.173  0.1665 -0.8413 -0.0740
21039SOL     OW65654   6.172   2.618   8.437  0.1210 -0.2007  0.4561
21039SOL    HW165655   6.079   2.622   8.414  0.4633 -2.3808 -1.5231
21039SOL    HW265656   6.198   2.709   8.447 -2.3564  0.4353  1.6292
21040SOL     OW65657   0.635   2.915   9.045  0.1176  0.4006  0.0067
21040SOL    HW165658   0.709   2.950   9.094 -0.1046 -0.5247  1.0178
21040SOL    HW265659   0.671   2.839   8.998 -0.5033 -0.9196  1.6319
21041SOL     OW65660   2.703   8.312   6.242  0.1789  0.2137 -0.1200
21041SOL    HW165661   2.702   8.248   6.312 -0.7195  1.4687  1.0420
21041SOL    HW265662   2.775   8.284   6.185  0.3322 -1.3280  0.8030
21042SOL     OW65663   0.431   6.816   3.147 -0.0409 -0.4965  0.0038
21042SOL    HW165664   0.465   6.846   3.063  1.3663  0.3635  0.8572
21042SOL    HW265665   0.408   6.896   3.193  0.5369 -0.8928  0.9891
21043SOL     OW65666   4.948   1.044   7.268  0.0762 -1.0425 -0.2108
21043SOL    HW165667   5.026   1.060   7.320  0.6960  0.3768 -1.5413
21043SOL    HW265668   4.951   1.111   7.199 -1.7728 -1.6119 -0.8695
21044SOL     OW65669   2.356   8.773   9.712  0.9888  0.4973 -0.3958
21044SOL    HW165670   2.448   8.751   9.724  0.3923 -2.8259 -1.3689
21044SOL    HW265671   2.338   8.754   9.620 -0.7065  1.0083 -0.1932
21045SOL     OW65672   2.008   0.979   2.514 -0.2611 -0.3044  0.2011
21045SOL    HW165673   1.927   0.946   2.554 -1.0499 -0.6866 -1.6830
21045SOL    HW265674   2.022   1.065   2.555 -1.1723 -0.5949  1.1308
21046SOL     OW65675   0.267   5.317   7.043  0.3171  0.0117 -0.3366
21046SOL    HW165676   0.237   5.408   7.042  1.5032  0.4323  1.3449
21046SOL    HW265677   0.189   5.266   7.062 -0.4350  0.6371 -1.6964
21047SOL     OW65678   1.331   0.101   2.427  0.1930 -0.0756  0.1737
21047SOL    HW165679   1.339   0.013   2.463  1.3111 -1.0947 -2.4826
21047SOL    HW265680   1.238   0.121   2.434  0.2984 -0.3961  3.1508
21048SOL     OW65681   8.937   9.911   5.899 -0.9124  0.5085 -0.1646
21048SOL    HW165682   8.872   9.914   5.830  2.7325 -0.7162 -3.8445
21048SOL    HW265683   8.975   9.999   5.901 -1.1933  0.6210  0.5187
21049SOL     OW65684   1.940   0.123   6.572  0.0246 -0.1927 -0.6238
21049SOL    HW165685   1.911   0.206   6.534 -0.9752 -0.7054 -1.0080
21049SOL    HW265686   1.865   0.092   6.622  1.0321  0.0404  1.0783
21050SOL     OW65687   2.969   6.482   0.307 -0.1324 -0.4187 -0.5443
21050SOL    HW165688   2.931   6.568   0.288  0.8246 -0.2535 -1.7604
21050SOL    HW265689   2.983   6.443   0.221  0.7051 -1.2342 -0.0410
21051SOL     OW65690   8.517   6.498   8.406 -0.3471 -0.2707  0.4838
21051SOL    HW165691   8.599   6.452   8.422  0.8392  0.8437 -2.0648
21051SOL    HW265692   8.459   6.431   8.367  0.1427 -0.5090  0.1619
21052SOL     OW65693   4.324   1.344   1.212 -0.3179 -0.3951 -0.4247
21052SOL    HW165694   4.311   1.326   1.119  0.8055  1.2162 -0.9165
21052SOL    HW265695   4.414   1.314   1.230  0.7197  2.4239 -0.7025
21053SOL     OW65696   3.219   1.243   5.380  0.2234  0.3445 -0.1216
21053SOL    HW165697   3.142   1.261   5.433  2.1879  0.9419  2.6983
21053SOL    HW265698   3.193   1.262   5.290 -2.3791  2.2131  0.9833
21054SOL     OW65699   8.215   4.262   7.771  0.4838  0.1397  1.1083
21054SOL    HW165700   8.242   4.271   7.680  0.9893  0.0482  1.2491
21054SOL    HW265701   8.120   4.247   7.766  0.5762 -0.2776  0.5788
21055SOL     OW65702   4.309   4.410   0.538 -0.2624 -0.1149 -0.0135
21055SOL    HW165703   4.309   4.413   0.634 -0.3748 -0.8973  0.0190
21055SOL    HW265704   4.401   4.418   0.514 -0.1390 -0.8450  0.2018
21056SOL     OW65705   7.752   8.384   1.672  0.0978 -0.3170 -0.1090
21056SOL    HW165706   7.744   8.337   1.755  0.0261  0.2250  0.1970
21056SOL    HW265707   7.696   8.461   1.683 -0.0686 -0.3501 -0.7378
21057SOL     OW65708   0.868   5.372   9.446  0.4465  0.4001  0.2426
21057SOL    HW165709   0.842   5.461   9.424  0.2735  0.1938 -0.4002
21057SOL    HW265710   0.787   5.328   9.471  0.3693  0.1401 -0.4385
21058SOL     OW65711   3.148   0.495   0.604 -0.5343  0.0889  0.2213
21058SOL    HW165712   3.149   0.580   0.647 -1.0465 -0.8645  2.2083
21058SOL    HW265713   3.212   0.502   0.534 -0.1525  1.9183  0.7367
21059SOL     OW65714   1.575   3.505   1.127 -0.8503  0.0221  0.2160
21059SOL    HW165715   1.504   3.491   1.190 -0.7124 -1.5170  0.0578
21059SOL    HW265716   1.638   3.436   1.147  0.1021  0.7183 -0.3551
21060SOL     OW65717   6.047   9.150   7.622 -0.0677  0.4877 -0.3863
21060SOL    HW165718   5.967   9.196   7.595 -0.6603  0.1332  0.7141
21060SOL    HW265719   6.044   9.152   7.717 -0.0516 -1.7453 -0.3169
21061SOL     OW65720   2.654   9.693   1.278 -0.0552  0.8321  0.4029
21061SOL    HW165721   2.577   9.642   1.255  0.5675 -0.2189  0.6230
21061SOL    HW265722   2.711   9.687   1.202  0.4862  0.2865  0.8427
21062SOL     OW65723   6.864   2.602   3.240 -0.1453 -0.2394 -0.2163
21062SOL    HW165724   6.875   2.686   3.197 -0.7986 -0.5055 -0.9079
21062SOL    HW265725   6.921   2.542   3.191  0.9614 -0.0363  0.7873
21063SOL     OW65726   5.774   8.215  10.136  0.5634  0.2022 -0.4709
21063SOL    HW165727   5.844   8.177  10.189 -0.5486  0.1520  0.9851
21063SOL    HW265728   5.712   8.143  10.124  0.7497  0.2379 -1.7819
21064SOL     OW65729   8.380   5.846   4.504 -0.4087  0.0461  0.0525
21064SOL    HW165730   8.418   5.918   4.454  1.4219 -1.2347 -0.4587
21064SOL    HW265731   8.427   5.847   4.587 -0.7728 -0.1819  0.2622
21065SOL     OW65732   6.300   5.141   3.909 -0.2610  0.5007 -0.1133
21065SOL    HW165733   6.328   5.071   3.968 -0.5891  2.4834  2.4456
21065SOL    HW265734   6.376   5.198   3.901 -0.6292  0.9266 -0.6019
21066SOL     OW65735   2.393   5.853   1.196 -0.3137 -0.0123 -0.2011
21066SOL    HW165736   2.478   5.853   1.153  0.3543  3.1899  0.9659
21066SOL    HW265737   2.340   5.912   1.142 -1.5055 -1.2172 -0.3650
21067SOL     OW65738   3.774   3.112   5.837  0.0902  0.2697 -0.2726
21067SOL    HW165739   3.782   3.018   5.853  0.1159 -0.1039 -2.3312
21067SOL    HW265740   3.712   3.142   5.902  0.2921 -1.1249  0.5959
21068SOL     OW65741   2.475   1.318   6.701  0.4964  0.3453  0.0516
21068SOL    HW165742   2.529   1.239   6.692 -1.6211 -1.2254  0.7567
21068SOL    HW265743   2.516   1.381   6.642  3.6889 -0.4413  1.3054
21069SOL     OW65744  10.176   4.139   1.156  0.2782 -0.1408 -0.0597
21069SOL    HW165745  10.250   4.080   1.170 -0.5532 -0.8539  1.4683
21069SOL    HW265746  10.216   4.225   1.145  1.4131 -0.7476 -0.8037
21070SOL     OW65747   9.448   5.176   4.528 -0.2123  0.1263  0.1761
21070SOL    HW165748   9.436   5.271   4.525  0.1712  0.1435 -1.4394
21070SOL    HW265749   9.511   5.163   4.598  0.1340  1.1241  0.0694
21071SOL     OW65750   3.480   6.019   3.000 -0.3693  0.5280  0.0034
21071SOL    HW165751   3.495   5.980   2.914  0.0323  0.0203  0.3041
21071SOL    HW265752   3.393   5.988   3.026  0.5311 -1.3436  0.8711
21072SOL     OW65753   2.915   1.746   8.678  0.2705 -0.3088  0.4402
21072SOL    HW165754   3.008   1.728   8.696  0.7070  0.0149 -1.4076
21072SOL    HW265755   2.914   1.779   8.588 -1.7416 -1.0641  0.1705
21073SOL     OW65756   0.384   9.969   2.638  0.2292  0.3326  0.1908
21073SOL    HW165757   0.312   9.933   2.586  1.3496  0.0776 -1.2036
21073SOL    HW265758   0.350   9.971   2.727 -1.6986  0.7299 -0.5307
21074SOL     OW65759   0.276   2.599   7.088  0.0545 -0.0440  0.4244
21074SOL    HW165760   0.310   2.551   7.164 -0.6877  0.9166  1.3715
21074SOL    HW265761   0.223   2.534   7.041 -1.5433  0.0043  2.0916
21075SOL     OW65762   5.417   8.031   7.103  0.0132  0.2632  0.2358
21075SOL    HW165763   5.368   7.961   7.060  0.1240  0.0830  0.4041
21075SOL    HW265764   5.474   7.986   7.165 -0.9625  0.6007  1.3827
21076SOL     OW65765   1.730   2.080   2.768  0.2995  0.4716 -0.3688
21076SOL    HW165766   1.752   2.089   2.861  2.9621 -1.3048 -0.7789
21076SOL    HW265767   1.769   2.157   2.727  0.9650  0.1635 -0.3132
21077SOL     OW65768   4.961   2.525   1.395 -0.0550  0.4252 -0.2837
21077SOL    HW165769   4.935   2.463   1.463  1.9552 -0.2864 -0.1391
21077SOL    HW265770   4.930   2.610   1.427 -1.2767 -0.2397  0.3389
21078SOL     OW65771   7.150   0.776   6.423 -0.0789 -0.4150  0.2667
21078SOL    HW165772   7.185   0.808   6.506 -0.2405  2.2280 -0.6398
21078SOL    HW265773   7.055   0.786   6.432 -0.2060 -1.7857  0.4311
21079SOL     OW65774   0.904   9.960   4.320  0.3406 -0.7615 -0.5253
21079SOL    HW165775   0.816   9.944   4.355  0.4600  1.2105  0.8053
21079SOL    HW265776   0.959   9.892   4.359 -0.4158 -1.4353 -0.6233
21080SOL     OW65777   2.905   7.179   3.763  0.2632 -0.1350 -0.2957
21080SOL    HW165778   2.869   7.267   3.749 -1.5118 -0.8626 -0.4676
21080SOL    HW265779   2.948   7.158   3.681  4.1881  2.1165  1.0496
21081SOL     OW65780   4.290   4.719   0.885  0.0428 -0.5650 -0.3880
21081SOL    HW165781   4.267   4.811   0.899  0.1586 -0.6227  0.1949
21081SOL    HW265782   4.385   4.716   0.895 -0.1675 -1.1187  1.8138
21082SOL     OW65783   3.872   7.939   9.668 -0.5570  0.6925 -0.4350
21082SOL    HW165784   3.908   7.877   9.604 -0.0283  1.7831 -1.2205
21082SOL    HW265785   3.896   8.025   9.633  2.3003  1.2455  2.7235
21083SOL     OW65786   5.817   3.647   2.312 -0.3942  0.3681 -0.1145
21083SOL    HW165787   5.825   3.667   2.406  0.4667 -1.9726  0.3447
21083SOL    HW265788   5.764   3.568   2.309  0.9959 -0.5245 -1.4908
21084SOL     OW65789   4.207   6.670   8.141  0.1880 -0.6911  0.1609
21084SOL    HW165790   4.279   6.610   8.121  0.9171  0.1660  0.1965
21084SOL    HW265791   4.222   6.694   8.233  1.3199  1.4522 -0.5482
21085SOL     OW65792   2.402   5.902   5.749  0.0805 -0.9553 -0.2675
21085SOL    HW165793   2.346   5.911   5.826 -0.7164 -0.8117 -0.8525
21085SOL    HW265794   2.484   5.866   5.783 -0.4162 -1.3120  0.5805
21086SOL     OW65795   1.959   9.144   6.727 -0.6126 -0.4642  0.1928
21086SOL    HW165796   1.890   9.137   6.661  0.4968  3.0009 -1.4700
21086SOL    HW265797   1.913   9.142   6.810 -2.9134  2.8316 -0.9055
21087SOL     OW65798   8.998   2.053   8.602  0.1864 -0.2082 -0.1389
21087SOL    HW165799   9.052   2.115   8.554  0.1553 -0.2556 -0.2362
21087SOL    HW265800   8.928   2.106   8.640  0.7419 -0.0324  0.6407
21088SOL     OW65801   7.844   0.263   4.629  0.1315  0.2313  0.3089
21088SOL    HW165802   7.921   0.295   4.582  0.3265 -0.6402  0.0124
21088SOL    HW265803   7.775   0.259   4.563  0.4131 -1.0214  0.0728
21089SOL     OW65804   8.717   1.663   6.407  0.1992  0.2919  0.6861
21089SOL    HW165805   8.808   1.634   6.399 -0.0668 -0.1782 -0.7094
21089SOL    HW265806   8.667   1.602   6.353 -0.5031  2.7555 -1.5232
21090SOL     OW65807   4.712   9.817   0.136 -0.2644 -0.7573 -0.5116
21090SOL    HW165808   4.749   9.776   0.214 -2.2101 -0.8095  0.4155
21090SOL    HW265809   4.695   9.744   0.076  1.7050 -0.6646 -1.2119
21091SOL     OW65810   7.144   7.747   5.088 -0.1993  0.0002 -0.1908
21091SOL    HW165811   7.193   7.772   5.010  0.7317 -2.4058 -0.4114
21091SOL    HW265812   7.212   7.724   5.152 -0.9707  1.0253  1.0027
21092SOL     OW65813   1.439   8.063   5.633 -0.0670 -0.2392 -0.1965
21092SOL    HW165814   1.437   8.041   5.726  0.9531 -2.4428 -0.6797
21092SOL    HW265815   1.512   8.124   5.624 -0.4621  0.3457  0.4978
21093SOL     OW65816   0.035   1.845   2.151 -0.2953  0.1023 -0.0069
21093SOL    HW165817   0.046   1.812   2.240  0.5626  3.7677  1.3468
21093SOL    HW265818   0.116   1.822   2.106 -0.4514 -1.1553  0.3252
21094SOL     OW65819   4.002   1.465   5.428 -0.3182  0.6211  0.1316
21094SOL    HW165820   3.909   1.453   5.409  0.1472 -1.4855 -0.9094
21094SOL    HW265821   4.038   1.377   5.430  1.4711  1.3531  1.6246
21095SOL     OW65822   5.500   8.200   3.174 -0.2135  0.2094  0.3338
21095SOL    HW165823   5.470   8.126   3.121 -0.5164  0.5950 -0.0441
21095SOL    HW265824   5.557   8.162   3.241  0.4002 -0.2465 -0.4481
21096SOL     OW65825   0.421   6.791   6.463  0.5263  0.2829  0.8147
21096SOL    HW165826   0.448   6.754   6.379  0.9006  1.2163  0.5269
21096SOL    HW265827   0.501   6.795   6.515  0.1918 -0.8694  1.4456
21097SOL     OW65828   2.468   0.315   8.936  0.2697  0.1755 -0.3788
21097SOL    HW165829   2.404   0.254   8.972 -0.0719  0.6698 -0.1432
21097SOL    HW265830   2.530   0.330   9.007  1.1437 -0.9565 -0.8682
21098SOL     OW65831   5.477   3.523   3.069  0.0656 -0.3273 -0.1648
21098SOL    HW165832   5.520   3.455   3.121  1.1135 -0.1646 -0.8034
21098SOL    HW265833   5.493   3.498   2.978 -0.6111  0.1108 -0.4059
21099SOL     OW65834   4.578   5.007   5.396 -0.1202  0.2264 -0.0595
21099SOL    HW165835   4.565   4.912   5.402  1.7430 -0.0708 -0.4729
21099SOL    HW265836   4.673   5.018   5.387 -0.4189  2.0636 -1.2215
21100SOL     OW65837   8.557   6.626   2.875 -0.2414  0.4219  0.2528
21100SOL    HW165838   8.513   6.681   2.939 -0.5526  3.1216 -2.1554
21100SOL    HW265839   8.503   6.632   2.796  0.3268 -2.4776 -0.4523
21101SOL     OW65840   8.330   1.607   3.904  0.3995  0.9385  0.4135
21101SOL    HW165841   8.380   1.688   3.893  0.9735  0.6254  0.6499
21101SOL    HW265842   8.241   1.636   3.923  0.2659  1.5036 -1.0225
21102SOL     OW65843   7.929   9.887   9.377 -0.3204 -0.7511  0.0868
21102SOL    HW165844   7.933   9.974   9.417  1.0998 -1.0465  0.6328
21102SOL    HW265845   7.840   9.879   9.344 -0.8768  0.3692  1.2770
21103SOL     OW65846   4.931   1.855   0.554  0.1460  0.5411 -0.2268
21103SOL    HW165847   4.918   1.939   0.509  2.6593  0.6801 -0.7641
21103SOL    HW265848   5.020   1.860   0.588  0.1036 -1.6731  0.2729
21104SOL     OW65849   1.179   8.937   6.470 -0.0901 -0.2276 -0.6193
21104SOL    HW165850   1.089   8.960   6.445 -0.1842 -0.8505 -0.8580
21104SOL    HW265851   1.185   8.843   6.454  0.9297  0.0012 -1.6142
21105SOL     OW65852   9.078   8.122   4.446 -0.0743  0.0414 -0.3934
21105SOL    HW165853   8.984   8.125   4.428 -0.1152  1.3236 -0.0513
21105SOL    HW265854   9.118   8.162   4.369  0.2854 -1.7423 -1.1397
21106SOL     OW65855   7.320   4.675   1.230  0.3440 -0.0477  0.6661
21106SOL    HW165856   7.300   4.600   1.285  1.5441 -0.3265  0.7370
21106SOL    HW265857   7.415   4.684   1.234  0.4523  0.0030 -1.2465
21107SOL     OW65858   5.659   2.360   5.472  0.1332 -0.2749  0.0254
21107SOL    HW165859   5.750   2.330   5.467 -0.1548 -1.3164  0.8610
21107SOL    HW265860   5.653   2.431   5.407  1.4747 -0.3531 -0.1902
21108SOL     OW65861   1.999   8.102   1.988  0.1039  0.3295 -0.0525
21108SOL    HW165862   2.079   8.052   1.970 -1.5197 -1.7096 -1.9712
21108SOL    HW265863   1.981   8.150   1.907 -0.5853  0.8079  0.3776
21109SOL     OW65864   9.414   3.784   6.110  0.2334 -0.4922  0.0963
21109SOL    HW165865   9.370   3.737   6.180 -0.4335  0.3951  0.2796
21109SOL    HW265866   9.431   3.717   6.043 -1.6909 -0.7952 -0.1214
21110SOL     OW65867   4.038   7.576   4.406 -0.0507  0.1285 -0.1557
21110SOL    HW165868   3.978   7.509   4.439 -0.7557  0.1197 -1.4155
21110SOL    HW265869   4.040   7.643   4.474 -0.1991 -0.6606  0.6263
21111SOL     OW65870   1.285   3.705   8.304 -0.9372  0.0930 -0.4559
21111SOL    HW165871   1.327   3.699   8.218  0.3170  0.7048  0.0997
21111SOL    HW265872   1.308   3.792   8.336 -1.7100  0.0129  0.3458
21112SOL     OW65873   8.354   5.919   0.295 -0.1158  0.8413  0.2439
21112SOL    HW165874   8.416   5.889   0.361 -1.2804 -0.9321  0.5604
21112SOL    HW265875   8.275   5.942   0.344 -1.9393 -3.0097 -0.6491
21113SOL     OW65876   8.616   2.931   8.332 -0.1443  0.1422  0.5715
21113SOL    HW165877   8.671   2.890   8.398 -1.7224 -0.8941  1.2610
21113SOL    HW265878   8.550   2.979   8.382  0.1250  1.4160 -0.2496
21114SOL     OW65879   6.434   9.432   7.498  0.0938  0.2761  0.2376
21114SOL    HW165880   6.455   9.521   7.468  0.1822  0.4856  0.8931
21114SOL    HW265881   6.519   9.395   7.522  0.2124 -0.4570 -1.2643
21115SOL     OW65882   8.773   2.296   8.333  0.0627 -0.6495 -0.0569
21115SOL    HW165883   8.731   2.351   8.400  0.6942 -2.0408  1.5228
21115SOL    HW265884   8.716   2.220   8.325 -0.3183 -0.2133 -1.5516
21116SOL     OW65885   8.210   5.406   4.902 -0.1460  0.3173 -0.0442
21116SOL    HW165886   8.182   5.337   4.961  0.3591  0.4914  0.4020
21116SOL    HW265887   8.130   5.455   4.883 -0.4960 -0.3611 -0.3295
21117SOL     OW65888   2.952   4.886   9.508 -0.3015  0.2094  0.0002
21117SOL    HW165889   3.019   4.914   9.446 -0.2815  1.2647  0.4801
21117SOL    HW265890   2.976   4.796   9.531  0.4866  0.2995 -0.4411
21118SOL     OW65891   8.499   3.784   2.043 -0.2308  0.4556  0.2337
21118SOL    HW165892   8.488   3.732   2.122 -0.6842  0.1313 -0.0427
21118SOL    HW265893   8.414   3.828   2.032  0.1749  1.3188  0.5146
21119SOL     OW65894   8.164   7.588  10.044  0.8008  0.6542  0.2961
21119SOL    HW165895   8.208   7.513  10.083  1.1100  0.1550 -1.0025
21119SOL    HW265896   8.162   7.653  10.114 -0.5523 -0.9653  1.8144
21120SOL     OW65897   7.396   8.294   3.128  0.1502 -0.2474  0.7962
21120SOL    HW165898   7.455   8.245   3.071  0.5926  0.6762  0.4676
21120SOL    HW265899   7.450   8.362   3.167 -0.3708 -0.2723  1.5860
21121SOL     OW65900   7.309   1.475   3.816 -0.2063  0.0604  0.5308
21121SOL    HW165901   7.340   1.548   3.871 -1.4229 -0.0434  1.3784
21121SOL    HW265902   7.387   1.445   3.770  0.3710  1.6865  0.4298
21122SOL     OW65903   3.687   5.110   4.588 -0.2923  0.6022 -0.3691
21122SOL    HW165904   3.624   5.071   4.648  0.3929  0.8224  0.5037
21122SOL    HW265905   3.713   5.038   4.531 -0.5760  0.2753 -0.0912
21123SOL     OW65906   8.904   7.881   8.201 -0.0167 -0.3855  0.2439
21123SOL    HW165907   8.985   7.881   8.150 -0.0640 -0.1071  0.1663
21123SOL    HW265908   8.834   7.871   8.136  0.0543 -2.7040  0.4945
21124SOL     OW65909   0.739   9.649   7.117 -0.2564 -0.0729  0.4781
21124SOL    HW165910   0.725   9.739   7.147 -0.6342  0.4269 -1.1646
21124SOL    HW265911   0.834   9.643   7.104 -0.2603  0.1736  0.3329
21125SOL     OW65912   8.562   0.170   0.190  0.0669  0.1874 -0.2088
21125SOL    HW165913   8.564   0.198   0.281  1.7557  1.5560 -0.6326
21125SOL    HW265914   8.592   0.079   0.193 -0.4489  0.0391  0.6561
21126SOL     OW65915   4.893   4.864   6.582  0.4402  0.0075 -0.0415
21126SOL    HW165916   4.798   4.869   6.582  0.4329 -0.1789  0.4624
21126SOL    HW265917   4.919   4.908   6.501 -0.0341  0.8158  0.2405
21127SOL     OW65918   4.301   9.581   6.760 -0.0777 -0.0507 -0.1700
21127SOL    HW165919   4.376   9.570   6.702  0.7692  1.3106  0.6347
21127SOL    HW265920   4.289   9.495   6.801  1.3306 -0.1566  0.0250
21128SOL     OW65921   0.453   6.058   4.008 -0.0581  0.4317  0.2713
21128SOL    HW165922   0.413   6.123   4.066 -2.2504  0.1123 -0.8300
21128SOL    HW265923   0.407   5.976   4.029  0.0059  0.0563 -1.0437
21129SOL     OW65924   3.459   7.675   0.209  0.0975 -0.0830 -0.6635
21129SOL    HW165925   3.524   7.684   0.279 -0.5172  0.8798 -0.2113
21129SOL    HW265926   3.375   7.680   0.254 -0.3013 -0.3424 -1.3706
21130SOL     OW65927   1.704   7.884   8.657  0.3868 -0.8559  0.4560
21130SOL    HW165928   1.683   7.857   8.746 -0.9323 -0.0621  0.4079
21130SOL    HW265929   1.672   7.812   8.602 -1.4027 -0.0930  0.4517
21131SOL     OW65930   7.729   7.041   7.801 -0.1254 -0.4352  0.0891
21131SOL    HW165931   7.705   7.122   7.757 -0.3131 -2.2776 -3.4091
21131SOL    HW265932   7.816   7.059   7.837 -0.5597  1.6137  0.1879
21132SOL     OW65933   2.454   6.496   1.870 -0.4413  0.0293 -0.5211
21132SOL    HW165934   2.374   6.548   1.867 -1.1933 -1.0290  0.5037
21132SOL    HW265935   2.432   6.417   1.821 -0.2954 -0.5982  0.3991
21133SOL     OW65936   5.247   9.866   6.754 -0.4455 -0.3464  0.1415
21133SOL    HW165937   5.283   9.934   6.811 -1.2463  0.7586 -0.6604
21133SOL    HW265938   5.286   9.784   6.787  2.2530  0.7091 -0.2490
21134SOL     OW65939   2.755   6.163   7.425 -0.0036  0.5357 -0.1588
21134SOL    HW165940   2.814   6.093   7.397 -0.3526  0.4185 -0.5870
21134SOL    HW265941   2.705   6.125   7.498  1.0065  0.8907  0.7418
21135SOL     OW65942   5.525   6.087   7.123  0.0717 -0.0967 -0.2335
21135SOL    HW165943   5.454   6.090   7.059  0.0805  0.8917 -0.2058
21135SOL    HW265944   5.605   6.081   7.071 -0.0377 -1.7556 -0.2570
21136SOL     OW65945   5.250   0.214   9.503  0.2552 -0.7013  0.5201
21136SOL    HW165946   5.154   0.217   9.502  0.2473 -0.8537  0.7268
21136SOL    HW265947   5.271   0.167   9.583  0.4976 -0.9558  0.3050
21137SOL     OW65948   6.193   5.777   3.097 -1.1584  0.0821  0.4560
21137SOL    HW165949   6.250   5.705   3.070 -2.4089 -0.8061  0.1924
21137SOL    HW265950   6.227   5.803   3.183 -0.5858 -0.6742  0.4682
21138SOL     OW65951   2.134   3.155   4.150 -0.1608  0.6652 -0.0461
21138SOL    HW165952   2.215   3.185   4.109  0.0387 -0.5152 -0.5415
21138SOL    HW265953   2.149   3.063   4.169 -0.7236  0.8895  1.5609
21139SOL     OW65954   7.665   1.123   7.056  0.2852 -0.0657  0.1298
21139SOL    HW165955   7.610   1.175   7.115 -1.2438 -0.8205 -0.6249
21139SOL    HW265956   7.708   1.059   7.113 -0.3855 -0.1209  0.5685
21140SOL     OW65957   7.374   7.378   5.169  0.0796  0.1362  0.3733
21140SOL    HW165958   7.309   7.310   5.183  0.3378  0.0118  0.9455
21140SOL    HW265959   7.328   7.460   5.189  0.2158  0.0197  1.1590
21141SOL     OW65960   8.910   4.934   6.547  0.1321  0.3645 -0.0065
21141SOL    HW165961   8.947   4.962   6.630 -1.8850 -0.1086  1.0897
21141SOL    HW265962   8.818   4.961   6.551 -0.4231 -1.2146 -1.3250
21142SOL     OW65963   5.372   8.907   0.671 -0.1795 -0.7308 -0.0812
21142SOL    HW165964   5.377   8.872   0.760  2.6557  1.2883  0.6309
21142SOL    HW265965   5.455   8.880   0.631 -0.8194 -0.4074 -1.6540
21143SOL     OW65966   4.355   6.978   1.877 -0.1664  0.5372  0.3928
21143SOL    HW165967   4.354   6.997   1.971  0.5663  0.4319  0.4296
21143SOL    HW265968   4.267   6.998   1.847 -1.0518 -1.5353  1.5203
21144SOL     OW65969   1.733   4.146   0.572  0.0476  0.1162  0.2443
21144SOL    HW165970   1.751   4.060   0.534  0.4425 -0.4931  1.7649
21144SOL    HW265971   1.777   4.144   0.657 -0.7587  1.4597  0.7030
21145SOL     OW65972   4.732   2.039   3.645  0.2451 -0.1099 -0.1715
21145SOL    HW165973   4.711   2.110   3.706  0.0358 -0.0372 -0.3247
21145SOL    HW265974   4.698   1.961   3.688  0.1323 -0.0645 -0.1766
21146SOL     OW65975   0.730   8.790   7.100 -0.1685  0.5044 -0.4656
21146SOL    HW165976   0.782   8.803   7.022  0.4009 -0.0185 -0.1758
21146SOL    HW265977   0.768   8.713   7.143 -0.0704  1.1526  0.6502
21147SOL     OW65978   8.972   4.894   6.835 -0.3295  0.6677 -0.5990
21147SOL    HW165979   9.041   4.856   6.889 -0.1569 -1.2453 -2.1022
21147SOL    HW265980   8.890   4.867   6.876 -0.1957 -0.2406 -0.9253
21148SOL     OW65981   4.593   6.705   4.837  0.3366 -0.0438 -0.1475
21148SOL    HW165982   4.644   6.732   4.760 -0.4501 -0.4899 -0.8312
21148SOL    HW265983   4.602   6.610   4.839  0.7736  0.0140  0.6103
21149SOL     OW65984   0.841   2.810  10.171  0.8981  0.0217  0.2178
21149SOL    HW165985   0.827   2.737  10.110  0.7221  2.2014 -2.4471
21149SOL    HW265986   0.928   2.795  10.207  1.0367 -1.2931 -0.6157
21150SOL     OW65987   7.002   4.923   0.827  0.6183  0.0837 -0.1845
21150SOL    HW165988   6.971   4.981   0.758  1.3599  0.2879 -0.3500
21150SOL    HW265989   7.009   4.980   0.904 -4.6441 -1.0365  1.3604
21151SOL     OW65990   5.674   9.097   6.973 -0.6340  0.4656 -0.5199
21151SOL    HW165991   5.648   9.028   6.912 -1.4986  1.6337 -1.5126
21151SOL    HW265992   5.647   9.178   6.930  1.0839  1.4777  0.2679
21152SOL     OW65993   3.664   1.937   8.785 -0.1534 -0.0643 -0.5257
21152SOL    HW165994   3.598   1.945   8.716  0.1815  0.4052 -0.7909
21152SOL    HW265995   3.613   1.922   8.865 -0.6221  1.2653 -0.5701
21153SOL     OW65996   1.656   6.700   1.971 -0.1682 -0.5688 -0.3902
21153SOL    HW165997   1.566   6.676   1.993  0.4511 -2.0074  0.6216
21153SOL    HW265998   1.697   6.722   2.054  0.1036  1.2077 -0.9798
21154SOL     OW65999   0.377   2.986   8.992 -0.1526  0.0328 -0.1065
21154SOL    HW166000   0.468   2.968   9.017  0.8671 -0.4041 -3.9307
21154SOL    HW266001   0.379   3.073   8.953 -1.4848  0.2000  0.1635
21155SOL     OW66002   5.676  10.114   1.472 -0.1878  0.2127 -0.3454
21155SOL    HW166003   5.673  10.099   1.567  0.1646 -0.2672 -0.4042
21155SOL    HW266004   5.616  10.187   1.457  1.6177  1.9268  0.5640
21156SOL     OW66005  10.067   5.746   1.880  0.0688  0.0054 -0.6712
21156SOL    HW166006  10.022   5.770   1.800 -0.9262 -2.6606 -0.9754
21156SOL    HW266007  10.075   5.827   1.930 -0.7980  1.3676 -2.7238
21157SOL     OW66008   4.115   0.138   5.158  0.0923 -0.1449  0.0683
21157SOL    HW166009   4.076   0.064   5.204  0.1789  0.1828  0.6750
21157SOL    HW266010   4.064   0.214   5.186  1.5753  0.4027  1.4345
21158SOL     OW66011   9.983   5.745   4.204 -0.2062  0.5626 -0.1980
21158SOL    HW166012  10.045   5.716   4.270  0.7933  0.1160 -1.3134
21158SOL    HW266013   9.982   5.674   4.139 -0.6822  1.2794 -0.9842
21159SOL     OW66014   0.568   1.792   0.694  0.2437 -0.4524  0.4910
21159SOL    HW166015   0.542   1.822   0.607 -0.0962  0.9702  1.0605
21159SOL    HW266016   0.627   1.719   0.678 -0.1026 -0.4363 -0.9266
21160SOL     OW66017   3.861   8.373   9.943  0.1219 -0.5162  0.2834
21160SOL    HW166018   3.787   8.313   9.946  0.1992 -0.6851 -0.9049
21160SOL    HW266019   3.935   8.319   9.918  0.1172  0.1180 -1.1742
21161SOL     OW66020   0.546   7.900   2.254 -0.0613 -0.0567 -0.3667
21161SOL    HW166021   0.577   7.955   2.182  0.9699 -0.9027 -0.5726
21161SOL    HW266022   0.524   7.817   2.212 -0.3515 -0.2435  0.1540
21162SOL     OW66023   6.929   5.096   0.643  0.5032 -0.2144 -0.0476
21162SOL    HW166024   6.966   5.184   0.641  1.8459 -0.7051  1.5742
21162SOL    HW266025   6.945   5.061   0.556  1.4967  0.5638 -0.1901
21163SOL     OW66026   8.649   9.558   4.505  0.6699  0.1405 -0.0353
21163SOL    HW166027   8.652   9.552   4.600 -1.5780  2.0835  0.2283
21163SOL    HW266028   8.700   9.636   4.484  1.0357 -0.1968 -0.4051
21164SOL     OW66029   9.691   4.714   5.120  0.4671 -0.3732  0.2774
21164SOL    HW166030   9.651   4.651   5.060 -1.5200 -0.2735  1.4528
21164SOL    HW266031   9.722   4.661   5.193 -1.7039  0.0429  1.5278
21165SOL     OW66032   6.509   0.631   3.574  0.0952  0.1839 -0.0152
21165SOL    HW166033   6.470   0.553   3.613 -0.6022  0.7457  0.4235
21165SOL    HW266034   6.437   0.673   3.526  0.2778  0.9620  0.3816
21166SOL     OW66035   1.747   0.356   8.096  0.2711  0.2877  0.2939
21166SOL    HW166036   1.682   0.392   8.036  0.1401  0.1245  0.3371
21166SOL    HW266037   1.798   0.294   8.043  0.2249  0.2241  0.3238
21167SOL     OW66038   5.003   4.795   5.001  0.1975  0.4641 -0.4129
21167SOL    HW166039   5.077   4.785   5.060  0.0981 -1.8782 -0.6446
21167SOL    HW266040   5.042   4.803   4.914  0.2788  2.3530 -0.2237
21168SOL     OW66041  10.154   1.216   2.592 -0.1898 -0.2092  0.4787
21168SOL    HW166042  10.163   1.126   2.560 -1.2423  0.0232 -0.5319
21168SOL    HW266043  10.237   1.258   2.570 -0.7261 -0.1779 -1.6438
21169SOL     OW66044   1.018   3.650  10.085  0.5165 -0.1232 -0.0360
21169SOL    HW166045   1.061   3.573  10.048 -1.0175 -0.5151 -1.0311
21169SOL    HW266046   0.959   3.680  10.016  0.8925  1.7908  0.4436
21170SOL     OW66047   8.134   2.444   6.927 -0.7993  0.2904 -0.2040
21170SOL    HW166048   8.103   2.381   6.993 -0.9738  0.0458 -0.5159
21170SOL    HW266049   8.120   2.530   6.968 -2.3509  0.2120 -0.5056
21171SOL     OW66050   4.071   1.610   0.998 -0.5678 -0.7076 -0.3029
21171SOL    HW166051   4.109   1.645   1.079 -2.9600 -0.9868  1.0182
21171SOL    HW266052   4.074   1.684   0.937  0.8148 -0.3322  0.1978
21172SOL     OW66053   8.585   2.592   8.399 -0.1235  0.2425  0.0535
21172SOL    HW166054   8.652   2.590   8.330 -0.9816 -0.7790 -0.7657
21172SOL    HW266055   8.623   2.540   8.470 -0.3255 -0.9278 -0.6813
21173SOL     OW66056   9.762   0.061   9.626 -0.9500  0.0843  0.4087
21173SOL    HW166057   9.811   0.141   9.644 -1.6634  0.3866  0.9962
21173SOL    HW266058   9.672   0.091   9.612 -1.3623 -0.6924  1.3692
21174SOL     OW66059   0.781   7.092   7.427 -0.1480  0.0355  0.4755
21174SOL    HW166060   0.772   7.058   7.338 -0.0095 -0.5957  0.6976
21174SOL    HW266061   0.875   7.106   7.438 -0.2965  1.5526  0.0069
21175SOL     OW66062   5.112   1.323   3.239 -0.3534 -0.8161  0.7801
21175SOL    HW166063   5.108   1.301   3.146  0.5756  0.5720  0.3878
21175SOL    HW266064   5.189   1.276   3.271  0.0120 -0.3811  0.5638
21176SOL     OW66065   6.971   2.996   2.500  0.0213  0.0013  0.2790
21176SOL    HW166066   6.936   2.951   2.577  1.3828 -1.7509 -0.0913
21176SOL    HW266067   7.055   3.031   2.529  0.6206 -0.8193 -0.4553
21177SOL     OW66068   2.671   6.341   6.701  0.3449 -0.2659 -0.7353
21177SOL    HW166069   2.578   6.327   6.681  0.1449  0.6984 -0.5445
21177SOL    HW266070   2.672   6.372   6.791  0.9091 -0.8439 -0.5417
21178SOL     OW66071   2.704   4.602   6.838 -0.7217 -0.1645 -0.4596
21178SOL    HW166072   2.744   4.543   6.901 -0.8082 -1.1349 -1.2875
21178SOL    HW266073   2.778   4.644   6.794 -0.6492 -0.1930 -0.3660
21179SOL     OW66074   5.839   1.063   3.325 -0.1467  0.3305  0.0465
21179SOL    HW166075   5.882   1.011   3.392  0.4690  0.5028 -0.2132
21179SOL    HW266076   5.856   1.154   3.351 -2.4283  0.4447  1.2934
21180SOL     OW66077   9.692  10.053   3.804  0.2471 -0.2752  0.6847
21180SOL    HW166078   9.695   9.957   3.801 -0.6449 -0.2644 -2.0384
21180SOL    HW266079   9.745  10.081   3.729  1.2096  1.3875  1.9632
21181SOL     OW66080   9.974   3.238   9.021  0.1178  0.4536  0.0087
21181SOL    HW166081  10.028   3.200   8.951 -1.4199  0.4027 -1.1774
21181SOL    HW266082  10.026   3.226   9.100  1.4524 -0.4176 -0.9724
21182SOL     OW66083   3.533   0.569   9.433  0.3689  0.1740 -0.2012
21182SOL    HW166084   3.493   0.485   9.412 -0.0891  0.4747 -0.5593
21182SOL    HW266085   3.610   0.574   9.376  0.4327 -0.0308 -0.1338
21183SOL     OW66086   0.471   8.482   1.995 -0.5700  0.1268  0.2410
21183SOL    HW166087   0.470   8.496   2.090  1.1219 -2.1219  0.6304
21183SOL    HW266088   0.562   8.501   1.969 -0.1190 -2.6881 -0.3503
21184SOL     OW66089   1.228   3.578   8.960  0.0420  0.2363  0.0363
21184SOL    HW166090   1.296   3.562   9.026 -0.6457 -1.0904  0.4471
21184SOL    HW266091   1.226   3.673   8.950  1.2193  0.3519  0.8055
21185SOL     OW66092   6.044   6.385   6.725  0.5376  0.5873 -0.0062
21185SOL    HW166093   6.111   6.451   6.709 -0.9331  2.4685  1.2928
21185SOL    HW266094   6.001   6.372   6.641  0.7342  1.3956 -0.2287
21186SOL     OW66095   8.477   6.202   4.805 -0.2507  0.1886  0.3993
21186SOL    HW166096   8.534   6.160   4.740 -0.2993  0.1961  0.3532
21186SOL    HW266097   8.406   6.140   4.818  0.7397 -0.6789  1.8570
21187SOL     OW66098   0.193   4.339   9.713  0.2117  0.1635  0.0672
21187SOL    HW166099   0.123   4.356   9.650  0.8051  0.6390 -0.4739
21187SOL    HW266100   0.202   4.244   9.714 -0.2213  0.1194 -0.1113
21188SOL     OW66101   0.031   1.475   9.741  0.3576 -0.3171 -0.3986
21188SOL    HW166102   0.038   1.383   9.714 -0.3995 -0.9085  1.3281
21188SOL    HW266103   0.035   1.472   9.836  0.8205  1.5070 -0.3500
21189SOL     OW66104   1.989   3.150   5.102 -0.1161  0.6676 -0.3160
21189SOL    HW166105   1.946   3.132   5.185 -0.4952  0.0635 -0.6370
21189SOL    HW266106   2.072   3.191   5.126 -0.8588  1.8186  0.3071
21190SOL     OW66107   1.501   9.711   3.014  0.4751  0.1514 -0.1175
21190SOL    HW166108   1.434   9.779   3.014  0.6601  0.3358  0.2722
21190SOL    HW266109   1.582   9.755   2.989  0.8915  0.3911  1.5717
21191SOL     OW66110   7.473   1.626   7.803  0.2533  0.7654 -0.0719
21191SOL    HW166111   7.565   1.646   7.815  0.6523 -1.7023  1.2913
21191SOL    HW266112   7.468   1.583   7.718  0.6083 -0.5071  0.5458
21192SOL     OW66113   7.885   1.945   8.781  0.1188 -0.2505 -0.1913
21192SOL    HW166114   7.838   1.955   8.698 -1.0355  0.5831  0.5469
21192SOL    HW266115   7.837   2.000   8.843  3.2260  2.2486  0.1529
21193SOL     OW66116   8.218   6.583   4.189  0.2336 -0.2428 -0.1574
21193SOL    HW166117   8.243   6.516   4.252  1.8584 -0.8987 -1.4486
21193SOL    HW266118   8.300   6.606   4.145 -0.0337  3.5350  1.1347
21194SOL     OW66119   8.701   4.772   0.102  0.1226  0.5058  0.3961
21194SOL    HW166120   8.611   4.746   0.083  0.7126 -1.5416  0.2686
21194SOL    HW266121   8.712   4.755   0.195  1.2137 -2.0134 -0.1410
21195SOL     OW66122   9.761   0.718   5.114  0.1399  1.0001 -0.4991
21195SOL    HW166123   9.721   0.793   5.070 -0.1646 -0.2746 -2.4200
21195SOL    HW266124   9.847   0.709   5.074  0.9336  1.4604  1.0508
21196SOL     OW66125   0.580   6.722   8.393  0.5025 -0.1191 -0.2624
21196SOL    HW166126   0.602   6.678   8.476 -1.0689  0.1619  0.3152
21196SOL    HW266127   0.491   6.695   8.374  0.7712  0.0016 -1.7719
21197SOL     OW66128   2.276   0.646  10.037 -0.2914  0.4564 -0.3073
21197SOL    HW166129   2.294   0.577   9.974  1.1960  1.0809 -0.5878
21197SOL    HW266130   2.189   0.626  10.071  0.0953 -1.4943 -0.4462
21198SOL     OW66131   4.739   6.557   2.542 -0.2131  0.2803 -0.1123
21198SOL    HW166132   4.739   6.629   2.479  0.9663 -1.8105 -2.5433
21198SOL    HW266133   4.647   6.533   2.552 -0.5234  1.4907  0.0026
21199SOL     OW66134   6.594   4.824   4.194  0.1360  0.6495 -0.1811
21199SOL    HW166135   6.613   4.890   4.262 -0.9385  1.9495 -1.1085
21199SOL    HW266136   6.670   4.826   4.137 -0.3904  2.0013 -0.8816
21200SOL     OW66137   7.052   8.861   5.770 -0.3943  0.4222 -0.0320
21200SOL    HW166138   7.140   8.823   5.778 -1.1209 -1.0427  1.1359
21200SOL    HW266139   7.058   8.918   5.693  1.3041 -0.4475 -0.5730
21201SOL     OW66140   9.536   9.918   0.304 -0.3034 -0.0178  0.6771
21201SOL    HW166141   9.449   9.894   0.338  0.2836 -2.2903  0.6896
21201SOL    HW266142   9.568   9.837   0.265  1.0614  1.3050 -0.9583
21202SOL     OW66143   6.063   6.673   1.094  0.1279  0.0580  0.3543
21202SOL    HW166144   5.980   6.630   1.070 -0.1466  0.5700  0.3721
21202SOL    HW266145   6.116   6.603   1.131  0.2795 -0.6041 -1.0638
21203SOL     OW66146   3.276   8.584   4.821 -0.1683  0.8183 -0.1765
21203SOL    HW166147   3.284   8.647   4.892  0.7930 -0.7394  1.1244
21203SOL    HW266148   3.182   8.564   4.817 -0.3240  1.4772  0.1388
21204SOL     OW66149   8.891   3.203   4.295 -0.1941  0.3316  0.2586
21204SOL    HW166150   8.961   3.242   4.348 -0.9826  1.4706  0.4764
21204SOL    HW266151   8.811   3.230   4.339 -0.8191  0.2589 -0.8263
21205SOL     OW66152   3.512   8.932   8.384 -0.9212 -0.5369 -0.0382
21205SOL    HW166153   3.478   8.896   8.302 -1.0612  0.2911 -0.3494
21205SOL    HW266154   3.442   8.988   8.417 -0.4388  0.0006  0.0849
21206SOL     OW66155   9.928   7.675   1.521  0.3625 -0.1338  0.1984
21206SOL    HW166156   9.960   7.602   1.574 -1.3800  0.8245  2.6752
21206SOL    HW266157   9.832   7.669   1.529  0.1652  1.5467 -0.7888
21207SOL     OW66158   4.070   3.056   1.781  0.3037 -0.2776 -0.0138
21207SOL    HW166159   3.992   3.019   1.823 -0.0627 -1.3923 -1.6515
21207SOL    HW266160   4.123   3.089   1.854 -1.5924  0.3127  1.1398
21208SOL     OW66161   3.425   0.981   7.435  1.0575  0.6428 -0.4114
21208SOL    HW166162   3.384   1.061   7.401 -2.0085 -0.2135  1.0838
21208SOL    HW266163   3.496   1.014   7.492  0.2210  2.2960 -0.2830
21209SOL     OW66164   2.874   1.383   8.793  0.5969  0.1911 -0.5027
21209SOL    HW166165   2.843   1.297   8.762  2.4571 -0.8934  0.5253
21209SOL    HW266166   2.821   1.401   8.870  0.4943 -0.2577 -0.4635
21210SOL     OW66167   8.794   5.939   1.519 -0.3599 -0.3047 -0.3116
21210SOL    HW166168   8.731   5.999   1.559 -1.8070 -1.2226 -1.1638
21210SOL    HW266169   8.756   5.852   1.533  1.0610 -0.9326 -0.2344
21211SOL     OW66170   6.415   0.032   4.155  0.1499 -0.1329  0.2978
21211SOL    HW166171   6.394   0.106   4.213  1.7743  0.5159  0.0593
21211SOL    HW266172   6.413   0.069   4.067 -2.4693 -1.1510 -0.1491
21212SOL     OW66173   0.015   6.744   8.012  0.0811 -0.2145 -0.3052
21212SOL    HW166174  -0.038   6.815   8.048  1.3830 -0.1066  1.4412
21212SOL    HW266175  -0.031   6.718   7.932 -1.1606  1.6461 -0.2173
21213SOL     OW66176   5.952   2.058   8.112  0.3057 -0.0004 -0.1487
21213SOL    HW166177   5.927   2.149   8.122  0.2108  0.1673 -1.8155
21213SOL    HW266178   5.874   2.008   8.135  0.1626  0.3600  0.1443
21214SOL     OW66179   7.040   6.436   5.359  0.1376  0.1217  0.0594
21214SOL    HW166180   6.957   6.460   5.401  0.3965 -1.6685  1.6498
21214SOL    HW266181   7.014   6.381   5.285 -0.0706 -0.7482  0.7814
21215SOL     OW66182   7.154   8.741   2.677  0.6179  0.5953 -0.2113
21215SOL    HW166183   7.136   8.657   2.636  1.6039 -0.5794  1.7154
21215SOL    HW266184   7.180   8.798   2.605 -0.6991 -0.5467 -1.6231
21216SOL     OW66185   5.391   2.265   4.344  0.0588  0.2349 -0.2696
21216SOL    HW166186   5.357   2.196   4.401  0.8081 -1.2025 -1.4913
21216SOL    HW266187   5.398   2.342   4.399 -2.3821 -0.2206  0.7186
21217SOL     OW66188   4.658   5.920   4.946 -0.1610 -0.1245  0.3777
21217SOL    HW166189   4.671   5.943   5.038  0.2388 -0.2841  0.3620
21217SOL    HW266190   4.747   5.915   4.910 -0.2369 -1.7132  0.3835
21218SOL     OW66191   8.168   0.582   8.036  0.4045  0.4000 -0.2519
21218SOL    HW166192   8.227   0.508   8.021 -1.1365 -0.8246 -0.5007
21218SOL    HW266193   8.086   0.540   8.064 -0.5356  2.0262 -0.5537
21219SOL     OW66194   9.609   3.352   9.609  0.5289 -0.2209  0.0716
21219SOL    HW166195   9.650   3.423   9.559 -1.1080 -1.1114 -2.6553
21219SOL    HW266196   9.652   3.273   9.576  0.0236 -0.7602  0.7147
21220SOL     OW66197   6.294   9.844   1.996 -0.3452 -0.3995 -0.1998
21220SOL    HW166198   6.205   9.849   2.030  0.1205  1.2497  0.8206
21220SOL    HW266199   6.283   9.836   1.901 -1.5650  2.9157 -0.3983
21221SOL     OW66200   7.420   6.699   2.393 -0.7521 -0.6995 -0.0101
21221SOL    HW166201   7.437   6.608   2.367 -1.7070 -1.0755  0.6715
21221SOL    HW266202   7.436   6.749   2.313  1.0865 -1.3054 -0.0504
21222SOL     OW66203  10.149   4.903   4.858 -0.0314  0.0268  0.5322
21222SOL    HW166204  10.060   4.905   4.892 -0.0250  0.8593  0.5221
21222SOL    HW266205  10.164   4.812   4.833 -0.9895 -0.0566  0.2381
21223SOL     OW66206   1.974   4.649   4.550  0.1633  0.2326 -0.6529
21223SOL    HW166207   1.967   4.568   4.500 -1.3803  1.4964 -2.6054
21223SOL    HW266208   1.914   4.637   4.624  0.6905 -0.7615 -0.3785
21224SOL     OW66209   3.401   2.976   4.190  0.1962 -0.1345 -0.0249
21224SOL    HW166210   3.471   2.998   4.251 -1.4574  0.2047  1.8032
21224SOL    HW266211   3.387   3.056   4.139  0.5297  0.0731  0.2080
21225SOL     OW66212   4.318   2.669   5.127  0.1632  0.2856 -0.2317
21225SOL    HW166213   4.244   2.699   5.076 -0.1537  0.7532  0.4877
21225SOL    HW266214   4.335   2.580   5.097 -2.0545 -0.6233  1.0951
21226SOL     OW66215   5.593   0.435   2.510 -0.3894  0.8125  0.0006
21226SOL    HW166216   5.521   0.486   2.474 -1.4239 -0.4615  0.2286
21226SOL    HW266217   5.574   0.428   2.603 -1.6933 -2.2105 -0.4323
21227SOL     OW66218   0.491   3.841   3.454 -0.7306 -0.1660  0.2536
21227SOL    HW166219   0.517   3.829   3.545 -1.2790 -1.3517  0.2746
21227SOL    HW266220   0.427   3.912   3.456 -1.2187 -0.6138  0.8890
21228SOL     OW66221   4.603   1.403   0.277 -0.2765  0.1259  0.4654
21228SOL    HW166222   4.539   1.352   0.227  0.0682  0.5450 -0.4215
21228SOL    HW266223   4.550   1.461   0.332 -0.6850  1.0704 -0.8808
21229SOL     OW66224   0.218   2.795   7.934  0.2847  0.6044  0.6141
21229SOL    HW166225   0.291   2.836   7.981  0.9643  0.0194  0.0666
21229SOL    HW266226   0.183   2.865   7.879  1.2998  0.5081 -0.1534
21230SOL     OW66227   9.898   5.914   0.270  0.3431 -0.2241  0.1722
21230SOL    HW166228   9.904   5.864   0.189  1.2476  0.1602 -0.0066
21230SOL    HW266229   9.814   5.959   0.265 -0.3494 -1.4848  0.2044
21231SOL     OW66230   7.209   2.324   3.323  0.2973  0.2476 -0.0286
21231SOL    HW166231   7.202   2.393   3.389 -0.7395  0.5599 -0.4693
21231SOL    HW266232   7.297   2.335   3.287  0.8064  0.1914  1.1706
21232SOL     OW66233   4.652   6.977   8.514  1.2641  0.7622  0.5454
21232SOL    HW166234   4.659   6.929   8.432  0.2654 -0.4867  1.1716
21232SOL    HW266235   4.740   6.973   8.552  1.0312 -1.2194  0.9265
21233SOL     OW66236   7.549   3.329   0.831  0.1352 -0.6293 -0.7876
21233SOL    HW166237   7.632   3.341   0.878 -0.3235 -0.8715  0.1027
21233SOL    HW266238   7.485   3.379   0.882  0.2017  1.6731 -2.8825
21234SOL     OW66239   2.540   9.845   9.029  0.1158 -0.1306  0.4554
21234SOL    HW166240   2.520   9.938   9.013  1.8776  0.2325  0.1999
21234SOL    HW266241   2.481   9.820   9.099 -1.3483  0.8065 -0.4202
21235SOL     OW66242   9.088   2.657   9.215 -0.2668  0.1009 -0.7349
21235SOL    HW166243   9.171   2.632   9.256 -1.0160 -1.3975 -0.1004
21235SOL    HW266244   9.057   2.731   9.268  0.1232 -0.0485 -0.2905
21236SOL     OW66245   6.916   7.949   6.853  0.5512 -0.3265  0.1140
21236SOL    HW166246   6.891   8.012   6.785  2.1494  1.4510  1.1309
21236SOL    HW266247   6.985   7.896   6.812  1.0024  0.2681  0.0905
21237SOL     OW66248  10.190   3.223   2.738  0.0754  0.0971  0.2940
21237SOL    HW166249  10.202   3.302   2.685 -2.5572 -0.7398 -1.5904
21237SOL    HW266250  10.097   3.222   2.759  0.3802 -1.6880  1.6403
21238SOL     OW66251   8.600   6.076   3.015 -1.3433 -0.2515  0.2949
21238SOL    HW166252   8.564   6.163   2.995 -1.7194 -0.3988  0.3369
21238SOL    HW266253   8.612   6.035   2.929 -0.4863  0.1126  0.2351
21239SOL     OW66254   8.804   2.377   4.383  0.0370  0.6966  0.8454
21239SOL    HW166255   8.885   2.365   4.433  0.2355  1.2671  0.6658
21239SOL    HW266256   8.834   2.387   4.292 -0.3900 -1.4996  0.4336
21240SOL     OW66257   9.319   9.702   6.882 -0.1374  0.0192 -0.2853
21240SOL    HW166258   9.369   9.677   6.804 -0.6251 -0.7854 -0.3434
21240SOL    HW266259   9.229   9.673   6.864 -0.1800 -0.5333  0.7255
21241SOL     OW66260   1.501   1.622   0.354  0.1524  0.3220 -0.2303
21241SOL    HW166261   1.526   1.590   0.267  0.3398 -0.9488  0.2847
21241SOL    HW266262   1.438   1.558   0.387 -1.2669  1.7211 -0.1273
21242SOL     OW66263   7.145   9.491   0.347  0.0848  0.8808 -0.6662
21242SOL    HW166264   7.121   9.478   0.255 -2.1226  0.2870 -0.0317
21242SOL    HW266265   7.111   9.414   0.392 -1.1505  2.3872  1.0393
21243SOL     OW66266   5.628   0.202   0.777 -0.1105  0.2182 -0.0824
21243SOL    HW166267   5.557   0.169   0.723 -2.2700  1.3584  1.9942
21243SOL    HW266268   5.649   0.131   0.837 -1.5324  0.9156  1.2576
21244SOL     OW66269   6.512   2.483   2.402  0.3070  1.3350 -0.4038
21244SOL    HW166270   6.439   2.546   2.407 -1.4037 -0.4876 -1.4514
21244SOL    HW266271   6.498   2.438   2.319  2.3855  0.6004 -0.3780
21245SOL     OW66272   2.262   5.276   0.483  0.0473 -0.2753 -0.1566
21245SOL    HW166273   2.348   5.270   0.441 -0.1543 -1.0513 -0.4632
21245SOL    HW266274   2.263   5.207   0.549 -0.0246  0.2724  0.4303
21246SOL     OW66275   7.015   4.748   5.595  0.1893  0.3228  0.2960
21246SOL    HW166276   6.931   4.754   5.550 -0.7713  1.0123  2.1323
21246SOL    HW266277   7.073   4.704   5.533 -1.8930 -1.4207 -0.4654
21247SOL     OW66278   7.745   9.817   1.981 -0.0299  0.4339 -0.2083
21247SOL    HW166279   7.815   9.769   2.024  0.2405  0.0375 -1.0697
21247SOL    HW266280   7.677   9.751   1.965  0.1273  0.4361 -0.9316
21248SOL     OW66281   9.676   4.860   5.468  0.1112 -0.0709 -0.2780
21248SOL    HW166282   9.654   4.953   5.462 -0.4776 -0.1776  0.1991
21248SOL    HW266283   9.716   4.851   5.555  0.4503 -0.2008 -0.4505
21249SOL     OW66284   4.140   4.888   3.527  0.1275 -0.6677 -0.2034
21249SOL    HW166285   4.137   4.921   3.617  0.9221  0.6516 -0.6399
21249SOL    HW266286   4.191   4.807   3.532  1.5345  0.2381  0.2938
21250SOL     OW66287   2.866   7.443   7.523  0.2476  0.0385  0.2835
21250SOL    HW166288   2.930   7.376   7.500  0.3747  0.3300 -0.2306
21250SOL    HW266289   2.783   7.412   7.487  0.6537  1.0086 -1.5440
21251SOL     OW66290   0.297   9.157   1.318  0.1775  0.0515  0.3832
21251SOL    HW166291   0.219   9.112   1.350  1.2787 -2.6055 -0.5257
21251SOL    HW266292   0.354   9.163   1.395 -1.2051  2.7752  1.2629
21252SOL     OW66293   8.171   6.814   1.000  0.7297 -0.2514  0.1877
21252SOL    HW166294   8.198   6.827   0.910 -1.3618  0.8672 -0.3077
21252SOL    HW266295   8.202   6.892   1.046 -0.6304  0.5145 -0.1601
21253SOL     OW66296   8.148   6.441   5.398 -0.8103 -0.4333 -0.2682
21253SOL    HW166297   8.122   6.531   5.381 -1.8524 -0.8622 -1.0142
21253SOL    HW266298   8.084   6.409   5.462  0.3956 -0.2206  1.0564
21254SOL     OW66299   3.479   7.070   9.228 -0.2042 -0.3977 -0.3753
21254SOL    HW166300   3.403   7.124   9.210  1.3817  1.6317 -1.1887
21254SOL    HW266301   3.504   7.093   9.318 -0.1527 -0.5882 -0.3393
21255SOL     OW66302   9.078   4.385   9.913  0.0105  0.1776  0.1144
21255SOL    HW166303   9.131   4.306   9.903 -1.0061 -0.5560  0.3788
21255SOL    HW266304   9.048   4.406   9.824 -1.3416 -0.8943  0.3036
21256SOL     OW66305   2.541   0.879   9.336  0.1001 -0.0086 -0.2277
21256SOL    HW166306   2.552   0.920   9.422  0.0093  1.7470 -1.0193
21256SOL    HW266307   2.487   0.802   9.352 -0.2126  0.5076  1.2313
21257SOL     OW66308   9.705   5.170   6.754 -0.2270 -0.3284  0.0671
21257SOL    HW166309   9.643   5.184   6.826  0.4871  1.1919  0.4167
21257SOL    HW266310   9.689   5.080   6.726 -1.3078 -0.5724  1.3795
21258SOL     OW66311   6.408   1.508   8.299  0.9134 -0.1928  0.2448
21258SOL    HW166312   6.426   1.417   8.325  0.0045 -1.2244 -2.5660
21258SOL    HW266313   6.482   1.558   8.334  1.1706 -1.9208  2.2842
21259SOL     OW66314   7.826   3.980   5.529 -0.4478  0.4268  0.2467
21259SOL    HW166315   7.850   3.905   5.475 -0.9900  1.5105 -1.5277
21259SOL    HW266316   7.905   4.032   5.536 -0.3158  0.1705  0.7223
21260SOL     OW66317   3.506   3.047   6.284  0.1573  1.1306  0.4994
21260SOL    HW166318   3.562   2.971   6.297 -1.6644 -0.1367  1.0351
21260SOL    HW266319   3.508   3.093   6.369 -0.8941  0.2079  1.0312
21261SOL     OW66320   9.354   9.987   2.152  0.2155 -0.0990 -0.2163
21261SOL    HW166321   9.447   9.979   2.135  0.3736  0.2577  0.4365
21261SOL    HW266322   9.329  10.070   2.111  0.1403 -0.3007 -0.5781
21262SOL     OW66323   1.971   0.765   4.005  0.0251 -0.2036 -0.1890
21262SOL    HW166324   2.043   0.718   3.962  0.8602 -1.1534  2.2082
21262SOL    HW266325   2.015   0.828   4.062 -1.0913  1.7022 -1.3859
21263SOL     OW66326   6.414   3.224   7.595 -0.3727  0.2388  0.3213
21263SOL    HW166327   6.380   3.137   7.578 -0.1561  0.0818  0.6939
21263SOL    HW266328   6.412   3.233   7.690 -0.3939  0.6393  0.2858
21264SOL     OW66329   2.243   1.243   1.909  0.9630  0.2884  0.6104
21264SOL    HW166330   2.289   1.177   1.857  0.2060 -0.2666  0.6287
21264SOL    HW266331   2.272   1.327   1.874  1.7886 -0.0554  0.4566
21265SOL     OW66332   9.384   2.129   7.768 -0.3791 -0.0097 -0.3284
21265SOL    HW166333   9.475   2.106   7.752  0.9129  2.6400  2.8501
21265SOL    HW266334   9.382   2.224   7.771 -3.3049  0.0002 -0.5531
21266SOL     OW66335   6.797   9.532   2.364  0.2909  0.9242 -0.7049
21266SOL    HW166336   6.783   9.600   2.298 -1.2930  0.5873 -0.7421
21266SOL    HW266337   6.731   9.466   2.344  1.5183 -0.4038 -0.3815
21267SOL     OW66338   0.351   3.011   3.657 -0.7724 -0.1821  0.0886
21267SOL    HW166339   0.361   2.920   3.629  0.5109  0.1403 -0.5250
21267SOL    HW266340   0.435   3.034   3.696 -0.7304  1.0618 -0.6984
21268SOL     OW66341   8.878   6.101   7.087  0.2522  0.4845  0.0966
21268SOL    HW166342   8.963   6.116   7.044  0.9511 -0.9646  0.9149
21268SOL    HW266343   8.854   6.013   7.060 -0.4389  0.4601  0.8080
21269SOL     OW66344   1.495   2.380   6.995 -0.2789 -0.3108  0.1085
21269SOL    HW166345   1.539   2.310   6.946 -1.5832 -1.4061  0.4732
21269SOL    HW266346   1.535   2.376   7.082 -0.6811 -0.9290  0.2700
21270SOL     OW66347   7.117   2.185   3.659 -0.5239  0.2038 -0.2406
21270SOL    HW166348   7.177   2.142   3.719  1.8184  3.7084  0.0843
21270SOL    HW266349   7.100   2.120   3.590  2.8351 -1.2145  0.1973
21271SOL     OW66350   1.867   3.074   1.475  0.2655  0.4422 -0.1655
21271SOL    HW166351   1.829   3.029   1.550 -0.2211  2.3017  0.7174
21271SOL    HW266352   1.961   3.061   1.485  0.0360 -2.9457 -1.5852
21272SOL     OW66353   9.292   7.918   1.036 -0.3514  0.1041 -0.0984
21272SOL    HW166354   9.349   7.992   1.060  0.3349 -0.6711  0.6680
21272SOL    HW266355   9.215   7.927   1.092 -1.2416  1.4503 -1.4927
21273SOL     OW66356   1.869   9.878   4.868  0.3781  0.1345 -0.1349
21273SOL    HW166357   1.810   9.946   4.900 -1.7605 -1.2163 -1.0435
21273SOL    HW266358   1.916   9.919   4.796  0.0944  1.0502  0.1917
21274SOL     OW66359   0.436   1.113   4.749 -0.5011 -0.0659 -0.1513
21274SOL    HW166360   0.342   1.128   4.761 -0.5377  1.5090 -2.1459
21274SOL    HW266361   0.476   1.145   4.830 -1.5080  1.1908 -0.1413
21275SOL     OW66362   0.523   2.847   4.818  0.6915  0.5219 -0.4461
21275SOL    HW166363   0.542   2.923   4.872 -2.1153  1.0506 -0.1230
21275SOL    HW266364   0.547   2.772   4.873  0.6945  1.1027  0.3550
21276SOL     OW66365   7.158   9.057   9.760  0.3628 -0.1632  0.1446
21276SOL    HW166366   7.075   9.010   9.756 -0.5606  1.4180  0.1104
21276SOL    HW266367   7.208   9.025   9.685 -1.1071  0.4886 -1.1444
21277SOL     OW66368   0.842   4.766   4.864 -0.8292  0.8595  0.1280
21277SOL    HW166369   0.856   4.684   4.816  0.6178  1.3994 -0.4206
21277SOL    HW266370   0.775   4.745   4.929  0.8120 -1.2616  1.2174
21278SOL     OW66371   6.039   2.635   0.147 -0.0336  0.3285  0.0289
21278SOL    HW166372   6.059   2.728   0.142 -0.1071  0.3384 -0.1024
21278SOL    HW266373   5.983   2.626   0.224 -0.5716  0.4954 -0.3371
21279SOL     OW66374   7.442   8.635   5.559 -0.4173 -0.2380  0.0029
21279SOL    HW166375   7.431   8.572   5.488 -0.8009 -0.5795  0.3666
21279SOL    HW266376   7.533   8.625   5.587 -0.5540 -0.8256  0.2453
21280SOL     OW66377   1.468   2.692   2.947  0.2823  0.2161  0.4437
21280SOL    HW166378   1.474   2.614   3.002  1.3988  0.6785  0.9857
21280SOL    HW266379   1.478   2.765   3.007 -0.2687  0.7664 -0.1317
21281SOL     OW66380   9.504   3.189   4.293 -0.1429 -0.2421  0.4514
21281SOL    HW166381   9.555   3.248   4.237 -1.5508  0.9905  0.4498
21281SOL    HW266382   9.552   3.107   4.291  0.2752  0.0398 -1.9055
21282SOL     OW66383   0.831   7.688   9.541 -0.8155  0.1783  0.7885
21282SOL    HW166384   0.801   7.770   9.503 -1.9603 -0.0816  1.1070
21282SOL    HW266385   0.768   7.669   9.610 -0.0235 -0.4910  1.3385
21283SOL     OW66386   3.796   6.739   0.747  0.0440  0.2601  0.2752
21283SOL    HW166387   3.754   6.796   0.812 -0.3287 -0.1899  0.4350
21283SOL    HW266388   3.724   6.707   0.694  0.1633 -0.6747  0.6735
21284SOL     OW66389   0.062   8.936   7.082 -0.2269 -0.1708  0.1569
21284SOL    HW166390   0.129   8.918   7.148  2.0826  0.3644 -1.9749
21284SOL    HW266391   0.018   9.015   7.113  0.1995 -0.4657  1.5412
21285SOL     OW66392   2.259   4.798   4.104 -0.1377  0.0481 -0.4784
21285SOL    HW166393   2.234   4.773   4.193  0.4490 -1.9570 -0.8536
21285SOL    HW266394   2.223   4.887   4.093  1.8667  1.3400  2.6058
21286SOL     OW66395   9.914   6.568   9.697  0.3730  0.1187 -0.2205
21286SOL    HW166396   9.984   6.603   9.754  0.0476  0.5871 -0.1000
21286SOL    HW266397   9.959   6.506   9.639  1.1494  1.4879 -1.1151
21287SOL     OW66398   3.129   0.791  10.201 -0.0064  0.1557  0.6700
21287SOL    HW166399   3.046   0.826  10.234 -1.8794 -3.9542  0.6824
21287SOL    HW266400   3.128   0.811  10.107 -0.8584  0.3858  0.7232
21288SOL     OW66401   8.807   7.984   2.034 -0.5292  0.2587  0.3989
21288SOL    HW166402   8.742   8.053   2.024 -1.8074 -0.9235  0.4318
21288SOL    HW266403   8.814   7.944   1.948 -0.1283  0.1130  0.4934
21289SOL     OW66404   7.526  10.149   9.861  0.1033  0.0578 -0.3499
21289SOL    HW166405   7.493  10.195   9.784  1.7454  1.7640 -0.0854
21289SOL    HW266406   7.620  10.169   9.862 -0.3758  2.5638  3.7394
21290SOL     OW66407   7.032   1.262   4.379 -0.5423  0.5491 -0.7278
21290SOL    HW166408   7.071   1.175   4.384 -0.7581  0.4748 -0.3311
21290SOL    HW266409   7.069   1.300   4.299  0.6982  0.6645 -0.1089
21291SOL     OW66410   8.267   8.577   6.188  0.5897 -0.2214  0.1444
21291SOL    HW166411   8.319   8.517   6.242 -0.1557  1.2001  2.5375
21291SOL    HW266412   8.332   8.637   6.151  0.9497 -0.0394  1.0408
21292SOL     OW66413   5.658   3.921   2.643 -0.1134 -0.5217 -0.1154
21292SOL    HW166414   5.590   3.889   2.585  0.0992 -1.6395  0.2355
21292SOL    HW266415   5.610   3.956   2.719 -0.2731 -3.3908  1.1861
21293SOL     OW66416   9.961   5.182   8.615 -0.0793 -0.1905 -0.5368
21293SOL    HW166417  10.028   5.195   8.683 -1.2246  0.7298  0.4354
21293SOL    HW266418   9.945   5.269   8.580  0.4670 -0.6572 -1.9875
21294SOL     OW66419   8.890   3.451   7.800  0.6908  0.2008  0.6020
21294SOL    HW166420   8.920   3.377   7.747 -0.1700 -0.4085  0.9501
21294SOL    HW266421   8.878   3.522   7.737  2.0939  0.2291  0.3505
21295SOL     OW66422   6.285   2.823   4.420 -0.6299 -0.2603  0.0593
21295SOL    HW166423   6.276   2.730   4.398 -2.4327 -0.2326  0.6169
21295SOL    HW266424   6.207   2.843   4.471  0.3914  1.2500  1.0566
21296SOL     OW66425   2.503   0.504   5.034 -0.1663  0.5850 -0.2860
21296SOL    HW166426   2.412   0.494   5.062 -0.7899  0.2372 -2.3405
21296SOL    HW266427   2.517   0.599   5.029 -0.1778  0.6421  0.7695
21297SOL     OW66428   7.391   8.365   2.781  0.4196  1.0357 -0.1523
21297SOL    HW166429   7.442   8.318   2.714  0.6016 -0.1779  0.8091
21297SOL    HW266430   7.309   8.316   2.788  0.0528  1.6604 -0.1038
21298SOL     OW66431   4.707   5.790   6.759  0.1988  0.3279  0.4578
21298SOL    HW166432   4.709   5.796   6.663  0.7126  2.4541  0.5763
21298SOL    HW266433   4.733   5.699   6.778 -1.5340 -0.6168 -1.4516
21299SOL     OW66434   3.220   3.898   9.326  0.6936  0.2286  0.0199
21299SOL    HW166435   3.278   3.870   9.396  1.1560  0.4077 -0.2885
21299SOL    HW266436   3.254   3.984   9.300 -0.7887  1.1653  1.0565
21300SOL     OW66437   7.248   4.614   8.263 -0.1803 -0.0654 -0.1485
21300SOL    HW166438   7.239   4.669   8.341  0.3569  0.9957 -0.8261
21300SOL    HW266439   7.315   4.657   8.211 -1.2117 -0.2477 -1.6557
21301SOL     OW66440   6.261   3.388   5.019  0.0907 -0.5809 -0.0901
21301SOL    HW166441   6.272   3.384   5.114  0.7643 -0.1184 -0.1493
21301SOL    HW266442   6.208   3.466   5.004  0.1401 -0.5536 -0.1180
21302SOL     OW66443   5.317   3.916   0.967 -0.6380 -0.8892  0.5632
21302SOL    HW166444   5.395   3.954   1.005 -1.2850  1.6900 -0.6069
21302SOL    HW266445   5.305   3.833   1.014  1.9182 -0.6045  1.7721
21303SOL     OW66446   0.871   2.543   3.486 -0.5036 -0.4909  0.1108
21303SOL    HW166447   0.900   2.632   3.465  1.8712 -1.3455 -0.4039
21303SOL    HW266448   0.783   2.554   3.521 -0.4293  2.0164 -0.3971
21304SOL     OW66449   4.298   5.339   1.608 -0.5512  0.3006 -0.2809
21304SOL    HW166450   4.308   5.429   1.638  1.4786 -0.0733  0.2292
21304SOL    HW266451   4.331   5.285   1.680  0.6691 -0.7494 -1.5988
21305SOL     OW66452   6.927  10.178   5.918 -0.4113 -0.0564  0.3182
21305SOL    HW166453   6.882  10.132   5.847 -0.0839 -0.0761  0.1227
21305SOL    HW266454   6.917  10.270   5.898  0.0621 -0.0692  0.0058
21306SOL     OW66455   8.474   1.881   9.052  0.1233 -0.5828  0.2637
21306SOL    HW166456   8.520   1.806   9.014  0.3505  0.1132 -0.8300
21306SOL    HW266457   8.386   1.875   9.016  0.1177 -0.3631  0.2432
21307SOL     OW66458   4.410   3.821   4.400  0.2534 -0.4479  0.6595
21307SOL    HW166459   4.469   3.857   4.334  0.3205  1.5630  1.7943
21307SOL    HW266460   4.464   3.761   4.451  0.4470 -1.2455 -0.4771
21308SOL     OW66461   0.460   8.091   8.985  0.2642 -0.2849  0.6013
21308SOL    HW166462   0.541   8.046   8.959 -1.0740 -1.8653 -0.9718
21308SOL    HW266463   0.471   8.109   9.078  2.5509 -0.2158  0.3374
21309SOL     OW66464   7.090   2.683   9.806 -0.5541 -0.7315  0.4297
21309SOL    HW166465   7.168   2.727   9.772 -0.9873 -1.6242 -1.7972
21309SOL    HW266466   7.020   2.747   9.794 -0.2133  0.0420  2.3619
21310SOL     OW66467   5.663   8.468   5.447  0.7062  0.2598 -0.3914
21310SOL    HW166468   5.653   8.556   5.484  1.1616 -0.0936  0.6035
21310SOL    HW266469   5.728   8.426   5.504  1.2844 -0.3661 -1.5052
21311SOL     OW66470   1.156   6.831   4.506  0.6769 -0.4083 -0.4684
21311SOL    HW166471   1.200   6.815   4.589 -0.4828  0.5918  0.3494
21311SOL    HW266472   1.151   6.745   4.464 -0.1406 -1.1828  1.1909
21312SOL     OW66473   1.557   4.696   7.741  0.0631  0.6355 -0.0108
21312SOL    HW166474   1.608   4.658   7.670 -1.6406 -0.3931 -0.6899
21312SOL    HW266475   1.536   4.785   7.710  0.5781  0.7111 -0.1515
21313SOL     OW66476   6.352   9.382   1.954  0.5088  0.2147  0.7810
21313SOL    HW166477   6.264   9.349   1.974  0.9384 -1.1096  0.5455
21313SOL    HW266478   6.336   9.458   1.898 -0.4480 -2.2404 -2.4325
21314SOL     OW66479   8.475   1.972  10.107  0.1143  0.3568  0.2669
21314SOL    HW166480   8.392   1.976  10.058  0.2641 -2.1527 -0.2457
21314SOL    HW266481   8.449   1.970  10.199 -0.4018 -0.6666  0.0979
21315SOL     OW66482   9.914   6.567   5.634 -0.5427  0.0063 -0.4449
21315SOL    HW166483   9.893   6.474   5.636  2.4818 -0.7375 -1.2140
21315SOL    HW266484   9.947   6.587   5.722  0.7248 -0.1441 -0.8746
21316SOL     OW66485   1.635   9.427   1.886  0.0744  1.2985  0.1350
21316SOL    HW166486   1.660   9.471   1.805  1.3380  1.2716  0.4966
21316SOL    HW266487   1.657   9.489   1.955  0.7231  0.6110  0.5679
21317SOL     OW66488   8.840  10.097   8.082 -0.3375  0.0254  0.7093
21317SOL    HW166489   8.872  10.161   8.019  1.4747 -0.7657  0.8086
21317SOL    HW266490   8.759  10.064   8.043 -0.6412  1.4845  0.0806
21318SOL     OW66491  10.040   6.246   1.200  0.1848 -0.4281 -0.3772
21318SOL    HW166492  10.094   6.289   1.133  0.4067 -3.1453 -2.0172
21318SOL    HW266493  10.073   6.156   1.203 -1.3844 -0.9695  1.7480
21319SOL     OW66494   0.820   6.919   8.344 -0.3904 -0.1533 -0.4056
21319SOL    HW166495   0.831   6.928   8.250 -0.7850  2.5273 -0.2266
21319SOL    HW266496   0.909   6.927   8.379 -0.6550  3.0795 -0.2979
21320SOL     OW66497   5.694   7.353   8.927  0.1273  0.2296 -0.1887
21320SOL    HW166498   5.645   7.338   9.008  0.1280  1.0911 -0.0263
21320SOL    HW266499   5.738   7.270   8.909  2.6223  0.9178  2.3738
21321SOL     OW66500   0.215   5.464   7.766  0.1526 -0.5448 -0.0766
21321SOL    HW166501   0.239   5.373   7.786 -0.5295 -0.9582 -1.0747
21321SOL    HW266502   0.119   5.465   7.775  0.1547  0.0597 -0.1335
21322SOL     OW66503   3.522   3.421   4.063  0.1425 -0.3693 -0.2745
21322SOL    HW166504   3.573   3.499   4.087  0.1978  0.4416 -2.8658
21322SOL    HW266505   3.438   3.455   4.034 -0.5558 -1.4433  0.4597
21323SOL     OW66506   9.738   9.669   6.306 -0.4763  0.7537 -0.0254
21323SOL    HW166507   9.787   9.677   6.388  1.6427  0.5695 -1.2334
21323SOL    HW266508   9.679   9.595   6.320  0.3646  0.2864  1.1148
21324SOL     OW66509   8.646   9.267   5.987  0.1001 -0.5497 -0.1269
21324SOL    HW166510   8.612   9.179   6.002 -0.1295 -0.5051 -0.3958
21324SOL    HW266511   8.647   9.308   6.073 -1.0703 -0.3547 -0.2043
21325SOL     OW66512   4.803   7.343   0.873 -0.0497 -0.4186 -0.4848
21325SOL    HW166513   4.892   7.358   0.841  0.0012  0.0721 -0.1200
21325SOL    HW266514   4.814   7.295   0.955 -0.0677  0.6159  0.1357
21326SOL     OW66515   0.171   8.410   0.412  0.7798 -0.9476 -0.4579
21326SOL    HW166516   0.241   8.345   0.415 -0.2892 -2.1856 -2.1332
21326SOL    HW266517   0.105   8.376   0.472  0.8553 -0.6243 -0.1851
21327SOL     OW66518   9.765   8.095   9.305 -0.0178  0.6072  0.2622
21327SOL    HW166519   9.723   8.181   9.305  0.6946  0.9624  1.4638
21327SOL    HW266520   9.730   8.052   9.383 -2.0018 -1.0056 -1.4777
21328SOL     OW66521   0.166   0.441   1.468 -0.1155 -0.1763 -1.0121
21328SOL    HW166522   0.129   0.519   1.511  1.7943 -0.0898  0.5212
21328SOL    HW266523   0.191   0.383   1.540  1.8463 -0.6309 -2.0208
21329SOL     OW66524   0.650   8.447   0.189  0.2786  0.2230  0.4968
21329SOL    HW166525   0.588   8.382   0.155  0.5150 -0.7436  1.8762
21329SOL    HW266526   0.615   8.531   0.159  0.2992 -0.5548 -1.8149
21330SOL     OW66527   4.842   1.673   3.918 -0.2701  0.3077 -0.5779
21330SOL    HW166528   4.912   1.736   3.899  0.1053 -0.2886 -1.2088
21330SOL    HW266529   4.836   1.673   4.014  1.3539 -0.4255 -0.4510
21331SOL     OW66530   6.865   2.124   0.484 -0.1964 -0.4300  0.3046
21331SOL    HW166531   6.812   2.058   0.439  1.3759  0.3439 -2.8427
21331SOL    HW266532   6.815   2.205   0.477 -0.6392 -0.6008  1.3377
21332SOL     OW66533   6.202   0.249   4.583  0.3276 -0.1246 -0.5152
21332SOL    HW166534   6.210   0.167   4.632  1.9360  1.4466  1.9568
21332SOL    HW266535   6.288   0.291   4.593 -1.1179  2.7854 -0.0200
21333SOL     OW66536   0.170   2.339   8.226 -0.0932 -0.7658  0.3627
21333SOL    HW166537   0.140   2.296   8.306 -3.1805  1.1518  0.3203
21333SOL    HW266538   0.112   2.307   8.158  1.0978 -0.6958 -0.7015
21334SOL     OW66539   0.971   7.685   1.886  0.1021 -0.2550 -0.4744
21334SOL    HW166540   1.014   7.625   1.825 -0.0171 -0.6327 -0.1905
21334SOL    HW266541   0.922   7.628   1.945 -0.1307  0.1310 -0.2915
21335SOL     OW66542   4.947   1.909   4.338 -0.5887 -0.5548  0.1020
21335SOL    HW166543   4.926   1.818   4.319  0.5147 -0.5582 -1.1747
21335SOL    HW266544   4.957   1.950   4.252  0.1563  0.4748  0.6622
21336SOL     OW66545   8.514   1.205   5.639 -0.5626 -0.5613  0.2342
21336SOL    HW166546   8.500   1.124   5.591 -0.9113 -1.8726  2.4611
21336SOL    HW266547   8.459   1.196   5.717 -1.3856  2.2578  0.0170
21337SOL     OW66548   5.493   9.386   1.910 -0.0193  0.2440  0.3172
21337SOL    HW166549   5.540   9.389   1.994 -0.8468 -0.0865  0.8034
21337SOL    HW266550   5.471   9.293   1.899  0.8118  0.1588 -0.6831
21338SOL     OW66551   8.470   2.519   4.563  0.0759 -0.2497  0.3493
21338SOL    HW166552   8.472   2.426   4.587  1.6039 -0.6089 -1.1125
21338SOL    HW266553   8.555   2.553   4.592 -0.2664  0.5691  0.3986
21339SOL     OW66554   9.450   4.233   7.368  0.6714  0.3905  0.0293
21339SOL    HW166555   9.411   4.257   7.284  0.0733  0.7905  0.4217
21339SOL    HW266556   9.510   4.162   7.347  1.8061  1.6190 -1.0205
21340SOL     OW66557   9.454   2.825   6.003  0.1545  0.0092 -0.4285
21340SOL    HW166558   9.475   2.883   5.930  0.7252 -0.5816 -0.7427
21340SOL    HW266559   9.374   2.862   6.041  1.1031  1.6185  0.0497
21341SOL     OW66560   2.112   0.609   3.367  0.5073  0.1402  0.0904
21341SOL    HW166561   2.040   0.670   3.384  0.4284  0.3253 -0.8332
21341SOL    HW266562   2.188   0.652   3.405  0.5943  1.2126 -1.2329
21342SOL     OW66563   8.039   9.571   6.349 -0.1868 -0.1851  0.1764
21342SOL    HW166564   8.058   9.543   6.438 -1.9879 -0.0386  0.6140
21342SOL    HW266565   8.099   9.643   6.333 -0.1299  0.0425  1.4036
21343SOL     OW66566   0.293   2.494   0.410 -0.0092  0.4705 -0.2325
21343SOL    HW166567   0.212   2.453   0.442 -0.9947  2.0762 -0.5875
21343SOL    HW266568   0.318   2.443   0.333  0.5563 -1.4040  1.1855
21344SOL     OW66569   1.703  10.117   8.291 -0.1503  0.4045 -0.0146
21344SOL    HW166570   1.638  10.052   8.315 -0.8405  0.9982 -0.2761
21344SOL    HW266571   1.684  10.140   8.200  1.4309 -0.6039 -0.6220
21345SOL     OW66572   9.303   8.708   6.783 -0.7974  0.1735 -0.3043
21345SOL    HW166573   9.316   8.711   6.688 -0.8617 -0.5127 -0.3388
21345SOL    HW266574   9.263   8.793   6.805 -1.1204  0.1875 -0.9439
21346SOL     OW66575   2.441   0.122   4.366  0.2547 -0.2404 -0.1632
21346SOL    HW166576   2.456   0.058   4.436  1.9819 -0.8159 -1.0242
21346SOL    HW266577   2.435   0.206   4.411 -2.8923 -1.0847  1.0705
21347SOL     OW66578   7.228   9.937   1.250 -0.3228 -0.2208 -0.5027
21347SOL    HW166579   7.202   9.847   1.230 -0.2218 -1.2422  3.5517
21347SOL    HW266580   7.321   9.931   1.273 -0.3198  0.9000 -0.1972
21348SOL     OW66581   6.032   5.414   4.561 -0.3038 -0.6379  0.2838
21348SOL    HW166582   6.026   5.452   4.649  3.6430  2.5835 -0.7304
21348SOL    HW266583   5.979   5.471   4.506  0.0968 -0.5937 -0.0574
21349SOL     OW66584   9.468   4.573   8.798 -0.4812  1.0124  0.3650
21349SOL    HW166585   9.504   4.484   8.797  2.1837  2.0450 -2.2528
21349SOL    HW266586   9.540   4.629   8.767 -3.1620  3.6530 -1.3803
21350SOL     OW66587   0.068   9.128   8.085  0.2934 -0.6656  0.0050
21350SOL    HW166588   0.042   9.052   8.138  0.4377  0.1513  1.2787
21350SOL    HW266589   0.005   9.197   8.110 -0.9164 -0.8532 -2.4154
21351SOL     OW66590   5.527   5.980   9.017  0.6304 -0.3610  0.3894
21351SOL    HW166591   5.474   5.923   8.961  0.7707  1.0246 -1.1626
21351SOL    HW266592   5.542   6.058   8.965  0.4026  1.1399  2.5224
21352SOL     OW66593   3.116   1.966   4.496  0.3250  0.4153  0.3113
21352SOL    HW166594   3.128   2.043   4.552  0.6577  0.9184 -0.4428
21352SOL    HW266595   3.142   1.996   4.409 -2.1877  0.2556 -0.5243
21353SOL     OW66596   7.352   9.760   9.640  0.3929  0.5067 -0.0125
21353SOL    HW166597   7.375   9.676   9.681 -1.0862 -0.7437 -1.6568
21353SOL    HW266598   7.294   9.802   9.704 -0.8081 -0.8310 -0.1837
21354SOL     OW66599   0.948   2.358   8.131  0.4813 -0.2014 -0.2803
21354SOL    HW166600   0.879   2.369   8.196 -0.1692  0.7441 -1.1259
21354SOL    HW266601   0.904   2.317   8.056  1.1428 -0.9261 -0.2789
21355SOL     OW66602  10.132   3.158   3.818  0.1884  0.1469  0.3961
21355SOL    HW166603  10.118   3.120   3.731  2.7011  0.2539 -0.0987
21355SOL    HW266604  10.205   3.109   3.854 -0.0100  0.9566  1.9533
21356SOL     OW66605   3.851   7.086   0.517 -0.0651  0.1265 -0.4758
21356SOL    HW166606   3.919   7.153   0.515  0.6447 -0.3006  3.6539
21356SOL    HW266607   3.771   7.133   0.539  0.4687 -0.2453  2.6230
21357SOL     OW66608   2.660   6.751   0.701  0.0538  0.9767  0.5500
21357SOL    HW166609   2.588   6.774   0.761 -0.3805  0.2734  0.3103
21357SOL    HW266610   2.658   6.655   0.698  1.2910  0.9387  0.8797
21358SOL     OW66611   7.470   3.023   9.697  0.1974 -0.0281  0.2759
21358SOL    HW166612   7.497   3.110   9.667 -0.6956  0.3080  0.4392
21358SOL    HW266613   7.511   3.014   9.783  1.1187 -0.1835 -0.1711
21359SOL     OW66614   3.728   4.553   6.455 -0.1239  0.4419 -0.4230
21359SOL    HW166615   3.822   4.551   6.438 -0.3631 -0.4722 -1.7647
21359SOL    HW266616   3.698   4.633   6.412  0.1158  1.0039  0.4497
21360SOL     OW66617   3.318   6.417   3.943 -0.3860  0.0328 -0.2865
21360SOL    HW166618   3.374   6.369   4.005 -1.6406  1.3837  1.9321
21360SOL    HW266619   3.373   6.426   3.865  2.1525  0.4546  1.4742
21361SOL     OW66620   3.692   3.203   8.902 -0.0261 -0.7604 -0.0169
21361SOL    HW166621   3.655   3.239   8.821 -1.6576  0.4647  1.2343
21361SOL    HW266622   3.616   3.165   8.948  0.9054 -1.5677  0.8838
21362SOL     OW66623   6.896   0.143  10.173 -0.4548  0.2691  0.1046
21362SOL    HW166624   6.982   0.103  10.157 -0.2261  1.1925 -1.0450
21362SOL    HW266625   6.833   0.074  10.152 -0.0405  0.2335 -1.0399
21363SOL     OW66626   9.123   1.031   4.481 -0.7652 -0.1070 -0.0814
21363SOL    HW166627   9.142   1.075   4.397  0.2309  1.8896  1.1453
21363SOL    HW266628   9.178   0.953   4.480  0.5654  0.8104 -0.5623
21364SOL     OW66629   2.840   6.647   9.038  0.4845 -0.1400  0.4044
21364SOL    HW166630   2.862   6.736   9.068  1.2151  0.0745 -0.7398
21364SOL    HW266631   2.923   6.601   9.036  0.6760  0.2573 -2.5809
21365SOL     OW66632   6.893   5.538   6.806 -0.7321  0.7442  0.0240
21365SOL    HW166633   6.852   5.452   6.802  0.1298  0.3937 -1.7145
21365SOL    HW266634   6.874   5.578   6.721  1.5843  0.9856 -0.4100
21366SOL     OW66635   3.360   3.596   3.928  0.5325 -0.1744 -0.7945
21366SOL    HW166636   3.343   3.575   3.836  0.5347  0.4967 -0.9503
21366SOL    HW266637   3.374   3.691   3.929 -0.7439  0.0194  0.0869
21367SOL     OW66638   7.870   7.498   9.583  0.8195  0.3044  0.5328
21367SOL    HW166639   7.821   7.561   9.634  2.5815  1.0476  1.3587
21367SOL    HW266640   7.846   7.413   9.620 -1.6150  0.4415 -0.6378
21368SOL     OW66641   3.490   9.084   1.021 -0.1667  0.1344 -0.1046
21368SOL    HW166642   3.547   9.146   1.067  0.2515 -0.6520  0.4523
21368SOL    HW266643   3.543   9.004   1.013 -1.6637 -1.0577  1.6447
21369SOL     OW66644   1.616   8.895   1.255 -0.0765  0.2925  0.1407
21369SOL    HW166645   1.622   8.915   1.161 -2.5305  1.3241  0.1724
21369SOL    HW266646   1.700   8.925   1.291  1.6346 -1.7656 -1.9636
21370SOL     OW66647   0.654   2.212   9.183 -1.0389 -0.6327  0.4016
21370SOL    HW166648   0.712   2.206   9.259 -1.6515  1.7109  1.0820
21370SOL    HW266649   0.707   2.178   9.111  0.4434 -0.5528  1.4110
21371SOL     OW66650   8.141   0.492   4.090 -0.2789 -0.2590 -0.1119
21371SOL    HW166651   8.046   0.481   4.102  0.1208 -0.5238  3.4197
21371SOL    HW266652   8.177   0.405   4.107  0.7595  0.3213  0.6922
21372SOL     OW66653   1.222   0.473   5.127 -0.3817  0.3637  0.1033
21372SOL    HW166654   1.210   0.538   5.196 -0.6946  1.1354 -0.6671
21372SOL    HW266655   1.134   0.460   5.091 -0.3820 -0.7585  0.4889
21373SOL     OW66656   9.423   3.807   9.195 -0.1604 -0.2326  0.3572
21373SOL    HW166657   9.419   3.850   9.110  0.7079  0.4043  0.6315
21373SOL    HW266658   9.478   3.864   9.248  1.7327 -2.0795  0.4688
21374SOL     OW66659   3.566   9.576   8.344 -0.3155  1.2123 -0.3058
21374SOL    HW166660   3.621   9.640   8.299  1.0235 -0.1001 -0.5743
21374SOL    HW266661   3.516   9.533   8.274  0.9310 -0.0412 -0.4429
21375SOL     OW66662   4.785   6.272   6.940 -0.5273 -0.0786  0.5748
21375SOL    HW166663   4.868   6.313   6.965 -0.6601  0.3326  0.3439
21375SOL    HW266664   4.734   6.270   7.021  0.3810 -1.9855  1.1498
21376SOL     OW66665   3.158   3.534   5.529  0.0462 -0.7511 -0.3284
21376SOL    HW166666   3.182   3.529   5.621  0.6558  0.5550 -0.4003
21376SOL    HW266667   3.240   3.518   5.482 -0.0777 -0.5216 -0.6252
21377SOL     OW66668   3.020   6.600   3.054  0.4001 -0.0552 -0.3042
21377SOL    HW166669   3.065   6.549   2.986  0.2536 -1.1658  0.4131
21377SOL    HW266670   2.998   6.535   3.121  1.7679  1.2708  1.4568
21378SOL     OW66671   0.139   9.480   3.094 -0.0188  0.2415 -1.0099
21378SOL    HW166672   0.054   9.514   3.122  0.5708  0.3723  0.6825
21378SOL    HW266673   0.193   9.558   3.081  0.4997  0.0757  0.1136
21379SOL     OW66674   7.493   4.458   2.363 -0.7038  0.3332  0.0064
21379SOL    HW166675   7.436   4.412   2.424  1.9050 -1.7007  0.9999
21379SOL    HW266676   7.500   4.547   2.398  0.5614 -0.7341  2.6119
21380SOL     OW66677   5.964   6.869   3.106  0.4307 -1.0041  0.0669
21380SOL    HW166678   5.893   6.887   3.044  0.8462  0.9513  0.1246
21380SOL    HW266679   5.957   6.939   3.171  2.0202 -1.1580  0.4161
21381SOL     OW66680   4.820   2.857   1.132 -0.1859  0.1945  0.1908
21381SOL    HW166681   4.756   2.921   1.100  0.4686 -0.2211 -2.0258
21381SOL    HW266682   4.840   2.886   1.221 -2.9191  0.7321  0.6830
21382SOL     OW66683   2.094   7.614   9.432 -0.8170 -0.2150  0.1436
21382SOL    HW166684   2.062   7.525   9.423  0.3643 -0.5990 -0.3415
21382SOL    HW266685   2.106   7.645   9.342  1.2948 -0.5061  0.2910
21383SOL     OW66686   5.382   9.285   2.272 -0.5021  0.1667 -0.0942
21383SOL    HW166687   5.362   9.346   2.343 -2.2251  2.0105 -2.0988
21383SOL    HW266688   5.471   9.309   2.245 -0.1912  0.0719  0.8282
21384SOL     OW66689   5.066   9.136   8.156 -0.0428  0.3068  0.4064
21384SOL    HW166690   5.049   9.200   8.087 -1.8898 -0.9095 -0.3118
21384SOL    HW266691   5.032   9.176   8.235  0.6907  1.0671  0.3485
21385SOL     OW66692   7.836   3.570   9.381  0.1067  0.0406 -0.5442
21385SOL    HW166693   7.754   3.535   9.346 -0.1756  0.4445 -0.2845
21385SOL    HW266694   7.846   3.655   9.338 -0.8807  1.1084  1.2714
21386SOL     OW66695   1.275   9.421   9.428 -0.2788  0.3699 -0.1403
21386SOL    HW166696   1.299   9.329   9.415  0.5464  0.8667 -2.1771
21386SOL    HW266697   1.356   9.464   9.455 -0.7354  0.4693  1.1456
21387SOL     OW66698   4.357   7.552   3.199 -0.2976  0.7235  0.0041
21387SOL    HW166699   4.358   7.574   3.106 -0.0354  0.2068 -0.1230
21387SOL    HW266700   4.266   7.563   3.226 -0.1255  2.1324  0.0001
21388SOL     OW66701   4.731   5.917   6.257 -0.8336 -0.3500  0.0063
21388SOL    HW166702   4.756   5.847   6.197 -1.1651 -0.4812  0.0222
21388SOL    HW266703   4.662   5.965   6.211  1.5841  1.9266 -1.3647
21389SOL     OW66704   9.483   9.399   3.512  0.4283  0.2922  0.2416
21389SOL    HW166705   9.429   9.349   3.451  0.4849 -0.5402  0.8561
21389SOL    HW266706   9.467   9.358   3.597  0.5884  1.2370  0.7299
21390SOL     OW66707   3.380   7.248   2.600 -0.0385 -0.4514 -0.0471
21390SOL    HW166708   3.351   7.220   2.687  1.0033 -0.1250  0.4044
21390SOL    HW266709   3.311   7.308   2.570 -0.2063 -0.2598  0.7114
21391SOL     OW66710   1.567   4.191   3.365  0.6464  0.5156  0.7207
21391SOL    HW166711   1.575   4.095   3.367  1.8548  0.5626 -1.0985
21391SOL    HW266712   1.475   4.207   3.347  1.0443 -0.3625 -2.2656
21392SOL     OW66713   2.591   9.739   9.996  0.3316  0.0446  0.0681
21392SOL    HW166714   2.673   9.763  10.038 -0.5178  2.6101  0.2932
21392SOL    HW266715   2.582   9.800   9.922 -0.7428 -1.0506 -0.7462
21393SOL     OW66716   5.430   5.009   0.348 -0.0587  0.3403 -0.3644
21393SOL    HW166717   5.435   5.036   0.256  1.1647 -0.4758 -0.5470
21393SOL    HW266718   5.365   4.938   0.348 -0.0437  0.3264 -0.5986
21394SOL     OW66719   5.250   4.946   5.560  0.0909 -0.0553 -0.4074
21394SOL    HW166720   5.293   4.893   5.492 -0.9928 -0.2333 -0.9603
21394SOL    HW266721   5.285   5.034   5.546 -0.4552  0.0001 -1.4886
21395SOL     OW66722   8.966   7.347   7.184 -0.4649 -0.1940 -0.5242
21395SOL    HW166723   8.934   7.357   7.274 -1.3676  0.7168 -0.9278
21395SOL    HW266724   8.889   7.365   7.130  0.3613  0.4465 -1.4994
21396SOL     OW66725   4.738   2.587   1.845  0.0494  0.3282 -0.2346
21396SOL    HW166726   4.693   2.587   1.930 -0.3220 -0.0090 -0.4320
21396SOL    HW266727   4.668   2.599   1.781  0.2728  0.0668 -0.5288
21397SOL     OW66728   5.685   3.998   3.783 -0.4580  0.5555  0.0649
21397SOL    HW166729   5.684   3.977   3.877 -0.3514  0.4862  0.0514
21397SOL    HW266730   5.734   3.925   3.744  0.1958  0.9952  0.0565
21398SOL     OW66731   6.709   6.799   0.732 -0.2937 -0.3819 -0.3277
21398SOL    HW166732   6.630   6.848   0.756  1.6102  2.9511 -0.4734
21398SOL    HW266733   6.718   6.733   0.800 -2.0797  0.5003  0.8063
21399SOL     OW66734   4.429   0.199   0.267 -0.4116  0.4274 -0.0382
21399SOL    HW166735   4.354   0.238   0.313 -0.3327 -1.8123  2.1088
21399SOL    HW266736   4.413   0.105   0.271 -0.1671  0.0857 -4.3577
21400SOL     OW66737   8.415   7.067   8.109  0.5606  0.0988  0.1245
21400SOL    HW166738   8.332   7.077   8.156  1.2004  1.2966  1.0161
21400SOL    HW266739   8.471   7.019   8.169  0.9429  0.4493  0.0482
21401SOL     OW66740   5.338   4.724   2.769 -0.5278 -0.0797  0.6102
21401SOL    HW166741   5.369   4.813   2.751  0.3732 -0.4682  0.2176
21401SOL    HW266742   5.406   4.667   2.734  0.3057 -0.8856  3.4510
21402SOL     OW66743   4.362   9.345   9.487  0.7539 -0.3377 -0.0430
21402SOL    HW166744   4.292   9.311   9.432  0.2987  0.5590 -0.0316
21402SOL    HW266745   4.335   9.321   9.576  0.4934 -0.0513 -0.0438
21403SOL     OW66746   8.319   3.056   7.177  0.4815  0.3533 -0.3323
21403SOL    HW166747   8.348   3.006   7.254  0.1225  2.0430  0.9422
21403SOL    HW266748   8.248   3.111   7.210 -0.7448 -0.0236 -2.2524
21404SOL     OW66749   8.116   0.811   5.210  0.2181 -0.2815  0.1657
21404SOL    HW166750   8.095   0.766   5.291  0.4051 -0.8511 -0.1034
21404SOL    HW266751   8.207   0.788   5.193 -0.3343 -1.5616 -1.1218
21405SOL     OW66752   0.385   5.439   0.360 -0.3138  0.2321 -0.6216
21405SOL    HW166753   0.448   5.507   0.338  1.6191 -1.2245  0.2504
21405SOL    HW266754   0.306   5.463   0.312  0.9199  2.0639 -1.7929
21406SOL     OW66755   3.003   0.091   6.610 -0.2311  0.1919 -0.3859
21406SOL    HW166756   3.058   0.014   6.611 -0.3536  0.1071  0.4705
21406SOL    HW266757   2.984   0.106   6.518  0.7618 -0.0992 -0.6408
21407SOL     OW66758   8.213   1.232   3.921 -0.5298 -0.0488 -0.7108
21407SOL    HW166759   8.153   1.289   3.969 -1.6604 -0.6352 -1.3911
21407SOL    HW266760   8.299   1.270   3.935 -1.0601  0.8048  0.3032
21408SOL     OW66761   9.446   1.034  10.173 -0.1658  0.2163 -0.0202
21408SOL    HW166762   9.490   0.990  10.100 -0.1194 -0.9435  0.6945
21408SOL    HW266763   9.490   1.119  10.179  2.7274 -1.2960  1.3223
21409SOL     OW66764   7.674   9.731   4.376  0.1113 -0.7258 -0.2605
21409SOL    HW166765   7.650   9.640   4.392  2.0290 -1.1392  0.5041
21409SOL    HW266766   7.655   9.746   4.284 -1.9450 -1.3355  0.0530
21410SOL     OW66767   7.194   9.297   0.735 -0.2654 -0.8110 -0.5416
21410SOL    HW166768   7.272   9.336   0.696 -0.7504 -0.9114 -1.6385
21410SOL    HW266769   7.196   9.324   0.827 -0.0449  0.9424 -1.0544
21411SOL     OW66770   1.407   4.466   7.782  0.0405  0.1020 -0.2472
21411SOL    HW166771   1.316   4.492   7.799 -0.0192  0.3230 -0.9020
21411SOL    HW266772   1.457   4.547   7.791  0.1384  0.0316 -0.1620
21412SOL     OW66773   5.643   8.101   1.675  0.1521 -0.1812 -0.0413
21412SOL    HW166774   5.592   8.164   1.726  0.1662  0.4203 -0.7622
21412SOL    HW266775   5.628   8.017   1.719 -0.4933  0.1912  0.4600
21413SOL     OW66776   2.283   5.027   0.187  0.0540  0.6023  0.0782
21413SOL    HW166777   2.244   5.115   0.186 -1.3131  0.0144  0.4649
21413SOL    HW266778   2.377   5.043   0.180 -0.1273  2.1403  0.8621
21414SOL     OW66779   3.481   1.648   9.573 -0.4162 -0.5501  0.0074
21414SOL    HW166780   3.428   1.635   9.651 -0.8297 -1.1346 -0.3698
21414SOL    HW266781   3.419   1.678   9.506 -0.0550  0.0093 -0.0794
21415SOL     OW66782   9.964   0.711   1.782  0.9926 -0.0829  0.4752
21415SOL    HW166783   9.884   0.665   1.759  2.3514 -1.7656 -1.0283
21415SOL    HW266784   9.966   0.787   1.725 -0.5246  1.0855  1.9389
21416SOL     OW66785   6.878   2.730   4.552 -0.0539 -0.3202  0.1551
21416SOL    HW166786   6.854   2.701   4.640 -0.9884 -0.9986 -0.3155
21416SOL    HW266787   6.973   2.740   4.556 -0.1573  0.2564  1.4189
21417SOL     OW66788   9.572   5.691   3.373 -0.3572 -0.1426  0.5097
21417SOL    HW166789   9.556   5.617   3.314 -0.8714  0.0588  0.3860
21417SOL    HW266790   9.512   5.677   3.446  0.9445 -0.8847  1.4470
21418SOL     OW66791   7.984   8.334   0.758  0.1673  0.6680  0.1510
21418SOL    HW166792   7.890   8.315   0.756  0.2010  0.2777  1.3601
21418SOL    HW266793   7.997   8.403   0.694 -0.6792 -0.4160 -1.2162
21419SOL     OW66794   3.660   2.184   6.733 -0.2469 -0.0658  0.7062
21419SOL    HW166795   3.671   2.090   6.723 -0.6761 -0.2984  2.3410
21419SOL    HW266796   3.717   2.208   6.806  1.2139  1.2413 -0.8008
21420SOL     OW66797   3.460   1.986   3.462  0.5136 -0.2774 -0.2430
21420SOL    HW166798   3.384   2.016   3.414  0.6015  1.1932  0.5004
21420SOL    HW266799   3.444   1.892   3.477 -2.4239  0.5322  2.2135
21421SOL     OW66800   4.978   4.886   5.500  0.0713 -0.1490  0.4737
21421SOL    HW166801   4.932   4.886   5.584  0.2871  0.2140  0.5905
21421SOL    HW266802   5.068   4.911   5.522 -0.2967  1.7525 -0.1076
21422SOL     OW66803   2.379   5.092   3.617  0.6809  0.1712 -0.3341
21422SOL    HW166804   2.298   5.126   3.579  1.1963  1.5229 -0.2633
21422SOL    HW266805   2.436   5.077   3.541  0.6168 -0.0802 -0.3313
21423SOL     OW66806   1.636  10.026   5.885  0.2779  0.1414 -0.7334
21423SOL    HW166807   1.550  10.049   5.850  0.6730  0.2699 -1.6282
21423SOL    HW266808   1.622  10.017   5.980 -0.6434  0.4913 -0.8356
21424SOL     OW66809   1.219   0.286   5.824  0.3215  0.0703  0.5604
21424SOL    HW166810   1.258   0.367   5.857  0.3599  0.5992 -0.7292
21424SOL    HW266811   1.293   0.239   5.784 -0.0568  0.3581 -0.5070
21425SOL     OW66812   9.960   2.042   8.789  0.7283 -0.6824 -0.2588
21425SOL    HW166813  10.009   2.020   8.868  2.3655  2.8084 -0.1815
21425SOL    HW266814   9.891   2.102   8.820  1.9593  1.4600 -1.5489
21426SOL     OW66815   6.183   5.157   6.940 -0.2701 -0.6563  0.1910
21426SOL    HW166816   6.239   5.087   6.906  0.5801  0.4624 -0.7847
21426SOL    HW266817   6.220   5.177   7.026  1.0768  0.3077 -0.5867
21427SOL     OW66818   7.958   6.505   3.070 -0.3322 -0.8764  0.6511
21427SOL    HW166819   7.929   6.453   3.145 -0.4363 -1.0871  0.4637
21427SOL    HW266820   7.882   6.559   3.048  0.3147  0.6201  1.9303
21428SOL     OW66821   6.868   7.466   2.662  0.3154  0.2110 -0.8415
21428SOL    HW166822   6.783   7.447   2.701 -0.5947  1.3063 -2.2580
21428SOL    HW266823   6.848   7.507   2.578  2.2399  0.2068 -1.3357
21429SOL     OW66824   0.706   6.044   1.471 -0.1737  0.1973  0.1274
21429SOL    HW166825   0.798   6.042   1.499 -0.5329  1.7684  1.5499
21429SOL    HW266826   0.692   5.960   1.427  2.2203  0.3465 -1.0207
21430SOL     OW66827   1.624   7.647   6.982  0.2240 -0.4424 -0.6108
21430SOL    HW166828   1.638   7.699   6.903  2.2857 -0.1807 -0.1154
21430SOL    HW266829   1.667   7.564   6.964  1.5567 -0.0360  0.5621
21431SOL     OW66830   7.425   0.722   6.621  0.7475  0.3160  0.4414
21431SOL    HW166831   7.427   0.743   6.715 -4.7078  1.2674  0.4633
21431SOL    HW266832   7.374   0.642   6.615  0.1031  0.8571 -1.8119
21432SOL     OW66833   8.037   9.300  10.001 -0.2807 -0.4910  0.3049
21432SOL    HW166834   8.073   9.242  10.069  0.2400 -1.6323 -0.9233
21432SOL    HW266835   8.113   9.326   9.949 -0.4993  1.3943  0.8740
21433SOL     OW66836   4.688   0.341   3.946  0.2790  0.3701  0.4697
21433SOL    HW166837   4.613   0.333   3.886  1.4879  0.6270 -1.1104
21433SOL    HW266838   4.717   0.252   3.961 -0.2897  0.2762  1.0082
21434SOL     OW66839   6.933   4.559   1.547 -0.0684 -0.3834  0.2882
21434SOL    HW166840   6.954   4.604   1.465  0.8585  2.4110  1.9645
21434SOL    HW266841   6.841   4.534   1.538 -0.7482  2.2638 -0.5733
21435SOL     OW66842   2.764   1.126   8.764 -0.2804 -0.1248 -0.2786
21435SOL    HW166843   2.763   1.091   8.853  2.0053 -0.2601 -0.2808
21435SOL    HW266844   2.725   1.057   8.711  2.9574 -2.1814 -0.0902
21436SOL     OW66845   8.341   2.161   5.885 -0.3497  0.2105  0.4772
21436SOL    HW166846   8.259   2.117   5.907 -0.5238 -0.0173 -0.6212
21436SOL    HW266847   8.409   2.095   5.902 -0.1419  1.1197  3.6264
21437SOL     OW66848   5.685   7.503   2.719  0.6717 -0.4046  0.3775
21437SOL    HW166849   5.730   7.553   2.787 -0.5285 -0.5738  1.3180
21437SOL    HW266850   5.750   7.440   2.688  1.9792  1.2551 -0.3379
21438SOL     OW66851   3.807   4.321   7.303 -0.2798 -0.0408  0.2570
21438SOL    HW166852   3.720   4.316   7.343 -0.7116  1.3826 -0.4585
21438SOL    HW266853   3.840   4.407   7.330  0.1537  0.1799 -0.9435
21439SOL     OW66854   4.824   3.078   6.483 -0.2764  0.2889  0.1061
21439SOL    HW166855   4.849   3.111   6.397  0.2664 -0.7671 -0.1546
21439SOL    HW266856   4.902   3.033   6.516 -1.1354 -1.1923  0.2053
21440SOL     OW66857   2.326   4.896   8.284 -0.2226 -0.6092 -0.4090
21440SOL    HW166858   2.266   4.920   8.355  0.9129  0.1174  0.3246
21440SOL    HW266859   2.340   4.978   8.237  1.2174 -0.4994  0.2082
21441SOL     OW66860   4.926   5.268   6.090 -0.0672  0.4294  0.3231
21441SOL    HW166861   4.919   5.176   6.063 -0.2179  0.5105  0.0789
21441SOL    HW266862   5.019   5.289   6.083 -0.1973  0.6470 -0.7928
21442SOL     OW66863   3.247   0.175   9.179 -0.8210 -0.1918 -0.2050
21442SOL    HW166864   3.324   0.120   9.166 -1.2432 -0.9480  0.4218
21442SOL    HW266865   3.269   0.258   9.139  0.3261 -0.4045 -0.0165
21443SOL     OW66866   0.017   0.345   8.409 -0.2106  0.0842 -0.4158
21443SOL    HW166867   0.077   0.379   8.343  0.2136 -1.7288 -0.9820
21443SOL    HW266868   0.028   0.250   8.405 -0.0191 -0.0440  2.4171
21444SOL     OW66869   8.485   4.846   0.480  0.2600  0.1645 -0.2191
21444SOL    HW166870   8.509   4.938   0.472  1.2683 -0.0704  0.0427
21444SOL    HW266871   8.391   4.847   0.495  0.5954  1.2557  1.9821
21445SOL     OW66872   6.584   5.631   7.367 -0.0230  0.0463  0.2929
21445SOL    HW166873   6.657   5.592   7.319 -0.7402 -2.2440  0.9898
21445SOL    HW266874   6.550   5.698   7.309  1.6311  0.0453 -0.7060
21446SOL     OW66875   5.500   7.361   4.176 -0.0217 -0.1102 -0.0608
21446SOL    HW166876   5.456   7.308   4.243 -2.2630  1.7304 -0.0104
21446SOL    HW266877   5.557   7.419   4.226  0.3364 -0.5901  0.0825
21447SOL     OW66878   9.858   8.698   9.987 -0.3259 -0.1646 -0.1023
21447SOL    HW166879   9.831   8.789   9.982  0.3284  0.0177 -0.2599
21447SOL    HW266880   9.860   8.668   9.896  2.8876  0.6623 -0.3639
21448SOL     OW66881   8.324   3.353   1.844  0.3240 -0.2580  0.1003
21448SOL    HW166882   8.352   3.343   1.935  2.1326 -0.6274 -0.4870
21448SOL    HW266883   8.377   3.424   1.809 -1.1386  0.6375 -0.3752
21449SOL     OW66884   0.316   6.033   5.713  0.2013 -1.0895  0.2195
21449SOL    HW166885   0.298   5.947   5.750 -0.5617 -1.3905 -0.8209
21449SOL    HW266886   0.387   6.017   5.651  1.6896 -0.5340  1.7562
21450SOL     OW66887   7.860   1.238   5.885 -0.1231 -0.1587 -0.5476
21450SOL    HW166888   7.831   1.178   5.953 -1.6509 -0.6034 -1.5627
21450SOL    HW266889   7.805   1.315   5.895 -0.3285 -0.2081 -1.2274
21451SOL     OW66890   0.695   7.297   6.262  0.4790 -0.3840 -0.2014
21451SOL    HW166891   0.729   7.362   6.200  0.9666 -1.3593 -0.9868
21451SOL    HW266892   0.677   7.346   6.342  1.4577  0.5934 -0.5682
21452SOL     OW66893   6.859   5.593   3.167  0.3221  0.2804 -0.2449
21452SOL    HW166894   6.785   5.646   3.195 -0.8128 -1.5575  0.3364
21452SOL    HW266895   6.912   5.651   3.112 -1.3766  1.6994 -0.3951
21453SOL     OW66896   9.300   7.574   0.426 -0.0819 -0.0062  0.2538
21453SOL    HW166897   9.212   7.609   0.440 -0.0081  0.1890  0.2400
21453SOL    HW266898   9.319   7.523   0.505 -0.0228  0.3425  0.4690
21454SOL     OW66899   5.696   0.229   3.306  0.0372  0.3456 -0.4131
21454SOL    HW166900   5.601   0.235   3.293 -0.2895  0.5978  2.0106
21454SOL    HW266901   5.714   0.135   3.307 -0.1317  0.3000 -1.1887
21455SOL     OW66902   1.946   5.901   4.318 -0.2430  0.2050  0.2318
21455SOL    HW166903   1.857   5.881   4.288 -0.7528  0.1241  1.7242
21455SOL    HW266904   1.953   5.855   4.401  0.5382  1.7353  1.0313
21456SOL     OW66905   8.730   3.082   5.470  0.2865  0.2195 -0.4220
21456SOL    HW166906   8.723   2.987   5.471  1.2890  0.1426 -0.2632
21456SOL    HW266907   8.758   3.102   5.380  1.7085  0.2407  0.0245
21457SOL     OW66908   5.404   7.187   0.967  0.4371 -0.2115  0.0891
21457SOL    HW166909   5.392   7.178   1.061 -1.9467 -0.5337 -0.2280
21457SOL    HW266910   5.369   7.106   0.930  0.9992  0.0833 -1.1005
21458SOL     OW66911   1.519   2.906   1.852  0.2572 -0.5296 -0.6427
21458SOL    HW166912   1.513   2.850   1.774 -0.0391 -0.3619 -0.7427
21458SOL    HW266913   1.437   2.957   1.851 -0.0550 -1.0110  0.1539
21459SOL     OW66914   0.886   5.743   4.388  0.7509 -0.3521 -0.1688
21459SOL    HW166915   0.975   5.778   4.387  0.6762 -0.1417  0.3033
21459SOL    HW266916   0.867   5.722   4.297  1.3389 -0.5313 -0.2499
21460SOL     OW66917   6.380   8.656   4.757 -0.6194 -0.0539  0.5543
21460SOL    HW166918   6.433   8.675   4.835  0.9542  1.7898 -0.9083
21460SOL    HW266919   6.438   8.603   4.702 -1.7815 -1.4769  0.6852
21461SOL     OW66920   2.561   3.394   2.085  0.5161  0.0940  0.4049
21461SOL    HW166921   2.569   3.424   1.995 -1.0051 -2.2227 -0.5462
21461SOL    HW266922   2.588   3.470   2.138  2.0766  1.2631 -1.9677
21462SOL     OW66923   3.242   5.878   6.486  0.5409 -0.0509  0.3188
21462SOL    HW166924   3.201   5.927   6.557 -1.2698  1.8613 -1.9293
21462SOL    HW266925   3.330   5.916   6.478  0.3725  0.4597  0.8611
21463SOL     OW66926   7.823   1.593   5.573  0.3892  0.5720 -0.0402
21463SOL    HW166927   7.793   1.684   5.580 -0.2727  0.4951 -1.8121
21463SOL    HW266928   7.895   1.597   5.510 -0.4767 -0.3367 -1.0822
21464SOL     OW66929   9.594   6.021   1.683 -0.4604 -0.2366 -0.1047
21464SOL    HW166930   9.616   6.009   1.590 -0.4868  0.0289 -0.1466
21464SOL    HW266931   9.518   6.080   1.681  0.1667  0.5951  0.1276
21465SOL     OW66932   4.711   6.937   9.342  0.2165  0.1543  0.7116
21465SOL    HW166933   4.619   6.951   9.320  0.8032  2.0988 -0.5537
21465SOL    HW266934   4.742   6.876   9.275  0.6226  1.8958 -0.7123
21466SOL     OW66935   5.850   6.154   5.869  1.0825 -0.1251 -0.1086
21466SOL    HW166936   5.880   6.230   5.919 -0.4423 -1.1984  2.4893
21466SOL    HW266937   5.766   6.181   5.831  0.4295 -0.5727  1.0038
21467SOL     OW66938   8.312   2.293   2.863  0.0329 -0.5048 -0.7467
21467SOL    HW166939   8.357   2.370   2.826 -0.3412 -0.1513 -0.4626
21467SOL    HW266940   8.368   2.219   2.838  0.4869 -0.1225 -0.8682
21468SOL     OW66941   2.644   8.329   4.626  0.3233 -0.3478  0.2763
21468SOL    HW166942   2.631   8.248   4.577  0.7904 -1.7611  2.4136
21468SOL    HW266943   2.589   8.320   4.704  0.6746  1.2235  0.7309
21469SOL     OW66944   6.092   0.753   4.763  0.0772  0.5850 -0.0066
21469SOL    HW166945   6.054   0.761   4.675  1.7602 -0.5369 -0.8681
21469SOL    HW266946   6.058   0.670   4.796  0.0016  0.6631  0.1084
21470SOL     OW66947   2.872   3.726   8.675 -0.7164  0.2158  0.1437
21470SOL    HW166948   2.917   3.664   8.733 -0.6820  0.1110  0.0057
21470SOL    HW266949   2.890   3.693   8.587  2.7669  2.7056 -0.1877
21471SOL     OW66950   8.080   4.212   4.159 -0.1745 -0.4371 -0.3237
21471SOL    HW166951   8.014   4.143   4.169 -1.3777  0.6401 -0.7870
21471SOL    HW266952   8.158   4.166   4.126 -0.3651 -1.8698  1.2061
21472SOL     OW66953   9.521   5.235   9.985 -0.6263  0.2554  0.3809
21472SOL    HW166954   9.435   5.203  10.012 -1.5442  2.4932  0.1886
21472SOL    HW266955   9.578   5.212  10.058 -1.8746  0.8506  1.5700
21473SOL     OW66956   6.767   0.308   6.658  0.5531  0.0170 -0.0086
21473SOL    HW166957   6.795   0.378   6.598  0.3906 -1.3779 -1.7833
21473SOL    HW266958   6.849   0.276   6.696  0.8195 -0.0369 -0.6062
21474SOL     OW66959   3.463   0.245   8.467  0.3651  0.0467  0.2304
21474SOL    HW166960   3.499   0.156   8.463 -0.1757 -0.1185 -1.4896
21474SOL    HW266961   3.496   0.287   8.387 -1.7590  0.4599 -0.4494
21475SOL     OW66962   5.497   2.647   2.374 -0.0992  1.1515 -0.3908
21475SOL    HW166963   5.546   2.566   2.386  0.5476  1.5566 -0.2902
21475SOL    HW266964   5.508   2.694   2.456 -1.4012  0.8524 -0.0256
21476SOL     OW66965   8.230   3.925   5.642  0.3409 -0.3278 -0.0978
21476SOL    HW166966   8.195   3.910   5.554  1.8711 -0.4684 -0.6868
21476SOL    HW266967   8.277   4.008   5.636 -1.9337  1.1406  1.3290
21477SOL     OW66968   6.486   9.873   2.460  0.5906  0.3260 -0.0693
21477SOL    HW166969   6.483   9.792   2.511 -0.2216  0.4452  0.0741
21477SOL    HW266970   6.452   9.848   2.374 -0.6381  0.7443  0.2880
21478SOL     OW66971   6.569   3.567   4.451 -0.2359 -0.3620  0.0198
21478SOL    HW166972   6.569   3.660   4.473 -1.6012 -0.4853  0.5935
21478SOL    HW266973   6.655   3.536   4.480  0.3454  0.7786 -0.4548
21479SOL     OW66974   9.468   4.672   5.344 -0.3637  0.3537  0.1739
21479SOL    HW166975   9.473   4.747   5.284 -0.7564  0.5168  0.3358
21479SOL    HW266976   9.512   4.703   5.424 -1.8157  0.9501  0.7690
21480SOL     OW66977   7.449   4.893   3.453 -0.4481  0.2606  0.1851
21480SOL    HW166978   7.448   4.798   3.449 -0.9302  0.2718  0.0722
21480SOL    HW266979   7.362   4.920   3.422  0.0303  0.7764 -0.7120
21481SOL     OW66980   5.886   1.296   9.285  0.2025 -0.0855 -0.0161
21481SOL    HW166981   5.948   1.347   9.233  1.5780 -0.7456  0.9435
21481SOL    HW266982   5.902   1.205   9.260 -0.1790 -0.2800  0.4377
21482SOL     OW66983   2.971   6.733   7.043 -0.0159 -0.6127 -0.2645
21482SOL    HW166984   2.967   6.673   6.968  3.1234 -2.1686  0.7545
21482SOL    HW266985   2.974   6.675   7.119 -0.8173  0.9353  0.9511
21483SOL     OW66986   3.877   9.158   8.711 -0.2307 -0.1506 -0.0828
21483SOL    HW166987   3.916   9.121   8.789 -1.3709  1.7908  1.4475
21483SOL    HW266988   3.807   9.096   8.687 -0.8993  0.0309  1.3541
21484SOL     OW66989   5.620   0.719   6.050 -0.2385  0.3347 -0.0728
21484SOL    HW166990   5.673   0.699   5.972  0.1654  0.4540  0.1656
21484SOL    HW266991   5.569   0.796   6.025 -1.2404 -0.5404 -0.7369
21485SOL     OW66992   9.481   3.693   3.951 -0.1168 -0.7924 -0.0632
21485SOL    HW166993   9.421   3.658   3.885 -1.5304 -1.3348  1.4565
21485SOL    HW266994   9.430   3.759   3.998  1.3240  0.5936 -0.4268
21486SOL     OW66995   8.487   9.421   6.882 -0.0080 -0.1357 -0.4443
21486SOL    HW166996   8.482   9.516   6.890 -0.7847 -0.0490 -1.9491
21486SOL    HW266997   8.574   9.405   6.846 -0.7078  0.1436 -2.2807
21487SOL     OW66998   3.108   4.509   7.739 -0.3162  0.6893  0.0785
21487SOL    HW166999   3.125   4.417   7.718 -0.6153  0.3984  1.0685
21487SOL    HW267000   3.119   4.555   7.656  0.2588 -0.1831 -0.3386
21488SOL     OW67001   4.234   1.852   0.129  0.6191  0.0972 -0.0474
21488SOL    HW167002   4.217   1.933   0.177  1.2868 -0.3443  0.9509
21488SOL    HW267003   4.312   1.815   0.171  1.5695 -0.0004 -1.8519
21489SOL     OW67004   3.587   8.591   1.804  0.4436  0.2466 -0.3624
21489SOL    HW167005   3.564   8.532   1.732 -0.7796  0.5747 -0.2606
21489SOL    HW267006   3.646   8.540   1.860  1.5366  0.0445 -1.6704
21490SOL     OW67007   6.689   9.748   2.226  0.5159 -0.1106  0.3756
21490SOL    HW167008   6.639   9.797   2.292  0.4641  1.5827 -0.8987
21490SOL    HW267009   6.641   9.762   2.145  2.8851  1.2930 -0.8203
21491SOL     OW67010   7.584   6.345   6.840  0.4615 -0.2935  0.9985
21491SOL    HW167011   7.647   6.416   6.844  1.0581 -0.8689  1.9815
21491SOL    HW267012   7.503   6.382   6.876  0.5192  0.1502  0.6719
21492SOL     OW67013   2.701   3.827   9.136 -0.8030 -0.2910 -0.3770
21492SOL    HW167014   2.607   3.813   9.126 -0.9236  0.5641 -0.4656
21492SOL    HW267015   2.718   3.812   9.229 -1.3209  1.1915 -0.0289
21493SOL     OW67016   6.895   3.656   7.634  0.0717 -0.2553  0.0894
21493SOL    HW167017   6.863   3.709   7.706  1.1743 -1.0032  1.1459
21493SOL    HW267018   6.981   3.693   7.613 -0.3365  0.1007 -0.9896
21494SOL     OW67019   8.704   4.717   0.370 -0.0218  1.0401  0.1549
21494SOL    HW167020   8.632   4.764   0.412  0.1911  0.0237  1.6812
21494SOL    HW267021   8.703   4.631   0.410  1.2365  0.5871 -0.7547
21495SOL     OW67022   7.234   6.105   4.262 -0.3109  0.4183 -0.1150
21495SOL    HW167023   7.254   6.137   4.350 -0.3021  0.1006 -0.0048
21495SOL    HW267024   7.318   6.107   4.216 -0.2220  0.0834  0.0376
21496SOL     OW67025   0.823   7.685   8.381  0.0455  0.2456 -0.0719
21496SOL    HW167026   0.868   7.611   8.340  1.7962  1.2998 -0.1216
21496SOL    HW267027   0.803   7.744   8.308  0.7167  0.8640  0.2387
21497SOL     OW67028   8.617   8.960   8.761  0.3076 -0.0555  0.4271
21497SOL    HW167029   8.668   9.006   8.827  0.0155  0.1174  0.5325
21497SOL    HW267030   8.526   8.979   8.783  0.1458 -1.6600  1.1829
21498SOL     OW67031   6.313   1.353   9.361  0.1099  0.1753  0.1892
21498SOL    HW167032   6.242   1.389   9.308  0.4244 -0.7741 -0.8838
21498SOL    HW267033   6.393   1.378   9.314  0.2888 -3.1196 -1.3539
21499SOL     OW67034   2.016   2.459   2.609  0.4774  0.3205  0.0451
21499SOL    HW167035   2.015   2.551   2.637  0.0563  0.4274 -0.3212
21499SOL    HW267036   1.964   2.414   2.675  0.2782  0.4222 -0.0419
21500SOL     OW67037   0.966   6.230   3.185  0.0603  0.5716 -0.1739
21500SOL    HW167038   0.994   6.185   3.105  0.7146  2.2796 -0.9356
21500SOL    HW267039   0.871   6.235   3.177  0.0226 -0.2580 -0.3006
21501SOL     OW67040   2.386   9.923   4.770  0.2478  0.2126  0.5365
21501SOL    HW167041   2.354   9.843   4.728  0.3965  0.8385 -0.7740
21501SOL    HW267042   2.370   9.908   4.864  0.1592 -1.2950  0.2973
21502SOL     OW67043   1.176   1.583   7.529  0.0104  0.3166  0.1360
21502SOL    HW167044   1.268   1.559   7.516 -0.2272 -0.5158 -0.0570
21502SOL    HW267045   1.133   1.559   7.447  0.0180  2.8040 -0.6370
21503SOL     OW67046   3.579   6.659   0.159 -0.0444  0.1194  0.6414
21503SOL    HW167047   3.489   6.631   0.176  0.4632 -1.5532  0.6534
21503SOL    HW267048   3.594   6.639   0.067 -0.0751  1.5586  0.3030
21504SOL     OW67049   1.987   1.633   1.607 -0.7603  0.3496  0.5175
21504SOL    HW167050   2.022   1.545   1.599  1.0559  1.1302 -0.2426
21504SOL    HW267051   1.955   1.654   1.519  0.1444  0.9981  0.3391
21505SOL     OW67052   3.919   2.703   6.249 -0.3478  1.0183 -0.0138
21505SOL    HW167053   3.939   2.719   6.157 -1.9724 -2.0104 -0.9485
21505SOL    HW267054   3.962   2.620   6.269 -0.7581  1.2007  1.7418
21506SOL     OW67055   9.449   2.300   5.804  0.1107 -0.6384  0.5234
21506SOL    HW167056   9.441   2.391   5.833  2.8761 -0.9554  2.5212
21506SOL    HW267057   9.480   2.306   5.714 -0.0579  0.4126  0.5300
21507SOL     OW67058   4.517   0.166   1.091  0.2860 -0.1649 -0.0421
21507SOL    HW167059   4.610   0.187   1.082  0.0298  0.8293 -0.4112
21507SOL    HW267060   4.487   0.220   1.163 -0.6696  1.7259 -1.8298
21508SOL     OW67061   8.870   0.236   4.844  0.3201 -0.2915  0.4257
21508SOL    HW167062   8.815   0.158   4.844 -0.9524  0.5750 -1.5049
21508SOL    HW267063   8.809   0.309   4.854  1.3403  0.5589  0.5968
21509SOL     OW67064   4.873   5.969   2.880 -0.2366  0.4505  0.1887
21509SOL    HW167065   4.835   5.904   2.821  0.7908 -0.6149  0.6814
21509SOL    HW267066   4.879   6.049   2.827  0.7774 -0.5149 -1.1899
21510SOL     OW67067   0.989   7.511   5.935  0.3326  0.0667 -0.2219
21510SOL    HW167068   1.026   7.506   5.847  1.4832  3.7081 -0.0043
21510SOL    HW267069   0.983   7.604   5.954  0.3995 -0.6324  3.6985
21511SOL     OW67070   9.290   8.515   5.352 -0.0117 -0.1247 -0.0320
21511SOL    HW167071   9.217   8.521   5.415  0.8812  0.4227  0.9586
21511SOL    HW267072   9.365   8.490   5.405  0.5607 -0.5777 -1.0438
21512SOL     OW67073   3.638   4.408   1.064  0.4441  0.2477 -0.6961
21512SOL    HW167074   3.631   4.372   1.152  1.1190 -0.9705 -1.1161
21512SOL    HW267075   3.554   4.452   1.048  0.6094  1.1261  0.8179
21513SOL     OW67076   1.235   6.153   9.482 -0.2273 -0.1640  0.0885
21513SOL    HW167077   1.188   6.236   9.482 -1.6744 -0.9714  0.6853
21513SOL    HW267078   1.290   6.156   9.560  1.1436  1.0117 -0.9066
21514SOL     OW67079   4.444   2.956   5.328  0.1636 -0.0310  0.1762
21514SOL    HW167080   4.494   2.881   5.297  0.2105  0.6308 -1.3956
21514SOL    HW267081   4.481   3.030   5.280 -0.9040  0.7773  0.5942
21515SOL     OW67082   7.826   0.363   0.969  0.1145  0.0664  0.2138
21515SOL    HW167083   7.767   0.425   1.013 -2.1197 -0.4995 -1.8222
21515SOL    HW267084   7.894   0.418   0.931 -0.0702  0.9348  1.0942
21516SOL     OW67085   2.474  10.085   4.482  0.0620  0.2611  0.6602
21516SOL    HW167086   2.460  10.073   4.576  0.7121  2.2490  1.0317
21516SOL    HW267087   2.407  10.030   4.441 -0.0632 -0.8263  2.2694
21517SOL     OW67088   9.189   1.784   4.384 -0.1177  0.4395  0.3111
21517SOL    HW167089   9.190   1.689   4.372  2.8106  0.3741  0.5096
21517SOL    HW267090   9.127   1.816   4.319 -0.2192 -1.5102 -0.5938
21518SOL     OW67091   4.405   4.778   5.068  0.5736  1.1497  0.2408
21518SOL    HW167092   4.358   4.741   4.994  1.8726  0.9383 -0.4910
21518SOL    HW267093   4.341   4.835   5.111 -1.1465 -1.1131  0.7961
21519SOL     OW67094   3.410  10.054   6.085  0.3835  0.0273 -0.5864
21519SOL    HW167095   3.371  10.058   6.172  2.8964  1.0508  0.5540
21519SOL    HW267096   3.451  10.140   6.073  0.2402 -0.1557 -2.7088
21520SOL     OW67097   8.087   5.601   8.474  0.5972  0.0486  0.1901
21520SOL    HW167098   8.173   5.639   8.458  1.3168 -0.9733  1.5639
21520SOL    HW267099   8.057   5.644   8.554  0.1266 -0.1294  0.1088
21521SOL     OW67100   0.035   2.148   2.954 -0.1634 -0.5094 -0.1944
21521SOL    HW167101   0.056   2.203   2.879  0.8315  1.0847  1.2032
21521SOL    HW267102  -0.051   2.178   2.983  0.1371 -0.0708  0.2401
21522SOL     OW67103   1.069   7.189   0.279 -0.1695  0.5248  0.4156
21522SOL    HW167104   1.160   7.173   0.257 -0.4448  0.7204 -0.8926
21522SOL    HW267105   1.050   7.127   0.350 -0.3758 -2.9237 -2.5083
21523SOL     OW67106   3.252   0.614   7.053  0.2134  0.1967  0.0939
21523SOL    HW167107   3.251   0.546   7.120  1.5539 -2.0493 -2.0661
21523SOL    HW267108   3.344   0.638   7.044 -0.0952  1.3257 -0.1188
21524SOL     OW67109   1.211   7.860   1.903 -0.3230  0.2119  0.0068
21524SOL    HW167110   1.177   7.939   1.946 -0.6480 -0.2547  0.6083
21524SOL    HW267111   1.152   7.790   1.930 -1.2775  0.1088 -2.1837
21525SOL     OW67112   7.088   5.746   1.046  0.1468 -0.6013 -0.4708
21525SOL    HW167113   7.139   5.822   1.017 -0.2523  0.0143  0.4037
21525SOL    HW267114   7.154   5.684   1.079  0.4170 -0.3002 -0.4373
21526SOL     OW67115   2.940   8.370   4.356 -0.5713 -0.3334 -0.0320
21526SOL    HW167116   2.934   8.306   4.286 -0.1436 -0.7627  0.3250
21526SOL    HW267117   2.849   8.399   4.369 -0.7602 -0.8320 -0.2256
21527SOL     OW67118   4.891   5.365   7.005 -0.5384 -0.2167 -0.1210
21527SOL    HW167119   4.922   5.281   6.972 -1.0759 -0.3402 -0.3241
21527SOL    HW267120   4.932   5.430   6.947 -1.5921 -0.4421 -1.1536
21528SOL     OW67121   6.600   6.282   4.771  0.1014  0.2354 -0.1383
21528SOL    HW167122   6.639   6.333   4.842  0.1613 -0.9724  0.7177
21528SOL    HW267123   6.568   6.203   4.813 -1.1146  0.1202 -1.2400
21529SOL     OW67124   2.098   3.545   7.582 -0.0945  0.4380 -0.6529
21529SOL    HW167125   2.104   3.605   7.507 -1.9237 -1.7822 -2.6652
21529SOL    HW267126   2.148   3.468   7.555 -0.9337 -0.4716  0.3287
21530SOL     OW67127   1.240   2.541   3.729 -0.0368  0.3727  0.4454
21530SOL    HW167128   1.200   2.493   3.657  0.0172  0.7699  0.1436
21530SOL    HW267129   1.166   2.581   3.776  0.0269  1.4864 -0.3870
21531SOL     OW67130   0.312   0.720   6.416  0.1084  0.4698  0.0419
21531SOL    HW167131   0.298   0.706   6.323  0.4979 -0.3823  0.1030
21531SOL    HW267132   0.313   0.631   6.454 -1.4561  0.8590  1.0568
21532SOL     OW67133   1.347   0.254   3.013  0.1581 -0.0286 -0.0987
21532SOL    HW167134   1.349   0.224   3.104  0.5695  0.5174  0.0763
21532SOL    HW267135   1.417   0.319   3.008  0.3539 -0.3004 -0.8950
21533SOL     OW67136   6.304   8.792   9.580  0.4914  0.2726  0.6569
21533SOL    HW167137   6.269   8.876   9.608  1.3526  1.5017 -1.7918
21533SOL    HW267138   6.398   8.796   9.601  1.0068  0.9334 -1.6616
21534SOL     OW67139   6.906   3.403   9.565 -0.2734 -1.1794  0.4329
21534SOL    HW167140   6.990   3.401   9.610  0.0047 -0.1815 -0.0263
21534SOL    HW267141   6.846   3.357   9.623  0.2211 -0.4649  1.5114
21535SOL     OW67142   4.885   1.559   8.958 -0.2028 -0.4723 -0.3703
21535SOL    HW167143   4.971   1.555   9.001 -0.8536 -2.3583  0.8142
21535SOL    HW267144   4.846   1.473   8.974 -1.8296 -0.0620 -1.9474
21536SOL     OW67145   4.198   5.821   1.742  0.3291 -0.4406  0.2255
21536SOL    HW167146   4.166   5.836   1.830  0.7173 -1.4386  0.5425
21536SOL    HW267147   4.231   5.731   1.743  0.4817 -0.4085 -0.8863
21537SOL     OW67148   6.309   2.430   2.642 -0.2738 -0.3194 -0.1865
21537SOL    HW167149   6.294   2.372   2.568  0.3159  0.2078 -0.7213
21537SOL    HW267150   6.252   2.396   2.711 -1.8102 -0.0150 -1.2952
21538SOL     OW67151   6.153   3.827   0.060 -0.5646 -0.3479  0.2402
21538SOL    HW167152   6.074   3.834   0.007 -0.0551 -0.4587 -0.5422
21538SOL    HW267153   6.221   3.870   0.008 -0.3077  0.5664  1.3127
21539SOL     OW67154   5.234   1.796   4.860 -0.5624  0.4142 -0.2823
21539SOL    HW167155   5.292   1.730   4.822 -0.2625 -0.3320  1.4212
21539SOL    HW267156   5.243   1.784   4.955 -2.2408  1.4023  0.0188
21540SOL     OW67157   9.666   2.502   2.970 -0.3397 -0.1027 -0.0985
21540SOL    HW167158   9.689   2.420   3.014 -1.4910 -1.2373 -1.6027
21540SOL    HW267159   9.625   2.555   3.039  0.2617 -0.8280  0.8368
21541SOL     OW67160   5.522   4.596   6.225  0.2743 -0.3333  0.1334
21541SOL    HW167161   5.500   4.551   6.306 -0.1579 -1.5391 -0.6330
21541SOL    HW267162   5.474   4.679   6.229 -2.2776 -1.7377 -0.2851
21542SOL     OW67163   8.419   3.075   3.409 -0.4701 -0.1003  0.0450
21542SOL    HW167164   8.374   3.032   3.336 -1.6120  1.6981 -0.3546
21542SOL    HW267165   8.511   3.079   3.381 -0.9382  0.8096 -1.4500
21543SOL     OW67166   3.545   0.637   7.029 -0.2007  0.0529 -0.4093
21543SOL    HW167167   3.638   0.648   7.050 -0.6142 -0.6926  1.9962
21543SOL    HW267168   3.534   0.543   7.016 -0.8059 -0.0048  0.4387
21544SOL     OW67169   1.675   1.116   6.382 -0.1131  0.3277  0.2001
21544SOL    HW167170   1.674   1.087   6.291  3.1865  0.4404  0.0406
21544SOL    HW267171   1.686   1.036   6.433  0.2589  0.4583  0.3313
21545SOL     OW67172   8.803   8.833   1.159 -0.1243 -0.5297 -0.2707
21545SOL    HW167173   8.876   8.772   1.151  2.0638  1.6423  2.2167
21545SOL    HW267174   8.762   8.811   1.242  1.3662  1.9929  1.2067
21546SOL     OW67175   6.627   6.940   9.617  0.1069  0.2064 -0.5153
21546SOL    HW167176   6.600   6.848   9.613  0.6085 -0.0041  0.6413
21546SOL    HW267177   6.544   6.988   9.620 -0.1614 -0.2348 -0.6664
21547SOL     OW67178   5.438   6.647   9.746  0.1990  0.2333  0.0981
21547SOL    HW167179   5.394   6.637   9.831 -1.1640  0.4070 -0.5739
21547SOL    HW267180   5.367   6.661   9.684  1.2037  0.2934 -1.0532
21548SOL     OW67181   6.062   6.754   1.997 -0.1664  0.1643  0.5559
21548SOL    HW167182   6.118   6.681   1.968 -1.1294 -1.2298  2.1295
21548SOL    HW267183   6.011   6.776   1.919  0.8928 -0.1215 -0.2382
21549SOL     OW67184   8.867   3.702   2.224  0.3124 -0.3151  0.2610
21549SOL    HW167185   8.824   3.660   2.149  0.3830 -1.4351  0.8262
21549SOL    HW267186   8.915   3.630   2.266 -1.6343 -0.2217  2.7523
21550SOL     OW67187   3.379   4.676   1.399  0.7299  0.1309 -0.1370
21550SOL    HW167188   3.332   4.596   1.420 -0.2597  0.8440  0.4438
21550SOL    HW267189   3.465   4.665   1.438  0.0969 -0.0315  1.2452
21551SOL     OW67190   6.905   3.927   9.642 -0.3942  0.0750  0.2682
21551SOL    HW167191   6.897   4.010   9.595 -1.1025 -0.3406 -0.3467
21551SOL    HW267192   6.815   3.900   9.659 -0.1502  0.7948  2.8928
21552SOL     OW67193   8.887   9.400   9.701 -0.0378  0.5142 -0.2482
21552SOL    HW167194   8.981   9.417   9.698 -0.3197  1.9002 -2.1550
21552SOL    HW267195   8.854   9.433   9.618 -2.4061  1.2696  0.9386
21553SOL     OW67196   9.647   7.499   3.368 -0.3666  1.1534 -0.2531
21553SOL    HW167197   9.659   7.577   3.314  1.4595 -0.4678 -2.3034
21553SOL    HW267198   9.589   7.443   3.317  0.5823  0.0045 -0.1058
21554SOL     OW67199   1.863   4.730   7.943 -0.2159  0.3343  0.4630
21554SOL    HW167200   1.878   4.639   7.918  0.9700 -0.2963  3.2611
21554SOL    HW267201   1.768   4.739   7.945 -0.3777  0.1065 -2.8721
21555SOL     OW67202   1.329   9.947  10.135  0.2490 -0.0164 -0.1714
21555SOL    HW167203   1.346   9.935  10.041 -0.3914  1.1784 -0.4622
21555SOL    HW267204   1.319   9.858  10.169  0.5292 -0.4678 -1.2313
21556SOL     OW67205   9.792   1.337   4.781 -0.3611 -0.0969  0.3628
21556SOL    HW167206   9.774   1.428   4.759 -0.7581 -0.4474 -0.8068
21556SOL    HW267207   9.841   1.341   4.863  0.3041  1.1963 -0.0976
21557SOL     OW67208   3.949   0.311   5.242 -0.0506 -0.3060  0.0211
21557SOL    HW167209   3.862   0.349   5.251 -0.2486 -0.9508  0.9986
21557SOL    HW267210   4.006   0.385   5.224 -0.7292  0.1839 -0.1323
21558SOL     OW67211   6.192   4.278   2.934  0.0859 -0.4978 -0.0375
21558SOL    HW167212   6.253   4.351   2.945 -0.9334  0.0173  2.5962
21558SOL    HW267213   6.109   4.320   2.909 -0.4240 -0.7796  1.1790
21559SOL     OW67214  10.183   6.333   0.994  0.0326 -0.2134 -0.2782
21559SOL    HW167215  10.248   6.324   0.925  0.6541  0.6551  0.1810
21559SOL    HW267216  10.099   6.331   0.949  0.3681 -1.5590 -0.8547
21560SOL     OW67217  10.085   6.211   9.869  0.0206 -0.2778 -0.4122
21560SOL    HW167218  10.180   6.198   9.866 -0.2967 -3.0020 -0.5303
21560SOL    HW267219  10.063   6.251   9.785  1.0285  0.1436 -0.4855
21561SOL     OW67220   0.992   2.577   0.102  0.2046  0.8464 -0.1318
21561SOL    HW167221   0.934   2.576   0.178  0.3779 -0.4911 -0.0187
21561SOL    HW267222   1.033   2.664   0.104  0.2917  0.7735  1.3606
21562SOL     OW67223   2.984   0.837   9.404 -0.2401 -0.4222  0.5947
21562SOL    HW167224   3.013   0.857   9.493 -2.1713  0.8039  0.9732
21562SOL    HW267225   2.987   0.922   9.358 -1.6898 -0.5667  0.2169
21563SOL     OW67226   2.935   9.042   7.132  0.0791 -0.7552 -0.0791
21563SOL    HW167227   2.996   8.969   7.120 -1.0138 -1.5953 -0.6670
21563SOL    HW267228   2.920   9.046   7.226 -1.9972 -3.1105 -0.2569
21564SOL     OW67229   5.250   7.817   5.648 -0.1804 -0.1721  0.0347
21564SOL    HW167230   5.245   7.893   5.707 -0.3029  0.5618 -0.9205
21564SOL    HW267231   5.160   7.787   5.639 -0.2055 -0.0666 -0.0642
21565SOL     OW67232   6.749   3.937   9.349  0.0610 -0.1768 -0.0188
21565SOL    HW167233   6.749   4.018   9.401  0.8429 -0.2207  0.0613
21565SOL    HW267234   6.841   3.923   9.327  0.0286 -1.4535  0.6077
21566SOL     OW67235   1.890   6.963   2.094  0.6951 -0.0192  0.3271
21566SOL    HW167236   1.795   6.971   2.089  0.6233 -1.2020 -0.2460
21566SOL    HW267237   1.922   7.036   2.040  0.0835 -0.9911 -1.3945
21567SOL     OW67238   1.305   6.071   5.266 -0.5500  0.0171  0.4536
21567SOL    HW167239   1.333   6.146   5.214  0.2279 -1.1420 -0.8339
21567SOL    HW267240   1.211   6.082   5.274 -0.1620  2.4352  2.3793
21568SOL     OW67241   9.963   6.372   3.788  0.2099 -0.1152  0.0364
21568SOL    HW167242   9.872   6.343   3.802 -0.1296  0.7309 -0.3981
21568SOL    HW267243   9.966   6.460   3.826  0.8972 -0.2027  0.1915
21569SOL     OW67244   1.259   6.364   9.827 -0.1779 -0.2361 -0.1818
21569SOL    HW167245   1.305   6.285   9.799 -2.1874 -0.6761 -2.3828
21569SOL    HW267246   1.202   6.334   9.898  0.4154 -0.3864  0.2314
21570SOL     OW67247   1.934   3.809   8.179 -0.2482 -0.2946  0.1379
21570SOL    HW167248   1.964   3.723   8.149  0.9591 -0.0112  0.4859
21570SOL    HW267249   1.839   3.805   8.173 -0.1416 -1.1547 -1.2193
21571SOL     OW67250   2.425   6.243   0.322  0.0114  0.4144 -0.6914
21571SOL    HW167251   2.330   6.251   0.322  0.0812  1.3985  0.6277
21571SOL    HW267252   2.442   6.149   0.336 -0.7607  0.5659  1.4666
21572SOL     OW67253   1.065   1.921   4.628 -0.5149  0.0843  0.2801
21572SOL    HW167254   1.105   1.837   4.652 -1.5927 -0.3887  0.4696
21572SOL    HW267255   1.112   1.986   4.680 -0.6366 -0.5710  1.2259
21573SOL     OW67256   9.056   3.938   5.763  0.9061  0.1292  0.0490
21573SOL    HW167257   9.052   3.848   5.730  3.6116  0.1914 -0.5586
21573SOL    HW267258   8.980   3.946   5.820 -0.6385 -1.8254 -1.6685
21574SOL     OW67259   7.509   5.476   3.106  0.2057 -0.4787  0.1873
21574SOL    HW167260   7.489   5.414   3.176  0.9755 -0.3737  0.5113
21574SOL    HW267261   7.452   5.451   3.033 -4.2595  2.3931  2.4309
21575SOL     OW67262   7.612   3.973   4.303  0.0658 -0.6029 -0.7207
21575SOL    HW167263   7.582   3.959   4.392  1.6727 -2.9542 -0.4953
21575SOL    HW267264   7.547   3.930   4.248 -1.1759  1.2496 -0.7608
21576SOL     OW67265   1.585   7.108   5.041 -0.6323 -0.4059  0.3379
21576SOL    HW167266   1.585   7.024   5.088 -2.3009 -0.2539  0.6570
21576SOL    HW267267   1.492   7.131   5.034 -0.2427  0.9190 -0.6488
21577SOL     OW67268   4.561   0.675   8.377  0.1180 -0.1299 -0.0408
21577SOL    HW167269   4.552   0.613   8.305  0.9111 -0.6755  0.3182
21577SOL    HW267270   4.615   0.745   8.342 -0.2939  0.0781 -0.2680
21578SOL     OW67271  10.183   3.259   3.376 -0.0417  0.3769  0.1929
21578SOL    HW167272  10.113   3.238   3.437  0.7299  2.6220  1.9334
21578SOL    HW267273  10.264   3.231   3.419  0.4200  0.9602 -0.2600
21579SOL     OW67274   0.333   4.624   8.353 -0.1732 -0.8955  0.0098
21579SOL    HW167275   0.240   4.600   8.356 -0.4297 -0.2053 -1.6659
21579SOL    HW267276   0.365   4.581   8.274  0.5010  0.3331 -0.3893
21580SOL     OW67277   7.078   3.788   6.182  0.6514 -0.3158 -0.0604
21580SOL    HW167278   6.985   3.812   6.177  0.2904 -1.3350  1.3723
21580SOL    HW267279   7.123   3.854   6.130 -0.6645  1.3738  0.9172
21581SOL     OW67280   9.494   8.705   0.055  0.0240 -0.2915  0.1404
21581SOL    HW167281   9.479   8.662  -0.029 -1.2124 -1.6927  1.0538
21581SOL    HW267282   9.585   8.684   0.077 -0.1732 -1.3471 -0.0467
21582SOL     OW67283   3.980   8.087   8.765  0.3404 -0.1821 -0.5899
21582SOL    HW167284   4.031   8.072   8.686 -0.7775  1.2834 -1.6123
21582SOL    HW267285   4.030   8.152   8.814  0.7407 -0.6679 -0.3392
21583SOL     OW67286   6.950   8.988   8.828  0.0328 -0.5444 -0.1220
21583SOL    HW167287   7.023   9.017   8.883  0.6568 -2.4394  0.0688
21583SOL    HW267288   6.872   9.008   8.880  0.3968  1.1488 -0.1676
21584SOL     OW67289   6.464   4.801   6.143 -0.0791 -0.0452  0.1524
21584SOL    HW167290   6.386   4.754   6.114 -1.1001  0.9629  1.2241
21584SOL    HW267291   6.502   4.837   6.063 -0.4390 -0.9310 -0.4281
21585SOL     OW67292   3.949   9.487   4.502  0.1492  0.0192 -0.0974
21585SOL    HW167293   4.032   9.471   4.546 -0.7761  2.0835  2.4780
21585SOL    HW267294   3.885   9.436   4.551 -0.5567  0.6378 -0.3592
21586SOL     OW67295   3.870   0.093   4.911  0.2679  0.2287  0.1187
21586SOL    HW167296   3.905   0.142   4.985 -0.8485  1.1209  0.0698
21586SOL    HW267297   3.809   0.153   4.868  2.3014  0.4222 -2.6722
21587SOL     OW67298   8.784   1.915   6.464  0.3826 -0.3064 -0.2391
21587SOL    HW167299   8.760   1.833   6.420 -0.6326  0.1839 -0.6077
21587SOL    HW267300   8.728   1.918   6.541 -0.0693  0.3694 -0.5899
21588SOL     OW67301   5.885   8.607   6.719 -0.6229  0.1878 -0.2442
21588SOL    HW167302   5.822   8.551   6.764  0.4986 -1.3719 -0.5696
21588SOL    HW267303   5.969   8.589   6.762 -0.4027  2.3798  0.3104
21589SOL     OW67304   4.369   6.388   7.424  0.7620  0.5316 -0.5786
21589SOL    HW167305   4.356   6.405   7.517  1.1150 -0.0155 -0.4264
21589SOL    HW267306   4.455   6.425   7.405  0.7953  0.4284 -0.6298
21590SOL     OW67307   3.414   0.853   0.052  0.3319 -0.1828  0.5195
21590SOL    HW167308   3.455   0.774   0.018 -0.0757  0.5158 -1.7005
21590SOL    HW267309   3.320   0.835   0.049  0.2731  0.0632  0.8216
21591SOL     OW67310   1.762   8.786   6.026  0.1794  0.1400 -0.4748
21591SOL    HW167311   1.801   8.740   6.101 -0.3034 -1.1144 -0.9872
21591SOL    HW267312   1.670   8.795   6.050  0.3796  1.3571 -0.1309
21592SOL     OW67313   8.709   9.752   6.419  0.0826  0.1162  0.2299
21592SOL    HW167314   8.693   9.828   6.364 -2.4264  0.4464  1.3382
21592SOL    HW267315   8.716   9.788   6.508 -1.1171 -0.9310  0.7631
21593SOL     OW67316   1.672   1.508   1.211  0.1021  0.1262  0.7814
21593SOL    HW167317   1.619   1.517   1.290 -0.5476  0.8058  0.2647
21593SOL    HW267318   1.612   1.473   1.145  0.0788  1.6482 -0.0234
21594SOL     OW67319   1.498   3.937   1.176 -0.3668 -0.1246 -0.2341
21594SOL    HW167320   1.516   3.873   1.246 -0.9516  1.8705  1.7798
21594SOL    HW267321   1.406   3.923   1.155 -0.5872  0.2732  0.4467
21595SOL     OW67322   4.676   6.364   7.595  0.2354 -0.0891 -0.0098
21595SOL    HW167323   4.759   6.316   7.599  0.1375 -0.3941 -1.3748
21595SOL    HW267324   4.611   6.300   7.623  0.1786 -0.5962 -1.2549
21596SOL     OW67325   9.808   7.963   3.675  0.0895 -0.1385  0.5909
21596SOL    HW167326   9.717   7.939   3.655  0.8150 -1.3923 -1.2828
21596SOL    HW267327   9.800   8.039   3.733 -2.1362  0.4148 -0.3934
21597SOL     OW67328   8.311   7.213   9.836  0.0060 -0.0618 -0.3883
21597SOL    HW167329   8.260   7.137   9.807  0.5628  0.2067 -2.1228
21597SOL    HW267330   8.274   7.287   9.787  0.2863  0.5794  0.3613
21598SOL     OW67331   9.465   0.117   5.193  0.2333 -0.6118 -0.4077
21598SOL    HW167332   9.498   0.204   5.214 -0.8602 -0.4601  0.7030
21598SOL    HW267333   9.474   0.111   5.098  0.2650  0.7334 -0.5025
21599SOL     OW67334   5.952   4.983   3.502  0.2080  0.4568  0.0207
21599SOL    HW167335   5.908   4.923   3.442 -0.7383  0.6671  0.4785
21599SOL    HW267336   5.994   5.047   3.446  2.4177 -1.4139 -0.5289
21600SOL     OW67337   8.204   8.124   5.142  0.8702 -0.3300  0.4583
21600SOL    HW167338   8.159   8.078   5.071 -0.2503  0.3287  0.7277
21600SOL    HW267339   8.224   8.056   5.206 -0.8520 -0.4462  0.9004
21601SOL     OW67340   2.682   6.332   8.341  0.1140  0.3023 -0.2119
21601SOL    HW167341   2.771   6.329   8.375  0.1701  0.2214 -0.3618
21601SOL    HW267342   2.686   6.278   8.262 -0.1507  0.0147 -0.0286
21602SOL     OW67343   4.323   6.629   4.719 -0.6899 -0.3289 -0.5585
21602SOL    HW167344   4.368   6.597   4.641 -2.5985 -0.6991 -1.5638
21602SOL    HW267345   4.291   6.550   4.762 -0.2777 -0.0811  0.1968
21603SOL     OW67346   6.429   0.398   4.596  0.2382 -0.9002  0.0459
21603SOL    HW167347   6.487   0.466   4.562  1.0450 -1.2924  0.6057
21603SOL    HW267348   6.482   0.318   4.596 -0.4767 -1.3821  0.0479
21604SOL     OW67349   3.867   1.179   2.503  0.1342  0.3325 -0.4785
21604SOL    HW167350   3.933   1.140   2.445  1.8920  2.0467  0.3085
21604SOL    HW267351   3.883   1.273   2.497 -0.8661  0.6375  1.3784
21605SOL     OW67352   6.007   2.703   4.814  0.0019  0.4240 -0.2808
21605SOL    HW167353   5.924   2.751   4.809 -1.3878 -1.6341  1.7524
21605SOL    HW267354   6.054   2.744   4.887  0.5155  1.1547 -1.0079
21606SOL     OW67355   7.974   4.874   5.635 -0.4097 -0.2825  1.1380
21606SOL    HW167356   7.903   4.866   5.571 -1.1816  1.2265  1.7698
21606SOL    HW267357   7.967   4.796   5.690 -0.3674 -1.0913  0.0097
21607SOL     OW67358   2.247   4.040   0.573 -0.1058 -0.0502  0.1070
21607SOL    HW167359   2.191   4.069   0.502 -1.2954 -0.6943  0.7602
21607SOL    HW267360   2.199   4.064   0.653 -0.2915 -2.1783  0.6704
21608SOL     OW67361   0.458   4.193   5.765  0.3317 -0.0089 -0.6751
21608SOL    HW167362   0.510   4.148   5.698  1.2857  0.1935 -0.0741
21608SOL    HW267363   0.498   4.169   5.848  1.8814  3.1941 -0.4218
21609SOL     OW67364   6.833   6.707   5.046 -1.0274 -0.6140 -0.4836
21609SOL    HW167365   6.867   6.684   5.133 -2.2514  2.4612  0.9027
21609SOL    HW267366   6.740   6.684   5.050 -0.9112 -1.2150 -1.2703
21610SOL     OW67367   4.049   8.122   7.649  0.7237  0.4476 -0.2002
21610SOL    HW167368   4.089   8.198   7.692  2.1864 -0.9190  0.9416
21610SOL    HW267369   3.982   8.091   7.711  0.1713  0.7864 -0.6347
21611SOL     OW67370   1.973   3.863   6.304  0.4069  0.1649  0.5724
21611SOL    HW167371   2.047   3.872   6.244  0.7840  0.7355  1.1212
21611SOL    HW267372   2.000   3.795   6.366 -0.2177 -0.8451 -0.2454
21612SOL     OW67373   7.539   5.874   7.835 -0.7631  0.1931  0.1630
21612SOL    HW167374   7.514   5.954   7.788  2.2543 -0.2664 -2.3891
21612SOL    HW267375   7.549   5.808   7.766  0.1284 -1.5116  1.8835
21613SOL     OW67376   5.356   2.822   5.881 -0.3083  0.1436 -0.1226
21613SOL    HW167377   5.271   2.778   5.877  0.0511 -0.6256  0.6700
21613SOL    HW267378   5.334   2.912   5.907 -1.1301  0.7605 -2.7836
21614SOL     OW67379   9.168   9.628   8.371 -0.4209 -0.4561 -0.3108
21614SOL    HW167380   9.226   9.560   8.338 -0.5272 -0.0185 -1.4350
21614SOL    HW267381   9.095   9.630   8.309 -0.8055  0.1263  0.1530
21615SOL     OW67382   1.862   3.437   8.691  0.0248  0.0608 -0.0551
21615SOL    HW167383   1.778   3.470   8.661 -0.8843 -1.9751  0.2214
21615SOL    HW267384   1.926   3.475   8.630 -1.2966 -0.0987 -1.5523
21616SOL     OW67385   0.086   7.193   2.799  0.3804 -0.2484  0.3232
21616SOL    HW167386   0.132   7.180   2.716  1.3784 -0.5631  0.9210
21616SOL    HW267387   0.016   7.127   2.797 -0.3002  0.4755 -0.7469
21617SOL     OW67388   0.583   2.299   0.311 -0.1170 -0.2438 -0.4437
21617SOL    HW167389   0.574   2.215   0.356  0.0978 -0.6016 -1.0529
21617SOL    HW267390   0.504   2.305   0.257  0.5433 -0.7317 -1.4871
21618SOL     OW67391   2.408   2.483   0.903  0.1757  0.0259  0.1607
21618SOL    HW167392   2.466   2.408   0.919 -1.3585 -1.1012  0.5504
21618SOL    HW267393   2.457   2.538   0.842  2.1917 -0.2645  1.4704
21619SOL     OW67394   8.181   8.419   2.703 -0.2100  0.1705  0.3014
21619SOL    HW167395   8.091   8.411   2.671 -0.2305  1.6338 -0.0508
21619SOL    HW267396   8.204   8.331   2.732 -1.2047 -0.5584 -1.0730
21620SOL     OW67397   2.443   1.428   4.516 -0.1451 -0.1188  0.1170
21620SOL    HW167398   2.436   1.524   4.514 -0.7270 -0.1759 -1.6541
21620SOL    HW267399   2.530   1.410   4.481  0.9463 -0.1758  2.7468
21621SOL     OW67400   8.747   4.331   4.411  0.5368 -0.1431 -0.5219
21621SOL    HW167401   8.826   4.378   4.437  0.2025 -0.4669  1.1186
21621SOL    HW267402   8.676   4.391   4.429  0.2744 -0.4992 -0.3666
21622SOL     OW67403   9.851   0.407   3.307 -0.1396  0.9496 -0.3702
21622SOL    HW167404   9.757   0.417   3.325 -0.0348  0.4807  0.4922
21622SOL    HW267405   9.855   0.368   3.220 -0.7820 -0.0396  0.0320
21623SOL     OW67406   2.285   2.863   5.939  0.3825  0.6205  0.2439
21623SOL    HW167407   2.351   2.905   5.885  1.5411  0.0106  1.1527
21623SOL    HW267408   2.203   2.876   5.892  1.5751 -1.2848 -2.4925
21624SOL     OW67409   1.030   2.261   3.930 -0.4521 -0.5666  0.4453
21624SOL    HW167410   1.051   2.283   4.021  0.1743  1.1397 -0.0832
21624SOL    HW267411   0.977   2.334   3.900 -1.3120 -1.5095 -0.3362
21625SOL     OW67412   3.426   6.546   6.995 -0.1783 -0.6524  0.1818
21625SOL    HW167413   3.347   6.538   6.942  0.1131  0.5077 -0.4521
21625SOL    HW267414   3.398   6.595   7.072 -0.2112 -0.7906  0.2577
21626SOL     OW67415   0.195  10.062   3.828 -0.6325  0.3600 -0.1151
21626SOL    HW167416   0.115  10.043   3.878  1.1806  0.4569  2.9377
21626SOL    HW267417   0.199  10.157   3.825 -0.8466  0.3516 -0.6184
21627SOL     OW67418  10.070   7.854   0.536 -0.1451 -0.2086  0.0777
21627SOL    HW167419  10.142   7.888   0.483 -0.5467  0.0572 -0.2966
21627SOL    HW267420   9.996   7.848   0.476 -0.8344  0.8865  0.7933
21628SOL     OW67421   6.667   5.769   3.254 -0.4545  0.1967  0.3584
21628SOL    HW167422   6.728   5.836   3.285  0.7156 -0.2460 -0.9591
21628SOL    HW267423   6.622   5.810   3.180  0.5229 -0.5887 -0.6811
21629SOL     OW67424   5.657   2.908   4.102  0.0840  0.3305 -0.4373
21629SOL    HW167425   5.701   2.906   4.187 -0.4244  1.9864 -0.1260
21629SOL    HW267426   5.706   2.845   4.048  1.4481  0.5001  0.5765
21630SOL     OW67427   6.668   6.074   4.564 -0.0649 -0.2624 -0.2264
21630SOL    HW167428   6.695   6.125   4.488  1.6364  1.2508  1.3242
21630SOL    HW267429   6.678   6.134   4.638 -1.3550 -1.7972  1.2440
21631SOL     OW67430   3.367   7.246   6.494  0.1879 -0.1776 -0.6736
21631SOL    HW167431   3.346   7.322   6.440 -0.4364 -0.0169 -0.2119
21631SOL    HW267432   3.431   7.197   6.442  1.3416  1.1527 -0.5574
21632SOL     OW67433   7.808   8.867   4.535 -0.2765 -0.2984  0.7337
21632SOL    HW167434   7.787   8.845   4.444  1.3696  3.6964 -0.6866
21632SOL    HW267435   7.746   8.936   4.558 -0.1752 -0.7454  2.4385
21633SOL     OW67436   2.231   2.988   5.607 -0.1044 -0.2463  0.4187
21633SOL    HW167437   2.138   2.984   5.630 -0.0072 -1.5553  0.6520
21633SOL    HW267438   2.244   2.915   5.547  0.8551 -0.3113  0.6892
21634SOL     OW67439  10.123   6.592   1.284  0.1446  0.5080 -0.7513
21634SOL    HW167440  10.060   6.618   1.217 -0.4453  0.2467 -0.3123
21634SOL    HW267441  10.190   6.543   1.237 -0.6037 -0.2346 -1.0627
21635SOL     OW67442   2.784   8.333   9.760  0.4559  0.1901  0.5284
21635SOL    HW167443   2.707   8.284   9.732  1.7709 -1.3529 -0.4326
21635SOL    HW267444   2.760   8.425   9.747 -1.3766 -0.2500  0.6781
21636SOL     OW67445   2.191   0.641   0.994  0.0302 -0.3374  0.4685
21636SOL    HW167446   2.175   0.735   0.993  0.5211 -0.2528 -0.2968
21636SOL    HW267447   2.109   0.602   1.024 -0.3835  0.2943  0.1532
21637SOL     OW67448   4.034   8.979   8.891  0.7261  0.4590 -0.4844
21637SOL    HW167449   3.991   8.901   8.926 -0.7084  1.4128 -0.0697
21637SOL    HW267450   4.121   8.978   8.929  0.1144 -0.0029  0.9261
21638SOL     OW67451   1.058   2.537   1.769 -0.3276  0.0226  0.0701
21638SOL    HW167452   1.117   2.464   1.751  0.8124  0.8493  0.3997
21638SOL    HW267453   1.116   2.612   1.780 -1.3671  0.6237  1.5920
21639SOL     OW67454   7.930   2.346   8.867  0.3667  0.2478  0.0156
21639SOL    HW167455   7.861   2.399   8.906  0.6388  1.6948 -1.3832
21639SOL    HW267456   7.939   2.271   8.925 -1.6243  0.5896  0.8015
21640SOL     OW67457   7.099   7.383   2.371  0.1047 -0.2148 -0.1588
21640SOL    HW167458   7.095   7.293   2.339  1.7018 -0.4438  0.2416
21640SOL    HW267459   7.189   7.393   2.401  0.2421  1.8543 -1.2085
21641SOL     OW67460   5.492   7.980   8.578 -0.3214 -0.3879  0.1447
21641SOL    HW167461   5.398   7.996   8.566 -0.0733  0.5887 -0.5073
21641SOL    HW267462   5.534   8.063   8.556  0.8944 -1.5799 -2.2223
21642SOL     OW67463   7.070   1.338   2.320 -0.5350  0.5884 -0.4670
21642SOL    HW167464   6.987   1.354   2.365 -0.1909  1.2671 -0.0758
21642SOL    HW267465   7.123   1.416   2.337 -0.6976  1.2217 -2.7321
21643SOL     OW67466   1.331   5.092   5.471 -0.2138 -0.0713 -0.2973
21643SOL    HW167467   1.257   5.083   5.411  0.0585  2.4341 -1.0414
21643SOL    HW267468   1.385   5.015   5.454 -0.3665  0.3671 -2.9725
21644SOL     OW67469   4.814   8.499   8.940  0.4043  0.4749 -0.4445
21644SOL    HW167470   4.767   8.578   8.967  3.6225  1.4137  2.8349
21644SOL    HW267471   4.865   8.527   8.864  0.8344  1.3059  0.1470
21645SOL     OW67472   2.969   6.343   0.048 -0.2589 -0.2886  0.6362
21645SOL    HW167473   3.034   6.411   0.028 -0.4845  0.0054  0.8974
21645SOL    HW267474   2.890   6.370   0.002  0.1584 -1.3090 -0.7261
21646SOL     OW67475   2.494   1.241   3.883 -0.0352  0.1008 -0.2590
21646SOL    HW167476   2.473   1.290   3.803  0.8524  4.3691  1.9815
21646SOL    HW267477   2.585   1.264   3.902 -0.1508 -1.0544  1.8053
21647SOL     OW67478  10.158   3.748   2.246  0.1730  0.4099 -0.7380
21647SOL    HW167479  10.101   3.671   2.233 -0.6718  0.9005  0.0187
21647SOL    HW267480  10.186   3.771   2.158 -0.6363  0.0290 -1.1062
21648SOL     OW67481   2.578   2.051   0.652  0.0197  0.0814 -0.5811
21648SOL    HW167482   2.655   2.063   0.706 -1.2239 -1.6072  1.6498
21648SOL    HW267483   2.506   2.086   0.704 -1.1044 -0.9784 -1.3777
21649SOL     OW67484   3.054   9.125   8.115  0.9835  0.3469  0.2573
21649SOL    HW167485   3.104   9.184   8.170 -1.5605  0.8112  2.1872
21649SOL    HW267486   3.023   9.180   8.042  0.5093  0.8578  0.8401
21650SOL     OW67487   3.264   7.967   5.003  0.3350  0.1526 -0.0118
21650SOL    HW167488   3.301   7.924   5.080  1.6586  2.5469  0.7183
21650SOL    HW267489   3.170   7.949   5.009  0.5843 -0.7316  1.4928
21651SOL     OW67490   4.708   8.250   8.889  0.0775 -0.5387  0.5624
21651SOL    HW167491   4.743   8.338   8.900 -1.3332  0.2670 -1.1929
21651SOL    HW267492   4.645   8.240   8.960  0.2967 -0.1958  0.8077
21652SOL     OW67493   9.868   9.767   5.637 -0.3947  0.1925 -0.3183
21652SOL    HW167494   9.953   9.730   5.660 -0.8846 -1.3925 -0.9836
21652SOL    HW267495   9.825   9.782   5.720  0.5021  0.9818  0.0268
21653SOL     OW67496   4.546   6.073   6.094 -0.0280  0.1155 -0.0457
21653SOL    HW167497   4.510   6.161   6.086  0.7382  0.3208 -1.2087
21653SOL    HW267498   4.503   6.023   6.024 -0.1298 -0.3348  0.3327
21654SOL     OW67499   7.351   1.651   2.734 -1.1465  0.7173 -0.5588
21654SOL    HW167500   7.314   1.694   2.811 -3.0015  1.0494 -1.6192
21654SOL    HW267501   7.357   1.558   2.759 -1.2241  0.9077  0.1735
21655SOL     OW67502   0.051   4.018   8.736 -0.0683  0.1731 -0.7783
21655SOL    HW167503   0.023   4.054   8.820  0.0160 -0.5603 -0.4259
21655SOL    HW267504   0.052   4.093   8.677 -1.7655  0.4064 -0.5478
21656SOL     OW67505   2.884   0.600   9.536 -0.0148 -0.3095 -0.0772
21656SOL    HW167506   2.891   0.693   9.513 -0.4212 -0.4637 -0.8312
21656SOL    HW267507   2.926   0.554   9.463  0.8770 -0.6895  0.6609
21657SOL     OW67508   9.317   1.446   8.710  0.1096  0.2879  1.0114
21657SOL    HW167509   9.385   1.381   8.726 -0.4881 -0.3677  0.9616
21657SOL    HW267510   9.252   1.430   8.779 -0.1468  0.6807  0.8654
21658SOL     OW67511   3.290   7.644   2.253  0.0495 -0.4938  0.0554
21658SOL    HW167512   3.355   7.574   2.261  0.7287  0.0054 -0.9036
21658SOL    HW267513   3.271   7.648   2.159 -0.1057  0.4849  0.1201
21659SOL     OW67514   2.095   3.708   4.580  0.5414  0.2065 -0.1589
21659SOL    HW167515   2.085   3.740   4.490 -0.1864 -0.5755 -0.3575
21659SOL    HW267516   2.088   3.613   4.572 -0.6266  0.2098  0.8844
21660SOL     OW67517   3.260   7.408   7.815 -0.9175  0.0535 -0.2230
21660SOL    HW167518   3.304   7.369   7.891 -1.8120 -0.9972 -0.2355
21660SOL    HW267519   3.313   7.484   7.793  2.3836 -2.6009 -1.8290
21661SOL     OW67520   3.123   1.504   8.855 -0.1010  0.1426  0.1327
21661SOL    HW167521   3.110   1.576   8.916 -1.5226 -1.9326  2.3937
21661SOL    HW267522   3.039   1.494   8.811  0.1934  0.0723 -0.4226
21662SOL     OW67523   2.164   9.180   4.447  0.2486 -0.2621  0.4259
21662SOL    HW167524   2.259   9.189   4.434 -0.2189  0.9993 -2.7150
21662SOL    HW267525   2.133   9.137   4.367 -2.0390  0.9445  0.6177
21663SOL     OW67526   8.564   7.296   2.002 -0.1055 -0.0541 -0.3029
21663SOL    HW167527   8.631   7.264   1.941  0.0496 -0.4679  0.0822
21663SOL    HW267528   8.509   7.220   2.019 -0.9638  0.4028 -0.9922
21664SOL     OW67529   0.919   5.746   3.126  0.3745  0.2921  0.1227
21664SOL    HW167530   1.014   5.752   3.112  0.4928  0.7586  1.0696
21664SOL    HW267531   0.893   5.835   3.150 -0.5345  0.4716 -1.4664
21665SOL     OW67532   6.634   1.041   1.566  0.0450 -0.1420 -0.7703
21665SOL    HW167533   6.693   1.012   1.635  1.8168 -2.0375 -3.0233
21665SOL    HW267534   6.554   1.067   1.612  1.5666 -0.3417  2.0618
21666SOL     OW67535   8.900   3.863   4.680 -0.6048 -0.6317  0.5083
21666SOL    HW167536   8.943   3.780   4.656  0.1241 -0.3792  0.9141
21666SOL    HW267537   8.973   3.920   4.706 -0.9297  0.6495 -1.2743
21667SOL     OW67538   9.024   6.426   3.524 -0.6025  0.5630  0.8859
21667SOL    HW167539   8.956   6.487   3.494 -1.1098  0.2155  1.3154
21667SOL    HW267540   8.988   6.339   3.507  0.3096  0.3800 -0.1304
21668SOL     OW67541   7.992   1.551   6.517 -0.4248  0.7005  0.3093
21668SOL    HW167542   7.900   1.549   6.540 -0.9622  0.8581 -1.6924
21668SOL    HW267543   7.993   1.581   6.426  1.6730  1.8734  0.6909
21669SOL     OW67544   7.825   0.152   5.123  0.3514  0.2333 -0.5766
21669SOL    HW167545   7.801   0.236   5.082  0.5589 -0.2496 -1.6986
21669SOL    HW267546   7.912   0.132   5.088  0.2236 -0.5404 -0.4614
21670SOL     OW67547   2.216   4.301   5.423  0.0713 -0.0713 -0.0346
21670SOL    HW167548   2.261   4.344   5.350 -0.8851  0.1780 -0.4933
21670SOL    HW267549   2.146   4.251   5.381 -1.8189  1.7478  0.8306
21671SOL     OW67550   2.858   9.182   1.145 -0.1122 -0.1265 -0.5421
21671SOL    HW167551   2.869   9.195   1.239 -0.1900 -1.1690 -0.3851
21671SOL    HW267552   2.943   9.205   1.108  0.0373 -0.0975 -0.1819
21672SOL     OW67553   2.816   1.892   1.849 -0.0221  0.3245 -0.3060
21672SOL    HW167554   2.889   1.889   1.911 -0.3752 -1.7374  0.0586
21672SOL    HW267555   2.785   1.982   1.853 -0.1747  0.1910  2.6679
21673SOL     OW67556   8.701   0.044   4.371 -0.2530  0.0860 -0.3555
21673SOL    HW167557   8.644   0.075   4.301  2.9578 -0.7323 -3.4835
21673SOL    HW267558   8.713  -0.049   4.353  0.5084 -0.1836  1.4124
21674SOL     OW67559   0.791   3.089   2.911  0.0862  0.0798 -0.2374
21674SOL    HW167560   0.833   3.155   2.855 -0.2880 -0.1167 -0.7623
21674SOL    HW267561   0.784   3.012   2.855 -1.4836  0.2907 -0.3508
21675SOL     OW67562   9.452   8.641   9.992  0.3872  0.1504 -0.4515
21675SOL    HW167563   9.374   8.585   9.995 -1.4339  2.5102 -1.4334
21675SOL    HW267564   9.500   8.611   9.915  0.4965 -1.4117  0.2262
21676SOL     OW67565   7.386   6.112   5.256 -0.2406  0.2244  0.0118
21676SOL    HW167566   7.345   6.144   5.176  1.9493 -0.1118 -1.2890
21676SOL    HW267567   7.462   6.062   5.226  0.1530 -0.5934  2.2676
21677SOL     OW67568   9.950   6.868   9.627 -1.0398 -0.1865 -0.0468
21677SOL    HW167569   9.916   6.911   9.705 -0.0909 -0.3247  0.4488
21677SOL    HW267570   9.873   6.831   9.584 -1.4546 -0.9476  1.3380
21678SOL     OW67571   7.383   5.026   6.138 -0.0971 -0.2721  0.2972
21678SOL    HW167572   7.405   5.119   6.148  1.3791 -0.4669 -0.9642
21678SOL    HW267573   7.464   4.980   6.159 -0.2705 -1.1907 -1.0310
21679SOL     OW67574   0.561   5.010   6.099 -0.6237 -0.1789  0.2269
21679SOL    HW167575   0.555   4.955   6.177 -0.3084  0.1534  0.4839
21679SOL    HW267576   0.635   4.973   6.050  0.0878  0.4956  0.7788
21680SOL     OW67577   1.274   0.248   8.702  0.7156  0.4799  0.3553
21680SOL    HW167578   1.361   0.254   8.742  0.7656 -0.1810  0.3460
21680SOL    HW267579   1.215   0.285   8.768  0.9005  0.1812  0.6863
21681SOL     OW67580   2.258   0.089   0.180  0.4188 -0.4453  0.3214
21681SOL    HW167581   2.238   0.128   0.095 -0.3148 -0.2570  0.5781
21681SOL    HW267582   2.277   0.163   0.238  0.5683 -0.5530  0.4127
21682SOL     OW67583   1.261   9.925   6.904 -0.1156 -0.1456 -0.0608
21682SOL    HW167584   1.315   9.846   6.906  0.6488  0.3919  0.8562
21682SOL    HW267585   1.182   9.898   6.856  0.8363 -1.0111 -1.2060
21683SOL     OW67586   1.377   4.960   8.527  0.2004  0.1271 -0.1755
21683SOL    HW167587   1.363   4.867   8.514  0.3365  0.1873 -0.7654
21683SOL    HW267588   1.472   4.971   8.527  0.1786  0.3359 -0.6225
21684SOL     OW67589   6.331   9.849   6.676 -0.2887 -0.2878 -0.2007
21684SOL    HW167590   6.318   9.778   6.613 -0.1616  0.5886 -1.2319
21684SOL    HW267591   6.341   9.927   6.622  2.2371  0.1435  0.8171
21685SOL     OW67592   7.650   7.336   0.850  0.5803 -0.0175  0.0519
21685SOL    HW167593   7.641   7.246   0.820  2.5019  0.1728 -1.1433
21685SOL    HW267594   7.722   7.334   0.913  0.3222  0.6083  0.3769
21686SOL     OW67595   7.536   7.554   9.487  0.2523 -0.2288 -0.2295
21686SOL    HW167596   7.462   7.509   9.527 -2.1108  0.2997 -3.7359
21686SOL    HW267597   7.553   7.628   9.545 -1.3818 -0.8989  1.1484
21687SOL     OW67598   2.146   6.209   7.687 -0.2274 -0.7652  0.2915
21687SOL    HW167599   2.203   6.210   7.610 -2.0908 -0.0118 -1.1308
21687SOL    HW267600   2.059   6.229   7.652 -1.0702 -0.1670  2.6351
21688SOL     OW67601   0.537   7.988   2.932  0.2873 -0.0107 -0.1061
21688SOL    HW167602   0.622   7.973   2.974 -1.0078  0.4171  2.7832
21688SOL    HW267603   0.550   8.066   2.879  1.8377 -0.2441 -0.1024
21689SOL     OW67604   0.186   2.196   5.121 -0.2539 -0.3891  0.1884
21689SOL    HW167605   0.113   2.141   5.149  0.0273  0.7257  3.3351
21689SOL    HW267606   0.144   2.277   5.091 -0.4222 -0.3438  0.5341
21690SOL     OW67607   8.418   9.281   6.248  0.2590  0.4549  0.1321
21690SOL    HW167608   8.412   9.186   6.255  1.7363  0.3937  0.8398
21690SOL    HW267609   8.366   9.303   6.171 -2.8563 -0.5672  1.8651
21691SOL     OW67610   1.481   1.003   7.013 -0.3724  0.4302 -0.1915
21691SOL    HW167611   1.563   1.001   7.062 -1.6549  0.6597  2.0568
21691SOL    HW267612   1.417   0.964   7.073 -2.6906  3.7669 -0.3363
21692SOL     OW67613   5.531   0.430   2.774 -0.0689  0.0880  0.1004
21692SOL    HW167614   5.534   0.420   2.869 -0.5967 -1.4754 -0.0337
21692SOL    HW267615   5.438   0.428   2.752 -0.0327  2.1397 -0.2869
21693SOL     OW67616   0.087   9.630   1.785 -0.4144  0.2154  0.5308
21693SOL    HW167617   0.168   9.673   1.810  0.6968 -1.8073  0.5091
21693SOL    HW267618   0.097   9.609   1.693 -1.0892  0.1998  0.4542
21694SOL     OW67619   1.885   8.491   4.591  0.4660 -0.0997 -0.2668
21694SOL    HW167620   1.824   8.473   4.662  0.1418  1.4312 -0.1372
21694SOL    HW267621   1.936   8.411   4.582 -0.1202 -0.6338  1.0649
21695SOL     OW67622   3.545   3.118   3.211  0.3025 -0.2967 -0.0399
21695SOL    HW167623   3.473   3.175   3.238 -0.6695 -0.8219 -1.4726
21695SOL    HW267624   3.621   3.153   3.257 -0.1679  2.4622 -1.2320
21696SOL     OW67625   2.108   9.741   9.207 -0.0558  0.2066 -0.4736
21696SOL    HW167626   2.059   9.790   9.273 -0.5578  1.1995 -1.5544
21696SOL    HW267627   2.078   9.777   9.124  0.8489 -0.7574 -1.2334
21697SOL     OW67628   8.596   5.433   0.349  0.2255 -0.7677 -0.1279
21697SOL    HW167629   8.661   5.417   0.281  0.2029  1.4865 -0.7101
21697SOL    HW267630   8.517   5.388   0.318  0.7206 -1.2350 -0.7213
21698SOL     OW67631   2.593   8.463   0.121  0.1754  0.6872  0.2257
21698SOL    HW167632   2.675   8.508   0.100  0.2252  0.7643  0.5799
21698SOL    HW267633   2.527   8.532   0.121 -0.1927  0.3737 -1.7236
21699SOL     OW67634   3.742   6.932   7.734 -0.4492  0.3301  0.1049
21699SOL    HW167635   3.776   6.907   7.820 -1.1723 -0.4271  0.1787
21699SOL    HW267636   3.671   6.869   7.717  0.4830 -0.2927 -1.5940
21700SOL     OW67637   3.657   5.751   5.425  0.0925  0.0037  0.0491
21700SOL    HW167638   3.604   5.798   5.490  0.1150  0.1206 -0.0177
21700SOL    HW267639   3.619   5.663   5.423 -0.0665  0.0725  0.0403
21701SOL     OW67640   2.150   5.570   1.998  0.0359  0.1487 -0.0690
21701SOL    HW167641   2.061   5.541   1.980  1.0438 -2.4226 -1.1200
21701SOL    HW267642   2.193   5.574   1.913  1.5183 -0.7172  0.6006
21702SOL     OW67643   0.974   5.579   2.751  0.3724 -0.2295  0.5801
21702SOL    HW167644   0.938   5.490   2.748  2.0337 -0.9458  1.3356
21702SOL    HW267645   1.021   5.589   2.668 -0.6637  0.3395  0.0419
21703SOL     OW67646   4.205   6.201   9.902  0.0347  0.8241  0.4923
21703SOL    HW167647   4.278   6.150   9.865 -0.2828  0.0551  0.9159
21703SOL    HW267648   4.139   6.202   9.833 -0.7836 -1.0877  1.2177
21704SOL     OW67649   7.048   7.331   8.670  0.1229 -0.1426 -0.0619
21704SOL    HW167650   6.974   7.334   8.730 -0.2535 -1.7551 -0.4270
21704SOL    HW267651   7.032   7.402   8.608 -0.9599 -0.2978  0.0357
21705SOL     OW67652   9.108   3.825   8.371  0.2264  0.4890 -0.1664
21705SOL    HW167653   9.093   3.752   8.430 -0.6404  0.0716 -0.9002
21705SOL    HW267654   9.028   3.877   8.375  0.8338  1.4131  0.3513
21706SOL     OW67655   6.219   8.319   4.749 -0.0674  0.5779  0.0481
21706SOL    HW167656   6.247   8.298   4.660 -2.0392 -0.2585 -0.4115
21706SOL    HW267657   6.195   8.412   4.745  0.5697  0.7379 -0.0899
21707SOL     OW67658   7.659   0.730   0.856 -0.1213 -0.1311  0.1298
21707SOL    HW167659   7.736   0.784   0.837 -0.0379  0.0352  0.9064
21707SOL    HW267660   7.635   0.692   0.772  0.1363  0.7085 -0.3307
21708SOL     OW67661  10.203   2.992   8.191 -0.2636  0.1858 -0.5625
21708SOL    HW167662  10.164   3.079   8.183 -2.0047 -0.6101 -0.8887
21708SOL    HW267663  10.266   2.987   8.119 -1.3824  0.5627 -1.5839
21709SOL     OW67664   0.719   7.271   8.088  0.1447 -0.5665  0.8360
21709SOL    HW167665   0.718   7.183   8.052  1.9695 -0.6291  0.8902
21709SOL    HW267666   0.700   7.259   8.181 -0.4734 -0.8163  0.6779
21710SOL     OW67667   8.019   8.355   6.222 -0.5054 -0.2461  0.5673
21710SOL    HW167668   8.028   8.402   6.305 -1.4986  0.4000  0.3137
21710SOL    HW267669   8.109   8.337   6.195 -0.1847 -0.9248  2.0429
21711SOL     OW67670   9.694   2.310   5.146 -0.4020 -0.2723 -0.0939
21711SOL    HW167671   9.673   2.396   5.111 -1.1505 -0.3128  0.2390
21711SOL    HW267672   9.790   2.304   5.141 -0.1662  1.3813  1.7394
21712SOL     OW67673   9.359   8.459   9.547  0.2925  0.2868  0.1306
21712SOL    HW167674   9.278   8.414   9.569  0.2928 -0.0008 -0.4448
21712SOL    HW267675   9.334   8.551   9.543  0.2008  0.3028  0.8848
21713SOL     OW67676   8.018   1.787   8.232 -0.0834  0.0487  0.1528
21713SOL    HW167677   7.943   1.846   8.225 -0.4212 -0.3803  0.2033
21713SOL    HW267678   8.075   1.813   8.160 -0.2107  0.4696  0.2011
21714SOL     OW67679   5.051   7.358   6.971  0.0849  0.2423 -0.2307
21714SOL    HW167680   5.079   7.411   6.896  0.2612 -1.4550 -1.3976
21714SOL    HW267681   4.992   7.415   7.020  1.0776  1.8695 -0.8803
21715SOL     OW67682   9.139   3.799   2.730  0.1983 -0.7484  0.0525
21715SOL    HW167683   9.179   3.862   2.790 -1.7479  0.0969  0.4695
21715SOL    HW267684   9.143   3.842   2.645  0.4806 -0.8037  0.0377
21716SOL     OW67685   6.563   8.002   9.950  0.2604  0.1834  0.0546
21716SOL    HW167686   6.567   7.915   9.991  1.5086 -0.4587 -1.3764
21716SOL    HW267687   6.470   8.018   9.938  0.0341 -1.2999 -0.3370
21717SOL     OW67688   1.625   2.186   5.281 -0.3578 -0.6770 -1.0688
21717SOL    HW167689   1.611   2.129   5.206 -0.9957 -2.1719  0.1419
21717SOL    HW267690   1.657   2.127   5.350 -0.6386  0.4972  0.0905
21718SOL     OW67691   1.887  10.160   6.006  0.2640  0.6053  0.5653
21718SOL    HW167692   1.860  10.074   5.973  0.4488  0.9899 -0.6173
21718SOL    HW267693   1.901  10.213   5.927  0.6685  1.5659  1.2667
21719SOL     OW67694   2.930  10.030   6.873 -0.1867 -0.9035 -0.3020
21719SOL    HW167695   3.024  10.041   6.860 -0.2777 -1.9201 -1.9678
21719SOL    HW267696   2.922   9.954   6.932  0.0429 -0.1361  0.7418
21720SOL     OW67697   7.927   9.285   9.502  0.4919 -0.1256  0.2022
21720SOL    HW167698   7.860   9.324   9.446 -0.6823 -2.4350 -0.0455
21720SOL    HW267699   7.907   9.320   9.590 -0.3973  0.0200 -0.0489
21721SOL     OW67700   8.942   7.015   4.878 -0.4881  0.0508  0.5552
21721SOL    HW167701   8.895   6.933   4.867 -0.8742  0.3096  0.2805
21721SOL    HW267702   8.896   7.060   4.948 -1.5687  0.9698 -0.7378
21722SOL     OW67703   8.495   3.457   8.570  0.1675 -0.0955  0.8623
21722SOL    HW167704   8.453   3.518   8.630 -0.2920 -0.1254  0.5725
21722SOL    HW267705   8.436   3.452   8.495  0.9969  0.3594  0.1659
21723SOL     OW67706   5.106   6.120   8.546 -0.1931 -0.3670  0.7001
21723SOL    HW167707   5.195   6.155   8.558  0.7323 -1.9453 -1.4791
21723SOL    HW267708   5.059   6.190   8.500  0.1260  0.1595  1.1616
21724SOL     OW67709   7.529   7.949   1.060  0.5195 -0.2503 -0.2334
21724SOL    HW167710   7.605   7.995   1.026  0.6893 -0.6575 -0.4085
21724SOL    HW267711   7.457   8.013   1.055  1.4318  1.0581  2.5128
21725SOL     OW67712   3.902   1.614   3.998  0.2491 -0.3847  0.1705
21725SOL    HW167713   3.845   1.548   3.958 -0.0963 -0.3492  0.6061
21725SOL    HW267714   3.929   1.669   3.924 -1.6769  0.6412  0.1964
21726SOL     OW67715   6.119   9.266   4.069  0.0720  0.0612 -0.3104
21726SOL    HW167716   6.182   9.315   4.016  0.2529  0.0952 -0.0671
21726SOL    HW267717   6.173   9.222   4.135 -0.1353 -0.1012 -0.2493
21727SOL     OW67718   0.512   5.357   2.273  0.1782  0.1171 -0.4217
21727SOL    HW167719   0.561   5.305   2.209 -2.1446 -1.0964 -1.2691
21727SOL    HW267720   0.447   5.297   2.309  0.0491  1.3718  1.5362
21728SOL     OW67721   4.185   0.006   7.052  0.5115  0.5109 -0.0202
21728SOL    HW167722   4.200   0.058   6.973  0.7382 -0.4401 -0.6154
21728SOL    HW267723   4.251   0.036   7.114  2.6633 -1.1852 -1.4083
21729SOL     OW67724   9.042   5.988   9.613  0.7513 -0.4267 -0.5765
21729SOL    HW167725   9.128   5.949   9.596  0.5223 -1.0366 -0.3387
21729SOL    HW267726   8.997   5.986   9.529  1.0725  0.1487 -0.7659
21730SOL     OW67727   6.288   8.415   3.649 -0.1231 -0.0626  0.0688
21730SOL    HW167728   6.253   8.498   3.616 -0.5873 -0.4935 -0.5441
21730SOL    HW267729   6.227   8.390   3.719  1.5058  1.4324  2.1039
21731SOL     OW67730   1.142   6.018   6.846  0.2927 -0.1979  0.1114
21731SOL    HW167731   1.064   6.011   6.901  1.0191  0.7335  1.2990
21731SOL    HW267732   1.207   6.061   6.902  0.9206  1.2062 -1.6203
21732SOL     OW67733   8.585   4.440   1.004 -0.2107  0.1051 -0.1107
21732SOL    HW167734   8.501   4.394   1.002 -0.5650  0.7864 -0.7547
21732SOL    HW267735   8.646   4.382   0.958 -0.5551  0.0621 -0.5116
21733SOL     OW67736   6.573   2.591   4.463  0.4000 -0.4000 -0.4662
21733SOL    HW167737   6.595   2.621   4.551 -1.0009  0.4556 -0.3940
21733SOL    HW267738   6.491   2.542   4.474  0.2595 -0.3466 -1.2771
21734SOL     OW67739   6.096   6.627   5.232 -0.4546  0.5848 -0.2960
21734SOL    HW167740   6.116   6.668   5.147 -0.4901  0.9145 -0.1456
21734SOL    HW267741   6.181   6.615   5.273 -0.2058 -1.8718 -1.4264
21735SOL     OW67742   3.453   0.853   9.681 -0.0052 -0.5092  0.4610
21735SOL    HW167743   3.524   0.858   9.617 -0.4970  0.0598 -0.0412
21735SOL    HW267744   3.484   0.790   9.746  0.6415 -0.8303 -0.1525
21736SOL     OW67745   1.232   7.892   8.700 -0.6481 -0.1931  0.3252
21736SOL    HW167746   1.143   7.906   8.667 -0.5087 -0.5008 -0.2008
21736SOL    HW267747   1.228   7.809   8.747 -0.1067 -1.4409 -1.7597
21737SOL     OW67748   0.299   3.144   8.603 -0.2976  1.1856  0.1140
21737SOL    HW167749   0.340   3.097   8.530  0.3099  2.0900 -0.1335
21737SOL    HW267750   0.207   3.152   8.578 -0.4449 -0.0466  0.2516
21738SOL     OW67751   8.896   7.111   8.930 -0.0435  0.1666 -0.4423
21738SOL    HW167752   8.926   7.179   8.990 -0.7466  1.5834 -1.6781
21738SOL    HW267753   8.941   7.032   8.959  1.2746  1.2813  0.6108
21739SOL     OW67754   9.626   0.867   4.189  0.2125 -0.0224  0.3945
21739SOL    HW167755   9.666   0.793   4.234 -0.5253 -1.2088 -0.8842
21739SOL    HW267756   9.657   0.861   4.099 -0.8650  0.4816 -0.0223
21740SOL     OW67757   4.602   0.539   2.778  0.3113 -0.4643  0.1625
21740SOL    HW167758   4.634   0.626   2.755 -0.9003  0.0308  0.3155
21740SOL    HW267759   4.623   0.529   2.871 -0.0040 -0.1206  0.2736
21741SOL     OW67760   0.215   0.296   7.248 -0.6086  0.0008 -0.2705
21741SOL    HW167761   0.127   0.266   7.272  0.0774 -0.9448  1.1348
21741SOL    HW267762   0.237   0.245   7.170 -1.0212 -0.3109 -0.1841
21742SOL     OW67763   6.706   6.086   5.427  0.1411 -0.4934  0.5005
21742SOL    HW167764   6.718   6.010   5.484 -2.6129 -0.7534  0.8020
21742SOL    HW267765   6.715   6.161   5.487 -2.0346 -0.7440  1.1648
21743SOL     OW67766   7.368  10.129   2.618 -0.2208  0.2031 -0.4272
21743SOL    HW167767   7.274  10.114   2.617 -0.5364  2.0286  0.2498
21743SOL    HW267768   7.405  10.048   2.582 -1.9901 -0.8246 -0.0253
21744SOL     OW67769   0.659   7.897   9.699 -0.2785 -0.5560 -0.3888
21744SOL    HW167770   0.679   7.855   9.782  0.7746  1.4894  0.4185
21744SOL    HW267771   0.744   7.923   9.664 -0.8941  0.7892 -0.9213
21745SOL     OW67772   3.509   7.403   5.914  0.2711 -1.0693 -0.1023
21745SOL    HW167773   3.480   7.492   5.935 -0.7179 -1.2405 -0.6916
21745SOL    HW267774   3.564   7.378   5.988 -0.5867 -0.4845  0.7528
21746SOL     OW67775   3.621   6.877   4.068  0.3517  0.2053 -0.1233
21746SOL    HW167776   3.565   6.802   4.047  2.7271 -1.7018  0.0373
21746SOL    HW267777   3.645   6.913   3.982  0.0936  0.0934 -0.2435
21747SOL     OW67778   8.521   2.284   9.340  0.2078  0.3961 -0.6766
21747SOL    HW167779   8.509   2.327   9.424  1.3522  1.8453 -1.2389
21747SOL    HW267780   8.615   2.292   9.322 -0.0825  0.4234 -2.2584
21748SOL     OW67781   6.413   3.721   1.907 -0.0515  0.0603  0.1470
21748SOL    HW167782   6.322   3.743   1.924 -0.8816 -1.4602 -2.1689
21748SOL    HW267783   6.459   3.805   1.906 -1.2539  0.7771  2.0958
21749SOL     OW67784   8.278   2.669   7.244 -0.1840  0.8778  0.5608
21749SOL    HW167785   8.343   2.736   7.266  0.6649  0.8652 -1.8574
21749SOL    HW267786   8.224   2.709   7.176 -0.7221 -0.2903  0.2929
21750SOL     OW67787   6.699   8.917   2.733 -0.3902 -0.0588  0.2273
21750SOL    HW167788   6.622   8.924   2.676  0.8473  1.4699 -1.3029
21750SOL    HW267789   6.681   8.977   2.805 -0.5058  0.5037 -0.2671
21751SOL     OW67790   0.087   2.666   4.005  0.1021 -0.1024  0.0552
21751SOL    HW167791   0.060   2.595   4.063 -1.7848 -1.4987 -2.4550
21751SOL    HW267792   0.028   2.738   4.025 -0.7170 -0.6701 -0.3074
21752SOL     OW67793   0.402   5.217   1.472 -0.0355 -0.5096  0.0943
21752SOL    HW167794   0.457   5.285   1.510 -0.5844 -0.8534  1.5435
21752SOL    HW267795   0.400   5.237   1.379 -0.1945  1.4653  0.4964
21753SOL     OW67796   9.843   0.607   4.573 -0.4842  0.4313  0.3420
21753SOL    HW167797   9.753   0.615   4.541 -0.3310 -0.1751 -0.2591
21753SOL    HW267798   9.859   0.688   4.622 -0.3340  1.8883 -2.0744
21754SOL     OW67799   7.606   0.692   5.607 -0.0117  0.1145  0.2875
21754SOL    HW167800   7.530   0.704   5.664 -2.0460 -1.9324 -1.8705
21754SOL    HW267801   7.569   0.662   5.524  3.0046  1.2662 -1.5584
21755SOL     OW67802   1.886   3.894   2.269 -0.3604 -0.1410  0.3503
21755SOL    HW167803   1.864   3.987   2.264 -1.3464 -0.3780  0.2013
21755SOL    HW267804   1.852   3.866   2.354 -1.4297 -0.7105 -0.2544
21756SOL     OW67805   3.223   8.578   8.424  0.0629  0.1265  0.0260
21756SOL    HW167806   3.222   8.607   8.333  1.7096  0.4905  0.1159
21756SOL    HW267807   3.166   8.640   8.470  0.3352  0.7728 -0.5122
21757SOL     OW67808   2.847   2.852   2.237 -0.3150 -0.3889 -0.6833
21757SOL    HW167809   2.779   2.913   2.268 -0.0285 -0.1320 -0.5618
21757SOL    HW267810   2.876   2.890   2.154 -1.4052 -1.3174 -1.5109
21758SOL     OW67811   3.316   5.914   9.960  0.2207 -0.2512  0.5273
21758SOL    HW167812   3.388   5.947  10.013  0.6735  0.6593 -0.6202
21758SOL    HW267813   3.311   5.821   9.981  2.2226 -0.4926  0.0764
21759SOL     OW67814   2.619   8.968   0.198  0.0559 -0.1963 -0.1555
21759SOL    HW167815   2.527   8.991   0.207 -0.1578 -0.8772 -0.5664
21759SOL    HW267816   2.623   8.916   0.118  0.5010 -1.6430  0.7796
21760SOL     OW67817   6.660   1.168   6.349  0.0573  0.0706  0.0430
21760SOL    HW167818   6.701   1.082   6.352  1.6049  0.8424  1.7739
21760SOL    HW267819   6.631   1.184   6.438  1.4533  2.1323  0.1549
21761SOL     OW67820   9.627  10.101   2.658  0.0954  0.2152 -0.4599
21761SOL    HW167821   9.702  10.145   2.619  0.5406 -0.5534 -0.4880
21761SOL    HW267822   9.653  10.009   2.663 -0.1639  0.2174  1.1428
21762SOL     OW67823   5.575   6.098   1.709  0.1584  0.5378  0.2227
21762SOL    HW167824   5.604   6.046   1.633  0.7500  0.0140  0.8010
21762SOL    HW267825   5.650   6.154   1.729  0.0760  0.5353  0.5357
21763SOL     OW67826   3.717   5.894   8.879  0.2682 -0.0843  0.0408
21763SOL    HW167827   3.757   5.875   8.794  1.7907 -0.1301  0.7358
21763SOL    HW267828   3.784   5.945   8.926 -0.5542 -0.0470  1.2011
21764SOL     OW67829   1.603   8.161   9.461  0.2794 -0.0581 -0.0154
21764SOL    HW167830   1.546   8.120   9.526  1.4960 -0.3879  0.8774
21764SOL    HW267831   1.567   8.136   9.377 -1.7585  0.9723  0.5168
21765SOL     OW67832   1.695   3.375   9.294  0.1126 -0.9182 -0.5423
21765SOL    HW167833   1.705   3.460   9.250  0.8056 -0.3258  0.7264
21765SOL    HW267834   1.754   3.317   9.245  0.7901 -0.2983 -0.4758
21766SOL     OW67835   7.906   9.039   3.960 -0.5968 -0.0797  0.5623
21766SOL    HW167836   7.945   9.125   3.947 -0.5263 -0.2210 -0.2164
21766SOL    HW267837   7.849   9.049   4.036  1.6131 -0.1140  2.2678
21767SOL     OW67838   0.034   0.713   8.173 -0.5917  0.4979  0.1685
21767SOL    HW167839  -0.059   0.689   8.170 -0.9113  1.8380 -1.4076
21767SOL    HW267840   0.036   0.793   8.225 -0.0216 -0.7203  2.0677
21768SOL     OW67841  10.192   1.416   5.512  0.4160 -0.1165  0.2378
21768SOL    HW167842  10.154   1.433   5.598  0.8779 -0.8179  0.5918
21768SOL    HW267843  10.120   1.379   5.461  0.2383 -0.0485  0.4397
21769SOL     OW67844   1.845   2.332   1.352  0.7113  0.0424  0.2507
21769SOL    HW167845   1.843   2.237   1.360  0.4360  0.1634  1.8549
21769SOL    HW267846   1.754   2.357   1.339  0.3156  0.2858  3.0042
21770SOL     OW67847   6.755   8.850   6.657 -0.2739  0.3531  0.7372
21770SOL    HW167848   6.704   8.880   6.733 -0.6843  2.3663 -0.3036
21770SOL    HW267849   6.778   8.760   6.678 -1.9646  0.2906  2.4377
21771SOL     OW67850   5.572   4.051   9.773  0.0617 -0.2819  0.1356
21771SOL    HW167851   5.583   3.993   9.848  0.8900  0.8828  0.9222
21771SOL    HW267852   5.512   4.004   9.715  1.9585 -2.6434  0.0219
21772SOL     OW67853   5.101   8.774   6.376 -0.1635  0.1037  0.1212
21772SOL    HW167854   5.092   8.726   6.458 -0.3644 -1.1896 -0.6381
21772SOL    HW267855   5.011   8.794   6.350 -0.1268  0.1304  0.0130
21773SOL     OW67856   9.249   5.826   7.479 -0.0232 -0.7116 -0.2333
21773SOL    HW167857   9.195   5.904   7.472  0.3663 -0.4411 -0.2197
21773SOL    HW267858   9.301   5.839   7.558 -0.2771 -1.1830  0.0128
21774SOL     OW67859   2.779   0.916   8.966  0.0725 -0.0521 -0.0851
21774SOL    HW167860   2.866   0.926   8.927  0.0485 -1.7209 -0.6118
21774SOL    HW267861   2.796   0.873   9.050 -0.1489  0.6274  0.3062
21775SOL     OW67862   8.834   3.553   0.148 -0.1254 -0.6907  0.0775
21775SOL    HW167863   8.748   3.532   0.111  0.2048 -0.0446 -1.0691
21775SOL    HW267864   8.894   3.494   0.103  0.0710 -0.9931  0.7249
21776SOL     OW67865   9.642   7.679   1.501 -0.0014  0.5840  0.1098
21776SOL    HW167866   9.605   7.749   1.554  0.1027  0.6667  0.0751
21776SOL    HW267867   9.604   7.691   1.414 -1.4857 -0.5709  0.5776
21777SOL     OW67868   2.550   9.841   7.808  0.2132  0.2148 -0.0794
21777SOL    HW167869   2.470   9.870   7.764  0.7164  0.8233 -0.5924
21777SOL    HW267870   2.570   9.757   7.768  0.0766  0.2660 -0.2583
21778SOL     OW67871   5.894   7.184   2.971 -0.2044 -0.0132 -0.2296
21778SOL    HW167872   5.947   7.218   3.043 -0.2891 -0.3809  0.0012
21778SOL    HW267873   5.956   7.177   2.897  0.3016 -1.3938  0.3087
21779SOL     OW67874   0.228   3.289   9.151 -0.2809 -0.2504  0.8879
21779SOL    HW167875   0.213   3.241   9.070 -1.9487 -0.2252  1.1691
21779SOL    HW267876   0.176   3.370   9.141  1.3450  0.8309  1.0196
21780SOL     OW67877   1.896   4.993   0.037 -0.1576 -0.0075 -0.4155
21780SOL    HW167878   1.832   4.999   0.108  0.0755  2.0537 -0.3418
21780SOL    HW267879   1.941   4.910   0.052 -1.3704 -0.4647  0.7666
21781SOL     OW67880   1.627   2.188   6.858 -0.5049  0.4713  0.3820
21781SOL    HW167881   1.664   2.225   6.778 -1.1716  1.6482  0.6139
21781SOL    HW267882   1.688   2.119   6.883  0.5946  1.2157 -0.2285
21782SOL     OW67883   0.129   2.164   1.921  0.8338 -0.5737  0.0038
21782SOL    HW167884   0.211   2.198   1.885 -0.4401  1.5084 -1.0902
21782SOL    HW267885   0.129   2.072   1.897  3.1841 -0.7676  0.6634
21783SOL     OW67886   7.688   1.806   3.184 -0.0375  0.6488 -0.0729
21783SOL    HW167887   7.647   1.860   3.117 -0.6536  0.6473  0.2971
21783SOL    HW267888   7.782   1.813   3.167 -0.1721  0.9374 -0.7076
21784SOL     OW67889   8.313   9.169   1.248 -0.0709 -0.3408 -0.2235
21784SOL    HW167890   8.344   9.254   1.279 -0.4935 -0.3347  0.2008
21784SOL    HW267891   8.259   9.136   1.320 -1.3930 -0.1440 -1.1153
21785SOL     OW67892   5.259   7.306   7.199  0.7008  0.2902 -0.1449
21785SOL    HW167893   5.167   7.299   7.224  0.4426  0.6908 -0.9554
21785SOL    HW267894   5.286   7.216   7.181  0.5476  0.1415  0.3646
21786SOL     OW67895   9.721   6.478   0.388  0.1135  0.1591  0.0262
21786SOL    HW167896   9.791   6.412   0.386  0.9892  1.0755 -0.0145
21786SOL    HW267897   9.766   6.561   0.371 -0.9470  0.8004  0.3077
21787SOL     OW67898   1.152   1.443   1.963 -0.1796 -0.2251  0.5429
21787SOL    HW167899   1.126   1.467   1.875  0.5732 -0.3717  0.2718
21787SOL    HW267900   1.071   1.417   2.006 -0.2300 -2.6123 -0.8935
21788SOL     OW67901   9.941   9.782   6.077  0.3440  0.0775 -0.9737
21788SOL    HW167902   9.985   9.697   6.067  1.1413  0.3705 -0.0443
21788SOL    HW267903   9.876   9.767   6.147  1.1952  0.4988 -0.0844
21789SOL     OW67904   3.356   0.643   5.109 -0.4390 -0.0198  0.2803
21789SOL    HW167905   3.363   0.551   5.133  0.7307 -0.1221 -0.4139
21789SOL    HW267906   3.298   0.644   5.033 -0.4610 -0.1890  0.2949
21790SOL     OW67907   9.841   6.331   1.615 -0.3574  0.4566 -0.3720
21790SOL    HW167908   9.900   6.330   1.691 -0.8772 -0.2691  0.0238
21790SOL    HW267909   9.864   6.412   1.569  0.2262  0.7140  0.3511
21791SOL     OW67910   0.159   0.981   1.666 -0.2252 -0.0721  0.3567
21791SOL    HW167911   0.236   0.961   1.719  0.5735  0.2310 -0.6748
21791SOL    HW267912   0.136   1.071   1.689 -0.5189 -0.3023  0.9662
21792SOL     OW67913   7.479   9.965   9.061  0.0932  0.4736 -0.8738
21792SOL    HW167914   7.454   9.872   9.063 -0.2263  0.5856  0.1657
21792SOL    HW267915   7.573   9.963   9.045 -0.0993 -0.0040 -2.0058
21793SOL     OW67916   0.508   7.466   9.015 -0.0544  0.5245  0.2173
21793SOL    HW167917   0.602   7.455   9.030  0.0779  0.0709 -0.8925
21793SOL    HW267918   0.502   7.529   8.943 -0.6646  2.2161  1.7143
21794SOL     OW67919   8.067   0.911   8.255 -0.7094  0.2622  0.4645
21794SOL    HW167920   8.158   0.933   8.275  0.1970 -3.0803  0.3871
21794SOL    HW267921   8.015   0.977   8.302  1.7321  2.1453  0.6002
21795SOL     OW67922   2.883   2.604   0.747  0.4569  0.4132  0.5634
21795SOL    HW167923   2.909   2.589   0.838  0.0430 -0.4318  0.5495
21795SOL    HW267924   2.823   2.531   0.727  1.6042 -0.1862 -0.8174
21796SOL     OW67925   5.680   3.522   5.091 -0.0242 -0.2257  0.7801
21796SOL    HW167926   5.594   3.489   5.065 -0.5379  0.3495  1.6977
21796SOL    HW267927   5.729   3.444   5.117  0.1920 -0.7066 -0.9904
21797SOL     OW67928   5.943   3.746   9.886 -0.1730  0.3544 -0.3511
21797SOL    HW167929   5.875   3.716   9.946 -0.5597  0.5238 -0.6985
21797SOL    HW267930   5.900   3.816   9.836 -0.0238 -0.1632 -1.2046
21798SOL     OW67931   2.722   4.212   1.239  0.0198  0.1871  0.4894
21798SOL    HW167932   2.768   4.144   1.287 -2.5453 -1.0393  1.3178
21798SOL    HW267933   2.658   4.166   1.186 -0.5304  1.8352 -0.3300
21799SOL     OW67934   2.283   0.163   1.698 -0.3689  0.5567  0.0643
21799SOL    HW167935   2.361   0.209   1.667  0.1396 -0.1848  0.2194
21799SOL    HW267936   2.277   0.185   1.791  0.4496 -0.4999  0.3648
21800SOL     OW67937   8.877   8.393   3.453  0.3917  0.0549 -0.3964
21800SOL    HW167938   8.826   8.365   3.528  0.4526  1.3293  0.1270
21800SOL    HW267939   8.876   8.317   3.394  0.8906 -1.1926  1.1531
21801SOL     OW67940   8.834   6.437   4.094 -0.2811  0.7235  0.5164
21801SOL    HW167941   8.857   6.490   4.017  1.5357 -0.5141  0.1561
21801SOL    HW267942   8.919   6.407   4.128 -1.2443 -1.8568  0.7452
21802SOL     OW67943   6.151   4.458   2.417 -0.1088 -0.0767  0.4375
21802SOL    HW167944   6.134   4.544   2.380 -0.1639 -0.1166  0.3688
21802SOL    HW267945   6.190   4.475   2.503 -0.0962  0.0161  0.4125
21803SOL     OW67946   5.239   5.028   5.139 -0.3688 -0.4949 -0.0693
21803SOL    HW167947   5.185   5.106   5.150  0.3538  0.1487 -0.9740
21803SOL    HW267948   5.236   5.010   5.045  1.5655 -0.0202 -0.2368
21804SOL     OW67949   6.377   4.865   3.407 -0.0643  0.6659 -0.2987
21804SOL    HW167950   6.447   4.859   3.472 -1.3309  1.4888  1.1671
21804SOL    HW267951   6.312   4.801   3.436 -0.3543  0.5830 -1.1239
21805SOL     OW67952   8.093   5.018   5.341  0.1138 -0.3510 -0.3759
21805SOL    HW167953   8.001   4.994   5.339  0.4652 -1.6981 -1.7503
21805SOL    HW267954   8.095   5.108   5.372 -1.6312 -0.4245 -0.0447
21806SOL     OW67955   9.958   0.969   7.473 -0.1375  0.2992 -0.2364
21806SOL    HW167956   9.870   0.936   7.492 -1.1222  3.8781  1.8625
21806SOL    HW267957  10.003   0.970   7.558  1.2183  0.4135 -0.9409
21807SOL     OW67958   2.297   3.245   7.583  0.4791 -0.7579 -0.3254
21807SOL    HW167959   2.210   3.245   7.624  0.1814  0.7218 -0.9105
21807SOL    HW267960   2.305   3.157   7.546 -0.9951 -0.7591 -0.7046
21808SOL     OW67961   0.472   6.474   0.997  0.0119  0.2998 -0.1237
21808SOL    HW167962   0.496   6.383   0.979 -0.9100 -0.1366  0.8007
21808SOL    HW267963   0.378   6.478   0.984  0.0890  1.2017 -0.4497
21809SOL     OW67964   6.684   6.658   0.981  0.6252  0.3924 -0.2044
21809SOL    HW167965   6.590   6.673   0.976  0.5517 -0.2963 -0.9527
21809SOL    HW267966   6.695   6.565   0.961  1.5456  0.6782 -1.0613
21810SOL     OW67967   6.079   6.887   2.844  0.1659 -0.1680  0.3572
21810SOL    HW167968   6.062   6.877   2.938  2.1473 -1.0949  0.6495
21810SOL    HW267969   5.995   6.913   2.807 -0.4446  0.9882  2.4998
21811SOL     OW67970   3.944   6.231   6.779  0.5229  0.0339  0.5296
21811SOL    HW167971   4.009   6.161   6.768 -0.1592 -0.7078  1.1631
21811SOL    HW267972   3.988   6.295   6.835  2.0623  1.3276 -2.0536
21812SOL     OW67973   4.560   2.753   4.395 -0.2733 -0.1905 -0.3912
21812SOL    HW167974   4.581   2.808   4.471 -0.5338 -0.5160 -0.0805
21812SOL    HW267975   4.481   2.705   4.422  0.1180 -0.9337 -0.5432
21813SOL     OW67976  10.111   2.029   0.043 -0.0141  0.4691  0.2027
21813SOL    HW167977  10.169   1.971  -0.007 -0.6845  0.5450 -0.6573
21813SOL    HW267978  10.031   1.978   0.055  0.8936 -0.3794  3.0315
21814SOL     OW67979   9.982   1.425   3.838  0.5695  0.6576  0.2365
21814SOL    HW167980  10.047   1.414   3.768 -0.0893  0.3377 -0.3378
21814SOL    HW267981  10.027   1.400   3.918  0.3412 -2.3280 -0.5025
21815SOL     OW67982   4.594   8.115   9.855 -0.5421 -0.2190  0.0038
21815SOL    HW167983   4.551   8.044   9.808  1.1369 -0.3826 -1.3280
21815SOL    HW267984   4.683   8.117   9.820 -0.4816  2.3782  0.1829
21816SOL     OW67985   7.708  10.112   3.705 -0.1161 -0.6708 -1.0457
21816SOL    HW167986   7.758  10.183   3.744  0.3727 -1.0626 -0.9442
21816SOL    HW267987   7.770  10.069   3.646 -0.1618 -1.5071 -0.4976
21817SOL     OW67988   5.996   2.072   8.539 -0.5327 -0.6648  0.0598
21817SOL    HW167989   5.991   2.120   8.622 -2.0673 -1.3182  0.3681
21817SOL    HW267990   6.034   2.134   8.478  0.9847 -0.2976  1.3344
21818SOL     OW67991   8.421   0.810   8.135  0.0520 -0.7332 -0.5552
21818SOL    HW167992   8.341   0.785   8.088 -0.5404 -0.2162  0.1581
21818SOL    HW267993   8.395   0.809   8.227  0.7348 -0.0633 -0.3526
21819SOL     OW67994   8.222  10.048   4.289  0.1690  0.0567  0.3732
21819SOL    HW167995   8.308  10.009   4.269  0.4698  1.3569 -0.9039
21819SOL    HW267996   8.221  10.054   4.384  2.1816  1.5141  0.3479
21820SOL     OW67997   0.248   0.404   6.409 -0.0133 -0.4149  0.6696
21820SOL    HW167998   0.241   0.430   6.317  2.5359 -1.0377  0.2780
21820SOL    HW267999   0.195   0.324   6.414 -0.4657 -0.1815 -0.1682
21821SOL     OW68000   6.371   3.279   1.753  0.0104  0.0844 -0.1336
21821SOL    HW168001   6.408   3.359   1.791 -1.2724  0.5823  0.0719
21821SOL    HW268002   6.448   3.226   1.732  0.9651  2.0136 -1.7122
21822SOL     OW68003   8.192   2.235  10.029 -0.3284  0.2560  0.2037
21822SOL    HW168004   8.205   2.201  10.117  0.4346  0.3297  0.1175
21822SOL    HW268005   8.141   2.315  10.041 -0.4592  0.1209  0.5497
21823SOL     OW68006   6.211   5.945   0.113  0.2896  0.3417  0.0645
21823SOL    HW168007   6.137   6.005   0.107  0.3638  0.2965 -1.5162
21823SOL    HW268008   6.288   6.002   0.105  0.4328  0.3754  1.5799
21824SOL     OW68009   4.124   5.055   9.086  0.3354 -0.0560  0.8463
21824SOL    HW168010   4.090   5.140   9.113  0.3393 -0.3867  1.9231
21824SOL    HW268011   4.181   5.074   9.012 -0.4222  0.7689  0.4666
21825SOL     OW68012   6.920   9.027   0.891  0.3142  0.2696  0.2265
21825SOL    HW168013   6.923   8.936   0.921 -1.1564  0.4037  0.8486
21825SOL    HW268014   7.011   9.051   0.879  0.6922 -1.5771 -0.8116
21826SOL     OW68015   2.191   6.216   2.851 -0.4092  0.4607  0.4019
21826SOL    HW168016   2.240   6.289   2.889 -0.3105  1.2617 -1.2030
21826SOL    HW268017   2.256   6.147   2.841  0.4906  1.5942 -1.9152
21827SOL     OW68018   5.610   7.318   0.770  0.1768 -0.6897 -0.1031
21827SOL    HW168019   5.548   7.316   0.843  0.2203 -2.5159 -0.0852
21827SOL    HW268020   5.577   7.386   0.711  0.4379  1.2118  1.8612
21828SOL     OW68021   3.476   7.836   6.340  0.1830  0.2001 -0.2910
21828SOL    HW168022   3.470   7.930   6.355  0.2915  0.2950 -0.8201
21828SOL    HW268023   3.385   7.806   6.334  0.1413  0.5734 -1.8917
21829SOL     OW68024   1.164   5.436   3.055 -0.4521 -0.2688  0.5808
21829SOL    HW168025   1.151   5.516   3.003 -2.7441 -1.1617 -0.2424
21829SOL    HW268026   1.197   5.468   3.139 -0.7710  1.5093  0.0524
21830SOL     OW68027   9.661   5.941   9.652  0.0995  0.3615  0.1952
21830SOL    HW168028   9.716   5.892   9.592 -0.4234 -0.1601  0.1402
21830SOL    HW268029   9.676   6.033   9.629 -0.4909  0.1424 -1.0736
21831SOL     OW68030   9.974   1.860   3.488  0.0251 -0.2747  0.4768
21831SOL    HW168031   9.916   1.788   3.514  1.6050 -1.9953 -0.6298
21831SOL    HW268032   9.915   1.933   3.470 -1.6509 -1.4135  1.2134
21832SOL     OW68033   2.108   8.067   3.813  0.1769 -0.1004 -0.3184
21832SOL    HW168034   2.192   8.112   3.820  0.2243 -0.4409  1.7816
21832SOL    HW268035   2.052   8.109   3.879 -1.4718  0.4680 -2.0543
21833SOL     OW68036   7.808   2.355   1.382  0.2803  0.4538 -0.6625
21833SOL    HW168037   7.811   2.435   1.435 -2.3349  1.3335 -1.7501
21833SOL    HW268038   7.896   2.319   1.388  0.6102  1.6384  2.5708
21834SOL     OW68039   2.977   6.883   3.355  0.2824 -0.2879 -0.1419
21834SOL    HW168040   3.024   6.802   3.372 -1.0865 -1.4199 -1.5364
21834SOL    HW268041   2.899   6.856   3.305 -0.6592  1.7688  0.1257
21835SOL     OW68042   1.141   2.651   4.080  0.3443 -0.0737 -0.6416
21835SOL    HW168043   1.195   2.690   4.149 -0.5418 -0.9001  0.5436
21835SOL    HW268044   1.082   2.722   4.053  1.2020  0.4740 -1.0849
21836SOL     OW68045   8.497   1.865   3.608 -0.2144  0.3894  0.1454
21836SOL    HW168046   8.493   1.858   3.703 -0.6504 -1.1745  0.0265
21836SOL    HW268047   8.444   1.942   3.587 -0.7971  0.2618  1.1142
21837SOL     OW68048   6.277   0.447   2.648  0.6627  0.4684 -0.7200
21837SOL    HW168049   6.184   0.433   2.627  0.9595 -1.8471 -0.6315
21837SOL    HW268050   6.315   0.479   2.566  0.2119 -0.6888 -1.3942
21838SOL     OW68051   1.955   5.949   6.246 -0.0538  0.0312  0.6603
21838SOL    HW168052   2.021   6.014   6.269  0.6998 -1.1110  1.8184
21838SOL    HW268053   1.871   5.993   6.261  0.4448  0.7262  1.4706
21839SOL     OW68054   1.711   1.291   7.199 -0.2467 -0.3489  0.2816
21839SOL    HW168055   1.648   1.363   7.189  3.3009  2.8543 -0.4054
21839SOL    HW268056   1.749   1.304   7.286  0.8021 -1.0458 -0.0618
21840SOL     OW68057   2.478   6.710   9.050  0.9111  0.0555 -0.4391
21840SOL    HW168058   2.525   6.731   8.969 -0.6638 -1.1803 -1.7023
21840SOL    HW268059   2.520   6.630   9.082 -1.3964 -2.0619 -2.5139
21841SOL     OW68060   9.673   8.707   8.911 -0.4762  0.0404  0.0191
21841SOL    HW168061   9.645   8.640   8.973  0.7735 -1.2168 -0.7514
21841SOL    HW268062   9.598   8.720   8.853 -0.5614 -1.0337 -0.1114
21842SOL     OW68063   9.152   7.815   3.811 -0.2963  0.2730 -0.2226
21842SOL    HW168064   9.165   7.767   3.728  0.7551  0.7359 -0.3436
21842SOL    HW268065   9.157   7.907   3.785 -3.2222  0.4790 -0.1305
21843SOL     OW68066   2.965   2.744   3.307  0.2713 -0.5184 -0.5169
21843SOL    HW168067   3.028   2.765   3.375 -2.0331 -0.2092  1.5656
21843SOL    HW268068   3.000   2.665   3.265  2.5983  0.3094 -0.1610
21844SOL     OW68069   6.243   7.608   5.809 -0.9697 -0.3351 -0.1067
21844SOL    HW168070   6.336   7.603   5.832 -0.8321  0.8231 -0.3362
21844SOL    HW268071   6.223   7.702   5.813 -2.5811 -0.7188  1.7427
21845SOL     OW68072   7.547   2.311   9.468  0.5528  0.2522  0.7519
21845SOL    HW168073   7.463   2.284   9.431 -0.1857  0.4246  2.2599
21845SOL    HW268074   7.605   2.236   9.453  0.6737  0.8446 -1.9560
21846SOL     OW68075   1.418   2.320   0.434 -0.4432  0.3164 -0.0781
21846SOL    HW168076   1.366   2.399   0.449 -0.0329  0.9227 -1.6918
21846SOL    HW268077   1.509   2.351   0.436 -0.2736 -0.1627 -0.4489
21847SOL     OW68078   4.943   0.060   0.577  0.3369  0.5892 -0.1009
21847SOL    HW168079   4.873  -0.005   0.583 -0.0098  0.6375 -2.8376
21847SOL    HW268080   4.909   0.127   0.518  2.1720  1.2898 -0.4215
21848SOL     OW68081   9.969   4.657   3.167 -0.2443 -0.0399 -0.9753
21848SOL    HW168082   9.982   4.695   3.080 -0.0679  2.9738  0.3410
21848SOL    HW268083   9.874   4.647   3.174 -0.4496  2.1096 -0.5377
21849SOL     OW68084   1.744   1.377   9.611  0.2423  0.1420  0.5373
21849SOL    HW168085   1.765   1.306   9.550  1.6212  1.6762 -0.8093
21849SOL    HW268086   1.813   1.442   9.597 -1.2547  1.9686  1.4124
21850SOL     OW68087   5.139   1.236   4.709  0.1207 -0.5548 -0.1325
21850SOL    HW168088   5.069   1.264   4.651  1.6103  1.3024 -1.0845
21850SOL    HW268089   5.120   1.280   4.792  1.0022  1.2359 -0.8560
21851SOL     OW68090   0.803   8.923   0.856 -0.2792  0.0322 -0.5040
21851SOL    HW168091   0.804   9.018   0.845 -0.6320 -0.0690 -1.3741
21851SOL    HW268092   0.752   8.890   0.782 -1.6034 -0.7224  0.7211
21852SOL     OW68093   0.419   6.544   3.413 -0.2152 -0.0993 -0.0518
21852SOL    HW168094   0.354   6.474   3.415 -0.1455 -0.1258  1.6510
21852SOL    HW268095   0.441   6.553   3.320 -0.0124 -2.5125 -0.2713
21853SOL     OW68096   1.756   1.343   4.326  0.7463  0.1166 -0.4805
21853SOL    HW168097   1.665   1.318   4.310  0.7933 -0.5909  0.3421
21853SOL    HW268098   1.803   1.316   4.247  0.5163 -0.9386 -0.2546
21854SOL     OW68099   8.459   3.272   2.090 -0.2118  0.1006  0.0387
21854SOL    HW168100   8.496   3.185   2.082  1.0168  0.3469  2.5749
21854SOL    HW268101   8.464   3.292   2.184 -0.8857  2.7120 -0.4383
21855SOL     OW68102   8.648   6.259   6.540 -0.0003  0.2197 -0.4041
21855SOL    HW168103   8.659   6.171   6.504 -0.2536  0.3209 -0.7331
21855SOL    HW268104   8.720   6.310   6.503  0.0669  0.1836 -0.3217
21856SOL     OW68105   3.833   0.268   9.415  0.7275  0.9465  0.0216
21856SOL    HW168106   3.896   0.243   9.482 -0.7335 -0.2090  0.9806
21856SOL    HW268107   3.829   0.364   9.420  0.3856  0.8498  1.8126
21857SOL     OW68108   3.468   3.370   5.667 -0.1183 -0.1148 -0.6604
21857SOL    HW168109   3.525   3.357   5.743 -1.2978 -0.3084  0.1973
21857SOL    HW268110   3.487   3.459   5.637  0.9355 -0.3280 -0.6413
21858SOL     OW68111   7.201   1.809   4.038 -0.3500  0.1445  0.3950
21858SOL    HW168112   7.168   1.757   4.111 -0.1754  0.2463  0.5469
21858SOL    HW268113   7.295   1.788   4.034 -0.1705  0.8540  0.7960
21859SOL     OW68114   6.584   7.631   0.113  0.0025 -0.0838 -0.3480
21859SOL    HW168115   6.626   7.672   0.188  0.4282 -0.6859 -0.2630
21859SOL    HW268116   6.492   7.622   0.139  0.6585 -2.7471  1.1388
21860SOL     OW68117   0.016   6.330   8.432  0.4611 -0.0975 -0.4034
21860SOL    HW168118  -0.025   6.364   8.511 -0.1052  2.3281 -1.7050
21860SOL    HW268119  -0.055   6.284   8.386  0.7511 -1.3572  0.3857
21861SOL     OW68120   2.135   9.128   1.228  0.3104 -0.0930  0.0628
21861SOL    HW168121   2.099   9.197   1.284  2.0936 -0.5568  1.8205
21861SOL    HW268122   2.224   9.156   1.209 -0.3149  0.1475 -2.7700
21862SOL     OW68123   2.750   0.677   8.019  0.8499  0.0173 -0.6358
21862SOL    HW168124   2.766   0.750   7.959 -0.2897  0.0857 -0.8704
21862SOL    HW268125   2.666   0.642   7.991  0.8221 -0.6234  0.2524
21863SOL     OW68126  10.101   8.631   6.103  0.2000  0.5002  0.1333
21863SOL    HW168127  10.193   8.625   6.129  0.5589 -0.3269 -1.3122
21863SOL    HW268128  10.079   8.544   6.069 -1.0849  0.7255  0.3569
21864SOL     OW68129   3.501   0.062   5.218  0.1070 -0.4286 -0.3327
21864SOL    HW168130   3.406   0.071   5.226  0.2218  1.0075 -0.4440
21864SOL    HW268131   3.518  -0.030   5.235 -1.1126 -0.3032  1.6609
21865SOL     OW68132   2.793   8.259   3.734 -0.5371  0.3558 -0.0615
21865SOL    HW168133   2.737   8.184   3.755 -2.8041  1.9175 -0.3785
21865SOL    HW268134   2.881   8.230   3.758 -1.6821 -1.5554  2.1055
21866SOL     OW68135   2.369   6.048   5.379 -0.1921 -0.2771 -0.4747
21866SOL    HW168136   2.304   6.096   5.431  0.7994 -0.9016  1.4173
21866SOL    HW268137   2.381   5.966   5.427  1.3130 -0.5451 -1.2979
21867SOL     OW68138   7.357   0.871   1.229 -0.5445  0.5852 -0.5568
21867SOL    HW168139   7.277   0.918   1.206  0.0223  0.7065 -2.3967
21867SOL    HW268140   7.396   0.848   1.144  1.4217  0.6418  0.3113
21868SOL     OW68141   5.893   0.322   2.122 -0.0156 -0.2358  0.2861
21868SOL    HW168142   5.947   0.244   2.135  0.3572 -0.6464 -3.2674
21868SOL    HW268143   5.954   0.387   2.085 -1.3134  0.2475 -1.0275
21869SOL     OW68144  10.178   1.704   7.698 -0.0301 -0.3780  0.0506
21869SOL    HW168145  10.228   1.638   7.651 -0.3759 -1.0896  0.6540
21869SOL    HW268146  10.086   1.680   7.683 -0.1741  0.4234 -0.3691
21870SOL     OW68147   9.222   0.717   6.751  0.3754  0.2011  0.1161
21870SOL    HW168148   9.229   0.764   6.834 -2.3744  2.6435 -0.9589
21870SOL    HW268149   9.291   0.754   6.697  0.4184  0.5633  0.4163
21871SOL     OW68150   5.900   0.840   2.178  0.3399 -0.0797 -0.0455
21871SOL    HW168151   5.989   0.873   2.171  0.5961 -0.6362  0.5596
21871SOL    HW268152   5.861   0.858   2.092  1.0628  0.0731 -0.3437
21872SOL     OW68153   1.311   0.068   0.738  0.2575  0.6722  0.1730
21872SOL    HW168154   1.229   0.082   0.690 -0.6938  3.0133  2.3376
21872SOL    HW268155   1.377   0.056   0.670 -1.8287 -1.1443 -1.6234
21873SOL     OW68156   8.959   0.964   9.558  0.1999 -0.7079  0.1153
21873SOL    HW168157   8.979   0.917   9.477  3.1377  3.1212 -1.5714
21873SOL    HW268158   9.015   0.923   9.624  0.3685 -1.6124 -0.5791
21874SOL     OW68159   2.755   1.617   4.936  0.4492 -0.1733 -0.6251
21874SOL    HW168160   2.690   1.635   5.004  0.8577 -0.1059 -0.2478
21874SOL    HW268161   2.778   1.702   4.900 -0.6254 -0.3114 -1.6555
21875SOL     OW68162   4.306   8.355   9.852 -0.3813 -0.3089  0.6392
21875SOL    HW168163   4.323   8.305   9.773 -1.0297 -0.7081  0.7520
21875SOL    HW268164   4.232   8.311   9.893  0.1387 -0.2873  1.6233
21876SOL     OW68165   3.417   9.826   5.747 -1.2600 -0.2208 -0.3040
21876SOL    HW168166   3.406   9.781   5.663 -1.8799  1.3886 -1.1167
21876SOL    HW268167   3.511   9.829   5.761 -1.2070 -1.6575 -0.2826
21877SOL     OW68168   5.068   5.003   7.931 -0.7197 -0.0998  0.3677
21877SOL    HW168169   4.973   5.013   7.929 -0.5585  2.0494  1.4411
21877SOL    HW268170   5.085   4.942   8.003 -1.3215 -1.4105 -0.5794
21878SOL     OW68171   8.489   1.277   2.376 -0.9423  0.1647  0.2565
21878SOL    HW168172   8.458   1.326   2.300 -1.4063  0.9891  0.9759
21878SOL    HW268173   8.543   1.339   2.424  0.5754 -0.8046 -0.1795
21879SOL     OW68174   7.188   4.392   2.082  0.3951  0.1434  0.8308
21879SOL    HW168175   7.283   4.400   2.083  0.2734  2.0045  0.5803
21879SOL    HW268176   7.158   4.470   2.129 -1.0353  0.5156 -0.6595
21880SOL     OW68177   9.530   4.345   2.107 -0.6805 -0.6761 -0.6732
21880SOL    HW168178   9.464   4.283   2.076 -0.8881 -2.0699  2.3636
21880SOL    HW268179   9.611   4.295   2.111  0.0987  0.4174 -2.2005
21881SOL     OW68180   3.539  10.180   8.712 -0.6224 -0.1835  0.0881
21881SOL    HW168181   3.545  10.108   8.651  0.4216 -1.1383  1.2996
21881SOL    HW268182   3.557  10.141   8.798  0.7690  1.6518  0.6683
21882SOL     OW68183   3.548   0.908   5.296  0.3844 -0.6147 -0.7465
21882SOL    HW168184   3.636   0.873   5.286  0.6968 -0.2610  0.6916
21882SOL    HW268185   3.538   0.969   5.223  0.8044 -1.6808 -1.7166
21883SOL     OW68186   0.288   5.362   8.745 -0.4678 -0.1457 -0.5278
21883SOL    HW168187   0.231   5.344   8.670  1.8383 -0.7015 -2.1693
21883SOL    HW268188   0.316   5.275   8.775 -0.7596  0.1118  0.5112
21884SOL     OW68189   1.445   2.013   1.011  0.1427 -0.3611  0.0189
21884SOL    HW168190   1.390   2.077   0.965  1.7317  0.3992 -0.8484
21884SOL    HW268191   1.449   1.938   0.951 -0.8308 -0.8501  0.5599
21885SOL     OW68192   4.951   0.932   2.489  0.2425 -1.0842  0.2562
21885SOL    HW168193   4.885   0.907   2.424  0.9842  1.9612 -1.7654
21885SOL    HW268194   5.027   0.878   2.469 -0.3192 -1.8086  0.0765
21886SOL     OW68195   7.736   4.634   7.576  0.5384 -0.3164 -0.1068
21886SOL    HW168196   7.700   4.694   7.641  3.3824  0.4830  0.7949
21886SOL    HW268197   7.673   4.636   7.504 -1.4687  0.5976  1.6051
21887SOL     OW68198   5.773   1.094   6.590 -0.5624 -0.1098  0.0029
21887SOL    HW168199   5.771   1.142   6.508  0.1682  0.1027  0.1064
21887SOL    HW268200   5.756   1.003   6.565 -0.6592  0.0024 -0.3420
21888SOL     OW68201   4.901  10.065   2.406 -0.4728 -0.3657  0.4294
21888SOL    HW168202   4.979  10.009   2.399 -0.3089 -0.1782  0.6962
21888SOL    HW268203   4.828  10.009   2.382 -0.0218  0.0941 -2.0819
21889SOL     OW68204   7.081   6.792   4.973  0.1550 -0.2203 -0.0084
21889SOL    HW168205   7.052   6.879   4.946 -0.7435 -0.3059  0.6493
21889SOL    HW268206   7.000   6.746   4.995  0.6492 -1.1257 -0.0677
21890SOL     OW68207   5.885   8.684   8.242  0.0031 -0.6626  0.4943
21890SOL    HW168208   5.817   8.623   8.271 -0.4497 -0.3304  0.1513
21890SOL    HW268209   5.924   8.717   8.323  0.2588 -1.4173  0.6779
21891SOL     OW68210   8.743   2.366   2.188 -0.8509  0.2414 -0.2365
21891SOL    HW168211   8.665   2.323   2.154 -1.0413 -0.8688  1.5164
21891SOL    HW268212   8.803   2.294   2.209  0.7894  1.0926 -1.8448
21892SOL     OW68213   2.995   1.465   7.324  0.1286 -0.3408  0.1257
21892SOL    HW168214   3.059   1.522   7.280  0.1872  0.4447  1.2128
21892SOL    HW268215   3.046   1.418   7.390 -0.1543 -0.7659  0.0411
21893SOL     OW68216   5.265   5.051   3.198  0.0775 -0.3456  0.1406
21893SOL    HW168217   5.281   4.976   3.256  0.3962 -0.0436  0.4432
21893SOL    HW268218   5.350   5.095   3.192 -0.3039  0.4906  0.6675
21894SOL     OW68219   4.326   7.354   9.438 -0.0803  0.1835 -0.3110
21894SOL    HW168220   4.418   7.378   9.442 -0.3717  1.6800 -1.9142
21894SOL    HW268221   4.325   7.262   9.412  0.9551  0.2936 -0.7322
21895SOL     OW68222   4.135   9.085   2.136 -0.3716  0.4708  0.3475
21895SOL    HW168223   4.046   9.051   2.132  0.6255 -2.1799  0.1635
21895SOL    HW268224   4.186   9.016   2.177  1.9604  1.1888 -1.2278
21896SOL     OW68225  10.062   5.471   9.806 -1.0157  0.3130  0.2079
21896SOL    HW168226  10.137   5.528   9.794 -0.4282 -0.3778  0.5461
21896SOL    HW268227  10.040   5.442   9.717  0.0738 -0.6869  0.2514
21897SOL     OW68228   4.044   7.319   9.086 -0.6398  0.1084 -0.0753
21897SOL    HW168229   4.024   7.313   8.992  1.6509  2.0251 -0.7422
21897SOL    HW268230   4.043   7.413   9.104 -0.2775 -0.2077  1.6459
21898SOL     OW68231   1.523   2.723   8.094 -0.2975 -0.0274  0.5003
21898SOL    HW168232   1.451   2.786   8.103  0.8672  1.1799  1.5498
21898SOL    HW268233   1.479   2.639   8.078 -1.8956  0.8972 -0.1515
21899SOL     OW68234  10.144   8.446   5.004 -0.2504  0.5634 -0.7803
21899SOL    HW168235  10.077   8.471   5.067 -0.0989  1.4976 -0.9896
21899SOL    HW268236  10.212   8.512   5.013  0.0377  0.3749 -1.5175
21900SOL     OW68237   3.078   7.208   9.366 -0.2233 -0.1439 -0.4483
21900SOL    HW168238   3.062   7.296   9.330 -1.5100  0.2270  0.9894
21900SOL    HW268239   2.995   7.183   9.407  1.1418 -0.5545  2.2168
21901SOL     OW68240   1.325   2.820   8.712 -0.1206 -0.0517  0.3959
21901SOL    HW168241   1.286   2.906   8.729  1.7136  1.0613 -0.9043
21901SOL    HW268242   1.336   2.782   8.799  0.6141  1.7468  1.1352
21902SOL     OW68243   9.051   1.437   8.564  0.1883  0.0764 -0.3532
21902SOL    HW168244   9.061   1.344   8.583  0.4952  0.0786 -0.4952
21902SOL    HW268245   9.138   1.474   8.582  0.3712  0.1465 -1.3550
21903SOL     OW68246   8.177   1.595   9.138  0.3273 -0.0403  0.2476
21903SOL    HW168247   8.105   1.537   9.116 -1.4175  0.8434  3.2261
21903SOL    HW268248   8.162   1.673   9.085  0.0921 -0.5480 -0.4358
21904SOL     OW68249   7.950   8.521   0.034  0.0055 -0.4231 -0.0004
21904SOL    HW168250   7.987   8.495  -0.050 -1.5416 -0.1777 -0.7651
21904SOL    HW268251   7.961   8.616   0.037 -0.7962 -0.3115 -0.3616
21905SOL     OW68252   1.424   4.015   6.589  0.2528 -0.2374  0.9146
21905SOL    HW168253   1.410   4.108   6.568 -1.8388 -0.3574  1.6445
21905SOL    HW268254   1.472   3.980   6.513 -1.6915  0.7409 -0.8267
21906SOL     OW68255   6.036   8.016   6.642 -0.1102 -0.2222 -0.3393
21906SOL    HW168256   5.952   7.993   6.602 -0.2410  0.9368 -0.7697
21906SOL    HW268257   6.035   8.112   6.644  0.0948 -0.2404  2.0124
21907SOL     OW68258   6.564   0.981   4.821 -0.7722 -0.0011 -0.6009
21907SOL    HW168259   6.501   0.911   4.802 -0.0675 -0.3703 -1.5826
21907SOL    HW268260   6.554   1.043   4.749  0.1585 -0.1877 -0.9024
21908SOL     OW68261   7.952   4.248   5.659 -0.0722  0.3767 -0.2897
21908SOL    HW168262   8.024   4.239   5.596  0.8282 -0.4987  0.8512
21908SOL    HW268263   7.992   4.232   5.744 -1.4721  0.6517  0.4394
21909SOL     OW68264   7.535   8.299   8.428 -0.0908  0.6148  0.1433
21909SOL    HW168265   7.465   8.319   8.365  0.3948  0.3317 -0.5013
21909SOL    HW268266   7.611   8.278   8.373  0.0187 -0.8120  0.8103
21910SOL     OW68267   6.142   9.434   3.274 -0.4119 -0.0169 -0.2941
21910SOL    HW168268   6.218   9.389   3.310 -1.6050  0.0869  2.4758
21910SOL    HW268269   6.173   9.473   3.192  2.0265 -1.3990 -0.0580
21911SOL     OW68270   8.195   7.892   6.010 -0.1914  0.0814 -0.0420
21911SOL    HW168271   8.199   7.899   6.105 -0.5872 -0.9160  0.0591
21911SOL    HW268272   8.263   7.951   5.978 -0.1436  0.5126  0.8543
21912SOL     OW68273   7.020   1.392   8.199  0.4399 -0.0326  0.1376
21912SOL    HW168274   7.113   1.414   8.190  0.3493  0.8225  1.1148
21912SOL    HW268275   7.006   1.321   8.137  1.6285  0.1901 -0.4071
21913SOL     OW68276   6.954   1.810   0.157  0.2775  0.4141 -0.5337
21913SOL    HW168277   6.905   1.759   0.093 -0.8905  0.3334  0.4157
21913SOL    HW268278   7.002   1.745   0.208 -0.6532  0.3050  0.2122
21914SOL     OW68279   2.063   8.410   8.022 -0.2747 -0.0121  0.0747
21914SOL    HW168280   2.126   8.452   7.963 -0.5965  1.8188  0.9747
21914SOL    HW268281   1.979   8.453   8.002 -0.8413 -1.0293  0.2394
21915SOL     OW68282   8.484   3.472   6.657 -0.0436  0.8632 -0.2817
21915SOL    HW168283   8.408   3.422   6.627  1.5848 -2.2615  0.6290
21915SOL    HW268284   8.483   3.461   6.752  2.6624 -0.9273 -0.4221
21916SOL     OW68285   8.659   7.447   6.512  0.4328  0.5270  0.6914
21916SOL    HW168286   8.737   7.499   6.534  1.3248 -0.8596  0.9150
21916SOL    HW268287   8.586   7.507   6.523  1.5235  2.0621 -0.1696
21917SOL     OW68288   6.171   4.196   0.901 -0.0554 -0.2095 -0.3091
21917SOL    HW168289   6.210   4.114   0.931 -0.4985 -0.0675  0.6726
21917SOL    HW268290   6.077   4.182   0.912 -0.1942  0.0514 -1.1314
21918SOL     OW68291   8.306   7.340   7.640 -0.0930  0.7338  0.2211
21918SOL    HW168292   8.218   7.373   7.660  0.0409  0.8965  0.5413
21918SOL    HW268293   8.328   7.285   7.715  0.9147  2.3277  1.1256
21919SOL     OW68294   7.020   1.589   6.718  0.0315  0.0792  0.0864
21919SOL    HW168295   6.961   1.628   6.654  0.8759 -0.8160 -1.2668
21919SOL    HW268296   7.098   1.565   6.668  0.9509 -0.0989  1.5625
21920SOL     OW68297   4.552   9.396   7.274 -0.2009  0.1485 -0.5017
21920SOL    HW168298   4.463   9.392   7.309  0.2666  0.3858  0.7296
21920SOL    HW268299   4.546   9.455   7.198 -1.1052  0.0865 -0.4751
21921SOL     OW68300   8.733   4.542   4.735 -0.1825 -0.2303  0.4422
21921SOL    HW168301   8.818   4.556   4.694 -0.2608  0.8111  0.6224
21921SOL    HW268302   8.737   4.592   4.817 -0.5155 -1.1951  1.0587
21922SOL     OW68303   1.274   2.702   7.494  0.0418 -0.7984  0.2341
21922SOL    HW168304   1.336   2.674   7.426  0.4654 -1.1424  0.7655
21922SOL    HW268305   1.219   2.767   7.450 -1.6026 -3.1640 -1.2971
21923SOL     OW68306   7.148   4.344   5.317  0.1194  1.2180 -0.1435
21923SOL    HW168307   7.198   4.298   5.250  1.8905  2.4738  0.2668
21923SOL    HW268308   7.061   4.304   5.315  1.2958 -1.3914 -0.5042
21924SOL     OW68309   7.882   0.596   8.791 -0.3569 -0.1564 -0.1784
21924SOL    HW168310   7.948   0.637   8.736 -0.5235 -0.8940 -0.9529
21924SOL    HW268311   7.904   0.622   8.880 -0.0312  0.9837 -0.5893
21925SOL     OW68312   7.447   4.105   7.352  0.0270 -0.0641  0.1921
21925SOL    HW168313   7.357   4.113   7.320  0.6063 -1.9727 -2.1270
21925SOL    HW268314   7.439   4.063   7.437 -1.2718 -0.1854  0.0185
21926SOL     OW68315   8.026   7.624   5.373 -0.3366 -0.7559  0.6692
21926SOL    HW168316   8.049   7.571   5.450 -0.8581  0.4592  1.6715
21926SOL    HW268317   8.110   7.660   5.344  0.3867 -3.8584 -1.3724
21927SOL     OW68318   5.745   8.840   6.790 -0.4385  0.7064 -0.5148
21927SOL    HW168319   5.797   8.767   6.756  0.4742  1.1902 -0.1951
21927SOL    HW268320   5.677   8.800   6.844  1.3106  0.1815  1.3478
21928SOL     OW68321   9.617   2.014   6.758  0.0556 -0.0373  0.0872
21928SOL    HW168322   9.672   1.990   6.833  0.0865  2.1673  0.8002
21928SOL    HW268323   9.675   2.006   6.683  0.3122 -1.2572  0.3870
21929SOL     OW68324   3.732   5.900   7.164  0.3184  0.1751 -0.0695
21929SOL    HW168325   3.673   5.912   7.238  3.3726  0.8679  2.4034
21929SOL    HW268326   3.765   5.811   7.173  1.5218  0.6146  0.0781
21930SOL     OW68327   6.755   6.985   5.460  0.4642 -0.4772  0.0941
21930SOL    HW168328   6.776   7.074   5.489  0.9571 -0.7041  0.4395
21930SOL    HW268329   6.777   6.930   5.535 -2.3298 -0.6410  0.8633
21931SOL     OW68330   1.960   2.838   6.355  0.1379  0.4658  0.2450
21931SOL    HW168331   1.991   2.760   6.309  0.0935  1.2280 -1.1020
21931SOL    HW268332   1.873   2.814   6.387  0.5428 -0.3814  0.7104
21932SOL     OW68333   8.494   8.025   8.863 -0.1436  0.1993  0.3132
21932SOL    HW168334   8.523   8.053   8.777  0.5639  0.5850  0.6729
21932SOL    HW268335   8.398   8.028   8.859 -0.1025  0.5042 -0.3598
21933SOL     OW68336   2.488   6.401   8.548 -0.1494 -0.0430  0.2166
21933SOL    HW168337   2.464   6.312   8.574 -0.2515 -0.0880 -0.0254
21933SOL    HW268338   2.551   6.389   8.477  0.0273  0.0772  0.3540
21934SOL     OW68339   1.257   4.667   1.210 -0.4893  0.0182  0.1501
21934SOL    HW168340   1.316   4.732   1.170  0.3890 -0.0866  1.2312
21934SOL    HW268341   1.169   4.699   1.191 -0.1279 -0.6939 -2.9408
21935SOL     OW68342   9.619   4.807   8.784  0.0690 -0.2203  0.1401
21935SOL    HW168343   9.642   4.804   8.877  1.2803  1.4552 -0.0898
21935SOL    HW268344   9.572   4.889   8.773 -2.4005 -1.6504 -0.2385
21936SOL     OW68345   5.811   5.605   8.036  0.2168 -0.1747  0.2536
21936SOL    HW168346   5.890   5.599   8.090  1.0511  0.4185 -0.8562
21936SOL    HW268347   5.742   5.567   8.089  1.2807 -0.8036  1.2153
21937SOL     OW68348   6.210   4.620   1.921  0.0618  0.2527 -0.1644
21937SOL    HW168349   6.161   4.543   1.894  1.5511 -1.2718  1.3856
21937SOL    HW268350   6.300   4.603   1.891  0.7294  0.6706  1.5599
21938SOL     OW68351   9.142   8.780   5.541 -0.1060  0.2245  0.4454
21938SOL    HW168352   9.100   8.698   5.516  1.2377 -0.0238 -1.0890
21938SOL    HW268353   9.122   8.840   5.469 -0.5331  1.0428  1.2463
21939SOL     OW68354   0.931   9.035   7.938 -1.1159  0.5151  0.1418
21939SOL    HW168355   0.983   8.962   7.973  0.9580  1.0922 -1.6134
21939SOL    HW268356   0.843   9.019   7.970 -0.5201 -2.2879  0.5438
21940SOL     OW68357   6.931   8.033   5.926  0.6978  0.0494 -0.0564
21940SOL    HW168358   6.922   8.122   5.893 -0.6811  0.2376  0.7664
21940SOL    HW268359   6.950   8.044   6.020  1.2097 -0.5181 -0.0865
21941SOL     OW68360   5.273   1.267   1.284 -0.1429 -0.0669  0.0620
21941SOL    HW168361   5.221   1.200   1.328  0.4241  1.2490  2.8650
21941SOL    HW268362   5.278   1.339   1.347  2.8980  0.8638 -1.1491
21942SOL     OW68363  10.137   8.117   5.997  0.4872 -0.5554  0.3749
21942SOL    HW168364  10.110   8.028   5.972  0.2803 -0.6054  0.7833
21942SOL    HW268365  10.219   8.130   5.950 -0.4774 -0.2151 -1.2711
21943SOL     OW68366   8.018   6.513   2.127  0.0864  0.1214 -0.0669
21943SOL    HW168367   7.991   6.447   2.062  1.0931 -0.3227 -0.0528
21943SOL    HW268368   7.936   6.544   2.165 -0.6696  1.5665 -2.6914
21944SOL     OW68369   8.328   2.981   2.410 -0.2040 -0.2418  0.5489
21944SOL    HW168370   8.246   2.999   2.456 -0.0030 -0.8311  1.1461
21944SOL    HW268371   8.305   2.914   2.346 -0.3564  0.1540  0.1885
21945SOL     OW68372   1.717   5.916   5.169 -0.1617  0.4217  0.5642
21945SOL    HW168373   1.729   5.952   5.081  1.5774  0.2176  0.7019
21945SOL    HW268374   1.624   5.892   5.173 -0.2515  0.4360 -1.2036
21946SOL     OW68375   8.332   8.865   4.566  0.0510  0.2041  0.4250
21946SOL    HW168376   8.324   8.776   4.531 -1.2575  0.5508 -0.2015
21946SOL    HW268377   8.242   8.894   4.580  0.2956  2.5323 -2.2832
21947SOL     OW68378   9.772   1.367   7.870  0.1742 -0.3870  0.4149
21947SOL    HW168379   9.813   1.281   7.886  2.9330  0.6517 -0.7290
21947SOL    HW268380   9.695   1.348   7.818  0.6414 -2.2137  0.3582
21948SOL     OW68381   5.656   1.565   4.634  0.1190  0.0562  0.4666
21948SOL    HW168382   5.731   1.517   4.669 -0.6692  0.3794  2.6966
21948SOL    HW268383   5.583   1.502   4.638  0.0071  0.1122 -0.5801
21949SOL     OW68384   8.271   7.016   1.562 -0.8054  1.0273  0.3624
21949SOL    HW168385   8.287   7.111   1.560  1.7003  0.6594  0.7426
21949SOL    HW268386   8.229   7.001   1.647 -0.2906  1.6681  0.7379
21950SOL     OW68387   0.674   1.621   7.270 -0.5935  0.6762 -0.6274
21950SOL    HW168388   0.697   1.578   7.353 -1.2587 -0.1726 -0.8836
21950SOL    HW268389   0.682   1.714   7.289  0.8577  0.4587 -0.0646
21951SOL     OW68390   0.436   5.934   1.977 -0.0383  0.2587  0.0741
21951SOL    HW168391   0.494   5.869   2.018  0.9134  1.7303  1.0799
21951SOL    HW268392   0.375   5.881   1.925  0.8847 -1.4345  0.6626
21952SOL     OW68393   0.541   6.954   9.417 -0.1246 -0.6599 -0.3835
21952SOL    HW168394   0.605   6.884   9.407  0.3996 -0.3418  0.6950
21952SOL    HW268395   0.462   6.910   9.448  0.4128 -0.6930  0.9702
21953SOL     OW68396   6.588   9.697   2.728 -0.7637  0.1617  0.0587
21953SOL    HW168397   6.677   9.661   2.725 -1.4916 -1.5125 -2.0438
21953SOL    HW268398   6.595   9.770   2.790  2.1634  0.3408 -0.3968
21954SOL     OW68399   6.313   4.063   6.763 -0.5401  0.1438 -0.1653
21954SOL    HW168400   6.223   4.057   6.733 -0.2431 -0.5738 -0.9403
21954SOL    HW268401   6.339   4.153   6.743 -0.8638  0.1466 -0.5681
21955SOL     OW68402   8.310   9.391   7.491  0.2443  0.3119  0.1351
21955SOL    HW168403   8.220   9.357   7.489  0.0750  0.6325  1.4561
21955SOL    HW268404   8.330   9.397   7.584  1.5513  0.4953 -0.1568
21956SOL     OW68405   2.745   7.563   4.837 -0.5153 -0.1082  0.0253
21956SOL    HW168406   2.742   7.471   4.811 -3.5784  0.1395 -0.6376
21956SOL    HW268407   2.819   7.568   4.898  2.5210 -2.0916 -3.3110
21957SOL     OW68408   0.647   7.502   4.493  0.1974  0.1414 -0.2642
21957SOL    HW168409   0.740   7.478   4.493  0.0554 -0.4236 -0.1145
21957SOL    HW268410   0.607   7.439   4.433 -0.2909 -0.4154  0.6400
21958SOL     OW68411   1.246   5.044   1.367  0.0621  0.1313  0.1186
21958SOL    HW168412   1.262   5.109   1.435  0.7716 -1.3637  1.4051
21958SOL    HW268413   1.326   4.992   1.364  0.0474  0.1756 -1.8737
21959SOL     OW68414   3.013   9.045   5.434  0.1269 -0.3740  0.1231
21959SOL    HW168415   3.068   9.123   5.437 -1.4123  0.6905  1.2007
21959SOL    HW268416   2.979   9.042   5.345 -1.3348  1.2660  0.6096
21960SOL     OW68417   3.417   7.530   9.836  0.7238  0.0103 -0.7661
21960SOL    HW168418   3.392   7.622   9.837 -0.1460 -0.2238  0.4014
21960SOL    HW268419   3.336   7.482   9.820  0.7662 -0.6471  0.8437
21961SOL     OW68420   4.533   5.486   0.949 -0.0446 -0.5613  0.4701
21961SOL    HW168421   4.626   5.503   0.961 -0.2963  1.6964 -0.3733
21961SOL    HW268422   4.490   5.542   1.013 -0.8210 -1.6244  0.8889
21962SOL     OW68423   1.232   6.938   3.955 -0.3170  0.2095 -0.3247
21962SOL    HW168424   1.265   7.017   3.997  0.3635  0.5400 -1.4365
21962SOL    HW268425   1.275   6.937   3.869  1.2954 -2.4524  0.4394
21963SOL     OW68426   3.142   7.265   0.300  0.2392  0.4429  0.4764
21963SOL    HW168427   3.081   7.205   0.343 -0.9062 -0.2329 -1.9627
21963SOL    HW268428   3.102   7.351   0.311 -1.0517  0.0350 -0.8624
21964SOL     OW68429   4.472   6.789   5.058  0.4877  0.1844  0.8478
21964SOL    HW168430   4.499   6.881   5.063 -0.7870  0.5641  0.7283
21964SOL    HW268431   4.500   6.760   4.972  0.8729  0.4633  0.8771
21965SOL     OW68432   8.795   8.091   0.492  0.0149 -0.2087 -0.5049
21965SOL    HW168433   8.860   8.160   0.508  0.6411 -0.5516 -1.5057
21965SOL    HW268434   8.722   8.137   0.451  0.2762 -0.0679 -0.8224
21966SOL     OW68435   0.920   7.676   8.853  0.2255  0.1313 -0.7639
21966SOL    HW168436   0.950   7.678   8.762 -1.2816 -0.2735 -1.2893
21966SOL    HW268437   0.851   7.743   8.857  0.7952  0.6717  0.2759
21967SOL     OW68438   2.738   5.576   6.782 -0.8305  0.1483 -0.0327
21967SOL    HW168439   2.760   5.555   6.691  2.9901  1.8663  0.4148
21967SOL    HW268440   2.803   5.529   6.834 -1.3624  1.2846  1.6963
21968SOL     OW68441   2.097   3.758   4.985  0.3936  0.2767  0.3184
21968SOL    HW168442   2.027   3.708   5.027 -1.1720  2.0290 -0.1320
21968SOL    HW268443   2.153   3.691   4.946 -0.6485 -1.1969  1.2548
21969SOL     OW68444   1.924   0.934   9.708 -0.0100  0.1863  0.7515
21969SOL    HW168445   1.921   0.864   9.643 -2.3568  0.3936  0.5773
21969SOL    HW268446   2.016   0.942   9.732  0.6909 -0.7831 -1.5744
21970SOL     OW68447   9.304   5.157   7.807  0.0614  0.7659  0.1057
21970SOL    HW168448   9.367   5.227   7.791  0.7443 -0.0311 -0.6559
21970SOL    HW268449   9.309   5.101   7.730  1.1199 -1.3722  1.6983
21971SOL     OW68450   8.306   2.884   9.047 -0.1277  0.5763  0.6382
21971SOL    HW168451   8.268   2.945   9.110 -0.1050  0.3434  0.8764
21971SOL    HW268452   8.263   2.800   9.066 -0.1010  0.4988  0.3642
21972SOL     OW68453   7.189   0.038   9.407 -0.1309 -0.4418 -0.3495
21972SOL    HW168454   7.219   0.127   9.390 -0.0928 -0.4665 -0.4090
21972SOL    HW268455   7.267  -0.016   9.400 -0.3468 -0.6220 -1.3716
21973SOL     OW68456   3.253   1.945   3.753  0.1344  0.1486  0.0511
21973SOL    HW168457   3.237   1.926   3.660 -0.3724 -0.4310  0.2528
21973SOL    HW268458   3.290   1.864   3.787  2.9410  1.2543 -0.2572
21974SOL     OW68459   8.437   1.531   9.136 -0.7690  0.5159 -0.3240
21974SOL    HW168460   8.346   1.558   9.122  0.0278  4.1717  0.8288
21974SOL    HW268461   8.484   1.569   9.062 -0.3286 -2.4831 -1.6247
21975SOL     OW68462   6.186   1.860   1.732  0.1516  0.3570  0.0762
21975SOL    HW168463   6.164   1.953   1.736 -0.8517  0.0621  3.3558
21975SOL    HW268464   6.107   1.818   1.698 -0.3414  0.4511  1.0938
21976SOL     OW68465   4.090   9.457   1.049 -0.2890 -0.3788  0.3669
21976SOL    HW168466   4.041   9.539   1.059  0.6723  0.1134  1.1192
21976SOL    HW268467   4.023   9.389   1.047 -1.3077  0.6174 -2.8737
21977SOL     OW68468   7.311   9.429   3.964  0.0570  0.8197 -0.5092
21977SOL    HW168469   7.325   9.404   3.873  1.4035  1.3832 -0.4717
21977SOL    HW268470   7.269   9.353   4.004  0.6376  0.0788 -1.2888
21978SOL     OW68471   4.972   3.635  10.033 -0.4175 -0.0922 -0.0777
21978SOL    HW168472   4.992   3.645  10.126 -3.0661  1.8855  0.3408
21978SOL    HW268473   4.976   3.724   9.998 -0.4925 -0.6904 -1.6642
21979SOL     OW68474   5.484   9.254   2.758  0.6876 -0.3002 -0.3013
21979SOL    HW168475   5.480   9.202   2.839  2.8105 -0.4043 -0.2114
21979SOL    HW268476   5.498   9.344   2.789  0.9437 -0.2585 -0.5426
21980SOL     OW68477   2.199   6.686   3.349  0.2219 -0.6783  0.4225
21980SOL    HW168478   2.260   6.713   3.281  0.2602 -2.1520 -0.1458
21980SOL    HW268479   2.252   6.679   3.428  0.4203 -0.1790  0.3364
21981SOL     OW68480   6.798   3.248   2.479  0.4828 -0.1505 -0.0133
21981SOL    HW168481   6.834   3.163   2.505 -0.5914 -1.0209 -1.2976
21981SOL    HW268482   6.864   3.283   2.419  1.0199  0.0059  0.6690
21982SOL     OW68483   7.671   3.342   4.320 -0.0276  0.0791 -0.4200
21982SOL    HW168484   7.623   3.304   4.246  0.7548  3.7246 -2.9273
21982SOL    HW268485   7.611   3.408   4.355  0.0165 -0.9275  1.6533
21983SOL     OW68486   2.122   8.737   3.779  0.0807 -0.3515  0.3156
21983SOL    HW168487   2.040   8.760   3.824 -0.6790  0.1292 -1.2586
21983SOL    HW268488   2.142   8.648   3.809 -0.3698 -0.0258  1.6270
21984SOL     OW68489  10.125   9.255   0.231  0.0034 -0.0813 -0.2565
21984SOL    HW168490  10.173   9.192   0.176  1.5963  0.6906  0.2233
21984SOL    HW268491  10.146   9.340   0.193 -1.5335  0.2172 -0.4361
21985SOL     OW68492   7.154   8.221   0.122 -0.7787  0.4072  0.4696
21985SOL    HW168493   7.228   8.242   0.065 -1.2338 -1.4813 -0.8543
21985SOL    HW268494   7.076   8.243   0.069 -1.1796  1.1821  1.3729
21986SOL     OW68495   9.860   8.972   3.561  0.5233  0.5788 -0.1610
21986SOL    HW168496   9.860   9.035   3.633  0.6701  0.0618  0.2979
21986SOL    HW268497   9.891   8.890   3.601  0.4854  0.2580 -0.7827
21987SOL     OW68498   8.331   5.758   5.269  0.1223 -0.5894 -0.2521
21987SOL    HW168499   8.281   5.841   5.269 -0.4598 -0.9166  1.2689
21987SOL    HW268500   8.264   5.690   5.260  0.4099 -0.9745  0.4573
21988SOL     OW68501   8.637   9.704   1.388  0.0165  0.7149  0.4270
21988SOL    HW168502   8.632   9.759   1.466  1.4223  0.5119  0.6735
21988SOL    HW268503   8.677   9.623   1.419  1.2319  0.8936 -0.6415
21989SOL     OW68504   9.787   4.678   9.629  0.5498 -0.2359 -0.6996
21989SOL    HW168505   9.831   4.640   9.553  2.9075  0.2802  0.3868
21989SOL    HW268506   9.824   4.631   9.704  2.5395  3.2580  0.5819
21990SOL     OW68507   9.052   6.165   0.475 -0.0078  0.0610  0.5024
21990SOL    HW168508   8.993   6.230   0.438 -0.1563 -1.0800 -1.3030
21990SOL    HW268509   9.016   6.081   0.448  1.7728 -0.6893  0.3825
21991SOL     OW68510   9.533   6.540   6.247 -0.3593 -0.4624  0.6638
21991SOL    HW168511   9.614   6.496   6.220 -1.0525 -1.4960  0.2683
21991SOL    HW268512   9.562   6.627   6.274  1.1330 -1.3966  2.1719
21992SOL     OW68513   8.204   6.869   2.232 -0.2424  0.4858  0.1130
21992SOL    HW168514   8.170   6.785   2.261 -0.6725  0.7108  0.2693
21992SOL    HW268515   8.126   6.925   2.225  0.0764  0.9599  0.3264
21993SOL     OW68516   6.808   3.438   7.025 -0.2747  0.3946 -0.2245
21993SOL    HW168517   6.820   3.356   7.074  0.2765 -0.2691 -1.4346
21993SOL    HW268518   6.791   3.504   7.092 -2.5457 -1.0318  0.6555
21994SOL     OW68519   9.636   1.152   0.276  0.0855 -0.0506 -0.5480
21994SOL    HW168520   9.584   1.225   0.243 -0.7311 -0.1493  0.4865
21994SOL    HW268521   9.726   1.172   0.250 -0.1766  1.1680 -0.5324
21995SOL     OW68522   2.401   3.925   5.854 -0.5735  0.2857  0.1306
21995SOL    HW168523   2.450   3.987   5.801  1.4403 -0.9300  0.5178
21995SOL    HW268524   2.413   3.955   5.944 -0.0806 -0.3145  0.2708
21996SOL     OW68525  10.043   4.693   8.273 -0.1824 -0.1968 -0.0523
21996SOL    HW168526   9.988   4.751   8.220  2.2260  1.3042 -1.0122
21996SOL    HW268527  10.081   4.632   8.210  1.6388  0.7334  0.1113
21997SOL     OW68528   1.546   3.067   0.473  0.6629 -0.2715  0.1378
21997SOL    HW168529   1.585   2.980   0.462  1.6199 -0.3410  3.5039
21997SOL    HW268530   1.617   3.128   0.452  1.1926 -0.3661  1.5886
21998SOL     OW68531   7.630   9.094   2.576 -0.0459  0.5367 -0.3233
21998SOL    HW168532   7.644   9.080   2.670 -1.2585 -2.8377 -0.5866
21998SOL    HW268533   7.708   9.057   2.535 -2.2626 -3.8380 -0.9042
21999SOL     OW68534   1.484   9.592   4.202 -0.0994  0.0971 -0.1142
21999SOL    HW168535   1.445   9.505   4.208 -0.2033  0.0318 -1.4405
21999SOL    HW268536   1.578   9.575   4.194  0.2553  0.2592  3.2780
22000SOL     OW68537   3.822   7.648   4.738  0.4418  0.0830  0.1558
22000SOL    HW168538   3.875   7.663   4.816 -0.1009  2.1875  0.1699
22000SOL    HW268539   3.769   7.571   4.759  1.7082 -0.5528  1.0873
22001SOL     OW68540   8.900   5.258   1.132  0.0251 -0.1964  0.8106
22001SOL    HW168541   8.916   5.335   1.186  0.0289  0.7402 -0.5231
22001SOL    HW268542   8.819   5.277   1.086  0.2608 -0.8034  0.1381
22002SOL     OW68543   5.292   0.444   0.313  0.2772  0.2682 -0.6824
22002SOL    HW168544   5.205   0.482   0.330  1.0504  1.4035  0.8128
22002SOL    HW268545   5.345   0.518   0.282  0.9026 -0.2883 -0.9498
22003SOL     OW68546   4.991   7.504   5.847 -0.1414 -0.4383 -0.2109
22003SOL    HW168547   4.998   7.499   5.942  0.9533 -0.3591 -0.2782
22003SOL    HW268548   4.900   7.484   5.828 -0.2118 -1.1111  0.8113
22004SOL     OW68549   8.571   9.281   3.253  0.3180  0.5083 -0.5313
22004SOL    HW168550   8.564   9.333   3.333  0.2384  0.7736 -0.7094
22004SOL    HW268551   8.663   9.290   3.226  0.7570 -0.9184  0.4216
22005SOL     OW68552   1.506   4.850   2.997 -0.0300  0.3027 -0.5181
22005SOL    HW168553   1.459   4.861   3.080  1.0762  3.2045 -0.2305
22005SOL    HW268554   1.456   4.782   2.950 -1.6039 -0.2162  1.8165
22006SOL     OW68555   2.051   2.535   5.092  0.1114 -0.0216  0.5772
22006SOL    HW168556   1.961   2.562   5.112  0.4712  0.0759  2.0550
22006SOL    HW268557   2.056   2.444   5.122  0.4134 -0.1287  0.2065
22007SOL     OW68558   6.099   0.845   7.302 -0.2826 -0.0639 -0.1758
22007SOL    HW168559   6.088   0.751   7.288  1.1928 -0.2564 -0.2041
22007SOL    HW268560   6.181   0.865   7.256 -0.9982  1.3879 -0.8282
22008SOL     OW68561   2.335   1.358   6.932 -0.5560  0.6971 -0.5125
22008SOL    HW168562   2.393   1.331   6.861 -1.3215 -0.8021 -0.5960
22008SOL    HW268563   2.359   1.302   7.006 -1.0377  0.9433 -0.1615
22009SOL     OW68564   5.147   0.062   2.780  0.0922  0.7605  0.5445
22009SOL    HW168565   5.064   0.040   2.738  1.9722 -0.4046 -2.7422
22009SOL    HW268566   5.169  -0.015   2.832  0.2080  0.1128 -0.4395
22010SOL     OW68567   5.133   4.949   1.402 -0.5202  0.5983 -0.0502
22010SOL    HW168568   5.207   4.970   1.344  0.7361  0.0182  1.2894
22010SOL    HW268569   5.135   5.018   1.468  0.5404 -0.9093  1.5386
22011SOL     OW68570   7.386   2.734   5.831  0.2988 -0.3785 -0.8263
22011SOL    HW168571   7.392   2.716   5.737  1.0363  2.0485 -1.2666
22011SOL    HW268572   7.354   2.824   5.836 -0.2622 -0.6771  1.2775
22012SOL     OW68573   9.426   9.106   6.402  0.1513  0.2402  0.3198
22012SOL    HW168574   9.412   9.021   6.361 -0.8726 -1.2128  3.5440
22012SOL    HW268575   9.509   9.097   6.447  0.4211  1.2441  0.0370
22013SOL     OW68576   5.257   3.850   5.076 -0.2783  0.0087  0.3511
22013SOL    HW168577   5.294   3.849   4.987  2.1178 -0.5206  1.3234
22013SOL    HW268578   5.166   3.879   5.063 -0.0612 -0.3275 -2.2961
22014SOL     OW68579   6.665   4.840   2.144  0.4328 -0.4334 -0.7333
22014SOL    HW168580   6.614   4.874   2.218  1.6434  0.0611 -0.1121
22014SOL    HW268581   6.606   4.778   2.101  0.2397 -1.8582  1.5266
22015SOL     OW68582   4.602   0.660   5.346 -0.0135 -0.0480  0.1744
22015SOL    HW168583   4.656   0.625   5.418  0.1311  0.6801  0.4237
22015SOL    HW268584   4.644   0.628   5.267  1.0490  0.8728  0.3562
22016SOL     OW68585   9.162   4.404   4.898  0.2768 -0.2779  0.2918
22016SOL    HW168586   9.104   4.344   4.944  0.1677 -0.5358 -0.1759
22016SOL    HW268587   9.228   4.429   4.963  0.4773 -1.1187  0.4068
22017SOL     OW68588   1.346   2.220   0.105  0.4087  0.3295  0.2398
22017SOL    HW168589   1.384   2.194   0.189  0.4711 -0.0856  0.0829
22017SOL    HW268590   1.283   2.289   0.128  0.7208  0.5019  0.5807
22018SOL     OW68591   6.465   1.985   4.076  0.0258  0.5265 -0.0100
22018SOL    HW168592   6.503   1.954   3.993 -1.9119  0.1123 -0.7941
22018SOL    HW268593   6.452   2.078   4.063  2.2109  0.9774  0.8650
22019SOL     OW68594   7.026   5.431   9.989 -0.2834  0.0286  0.2139
22019SOL    HW168595   7.112   5.473   9.999 -0.0465 -0.4326  0.1133
22019SOL    HW268596   6.980   5.451  10.070 -0.0717  0.2594  0.2783
22020SOL     OW68597   6.055   6.089   7.570 -0.2017 -0.3421  0.0848
22020SOL    HW168598   5.983   6.071   7.631 -1.5027  2.4453 -0.5258
22020SOL    HW268599   6.127   6.116   7.626 -0.6680 -0.0025  0.5316
22021SOL     OW68600   7.551   5.019   4.588  0.1315 -0.8202  0.7518
22021SOL    HW168601   7.598   4.967   4.655 -0.1065 -1.9999  0.0248
22021SOL    HW268602   7.520   4.953   4.525  0.4592  0.2891 -0.5808
22022SOL     OW68603   4.701   0.762   3.489  0.1957 -0.1762 -0.1008
22022SOL    HW168604   4.716   0.669   3.472 -0.8887 -0.3943  0.0620
22022SOL    HW268605   4.643   0.763   3.565 -1.0031  0.5913 -1.0105
22023SOL     OW68606   8.805   1.950   2.856  0.6136  0.0577  0.4849
22023SOL    HW168607   8.895   1.931   2.830  0.6459  0.5792  0.2285
22023SOL    HW268608   8.810   2.036   2.898 -0.0336  0.7764 -0.9167
22024SOL     OW68609   8.856   5.937   0.977 -0.2221  0.4643 -0.8119
22024SOL    HW168610   8.770   5.929   1.017  0.5665 -1.9552  0.4967
22024SOL    HW268611   8.842   5.915   0.884 -1.1487  0.9366 -0.7825
22025SOL     OW68612   8.925   5.500  10.118  0.1264 -0.4457 -0.4114
22025SOL    HW168613   8.839   5.460  10.104 -1.0544  0.4749  3.4402
22025SOL    HW268614   8.969   5.441  10.179  1.1741  0.4536 -0.2947
22026SOL     OW68615   7.979   4.205   2.117  0.3467 -0.7120  0.0983
22026SOL    HW168616   7.898   4.219   2.166 -0.2718 -0.6986 -0.9047
22026SOL    HW268617   8.001   4.291   2.082  0.2989 -0.8797 -0.3585
22027SOL     OW68618   8.692   8.107   3.606  0.4518  0.4146 -0.1242
22027SOL    HW168619   8.666   8.133   3.517 -0.1909  0.2309  0.0052
22027SOL    HW268620   8.715   8.189   3.649 -0.1305  0.6165 -0.1833
22028SOL     OW68621   1.061   7.938  10.049  0.0536  0.0020 -0.2602
22028SOL    HW168622   1.053   7.842  10.045  1.4309 -0.0475 -3.2214
22028SOL    HW268623   0.974   7.970  10.024 -0.6250 -0.4600  1.4681
22029SOL     OW68624   3.349   5.762   7.546 -0.1910 -0.0851 -0.0642
22029SOL    HW168625   3.347   5.721   7.632 -1.0626 -2.0199 -0.9812
22029SOL    HW268626   3.393   5.698   7.489  1.3087  1.5912 -0.8612
22030SOL     OW68627   6.315   0.586   1.022  0.2603  0.1877  0.2732
22030SOL    HW168628   6.316   0.496   0.989  0.1153  1.5417 -3.6731
22030SOL    HW268629   6.276   0.579   1.109  0.3416 -3.5577  0.0983
22031SOL     OW68630  10.171   3.673   8.238 -0.6422 -0.7372  0.0607
22031SOL    HW168631  10.109   3.663   8.166  1.3629  0.2045 -1.8767
22031SOL    HW268632  10.154   3.760   8.274  0.1308 -0.0928 -1.0872
22032SOL     OW68633   5.050   3.962   1.574  0.6315  0.2036  0.3049
22032SOL    HW168634   5.075   3.904   1.502  1.1866 -0.4908  1.0449
22032SOL    HW268635   5.125   4.022   1.584  0.6669  0.1325  0.4690
22033SOL     OW68636   3.708   9.417   1.922  0.1350  1.0657 -0.2173
22033SOL    HW168637   3.800   9.392   1.921 -0.2067 -0.3006  1.4369
22033SOL    HW268638   3.683   9.416   2.014 -0.9907  3.5239 -0.4644
22034SOL     OW68639   7.085   6.380   9.431 -0.0238 -0.0773 -0.3175
22034SOL    HW168640   7.164   6.343   9.392  0.5947  0.9294 -0.0228
22034SOL    HW268641   7.115   6.417   9.515 -1.1685 -1.4764  0.7422
22035SOL     OW68642   0.580   8.916   9.571 -0.4815  0.7402 -0.3100
22035SOL    HW168643   0.487   8.903   9.585  0.0363 -1.7821  1.0335
22035SOL    HW268644   0.604   8.851   9.503  0.8642 -0.8830  1.6406
22036SOL     OW68645   1.403   0.499   3.697  0.7207  0.3402 -0.1626
22036SOL    HW168646   1.348   0.531   3.768 -2.7871 -2.4178 -1.4669
22036SOL    HW268647   1.483   0.469   3.741 -0.5564  0.4817  2.3821
22037SOL     OW68648   3.251   1.779   6.747 -0.1642  0.0076 -0.4178
22037SOL    HW168649   3.267   1.689   6.717  0.7693  0.0018  0.0804
22037SOL    HW268650   3.334   1.807   6.784 -0.6553  0.8393  0.0656
22038SOL     OW68651   0.576   2.246   3.561  0.3039  0.2587  0.0439
22038SOL    HW168652   0.515   2.305   3.604  0.6364  0.1722  0.6511
22038SOL    HW268653   0.656   2.298   3.550 -0.1785  0.6848 -1.6365
22039SOL     OW68654   1.062   2.058   9.453 -0.3610 -0.7315  0.1089
22039SOL    HW168655   1.083   1.989   9.390  1.4604  0.4350 -0.6130
22039SOL    HW268656   1.122   2.044   9.526  0.4625  0.4290 -0.3189
22040SOL     OW68657   0.039   3.122   4.811 -0.1539 -0.1531  0.3217
22040SOL    HW168658   0.095   3.136   4.735 -0.9072  1.1249 -0.0194
22040SOL    HW268659   0.052   3.201   4.865 -2.1730  0.5300 -0.1267
22041SOL     OW68660   8.114   5.756   3.184 -0.1285  0.4838 -0.1129
22041SOL    HW168661   8.051   5.704   3.135 -0.8051  1.1607  0.0408
22041SOL    HW268662   8.072   5.841   3.196  0.1850  0.4501  1.3136
22042SOL     OW68663   2.864   9.666   1.944  0.2290 -0.2497 -0.1753
22042SOL    HW168664   2.859   9.688   2.037  0.3880  1.9306 -0.6349
22042SOL    HW268665   2.775   9.643   1.920 -0.0938  0.5694  0.2150
22043SOL     OW68666   4.472   6.004   2.353 -0.1982  0.1944  0.5459
22043SOL    HW168667   4.379   5.986   2.364 -0.1883  0.3125  0.8296
22043SOL    HW268668   4.505   6.016   2.442  0.3192 -0.9611  0.5185
22044SOL     OW68669   5.287   7.933   3.587 -0.1413 -0.4346 -0.5647
22044SOL    HW168670   5.372   7.976   3.589 -0.9888  1.3446 -1.2673
22044SOL    HW268671   5.234   7.985   3.648 -1.0973 -0.6641 -1.1923
22045SOL     OW68672   3.291   2.069   4.134 -0.0983  0.4644  0.2102
22045SOL    HW168673   3.296   2.132   4.062  1.4265 -0.7087 -0.7636
22045SOL    HW268674   3.376   2.076   4.178  0.4689 -1.5184 -0.4829
22046SOL     OW68675   3.460   8.613   3.520  0.1038 -0.0429  0.3561
22046SOL    HW168676   3.527   8.672   3.486 -0.6885  0.1511 -0.9082
22046SOL    HW268677   3.438   8.648   3.606  0.9873  0.3996  0.4049
22047SOL     OW68678   1.090   0.837   3.854  0.1914  0.1390  0.0510
22047SOL    HW168679   1.104   0.808   3.944 -0.5722  0.3812  0.2530
22047SOL    HW268680   1.034   0.915   3.862 -0.3671 -0.1822 -0.6559
22048SOL     OW68681   0.141   6.886   7.425  0.2677 -0.0535  0.4278
22048SOL    HW168682   0.123   6.980   7.434  0.3016  0.1645 -1.5051
22048SOL    HW268683   0.227   6.874   7.465 -0.2822  0.5152  1.7988
22049SOL     OW68684   8.617   5.951   8.115  0.1943  0.1403  0.2412
22049SOL    HW168685   8.635   5.986   8.028  0.3624 -1.0435 -0.2085
22049SOL    HW268686   8.703   5.945   8.157  0.0968  0.8564  0.5589
22050SOL     OW68687   7.973   6.908   6.688 -0.1268 -0.1101  0.1939
22050SOL    HW168688   8.067   6.919   6.677 -0.0881  0.6225  1.1789
22050SOL    HW268689   7.935   6.941   6.607  0.2459  3.7232  1.4793
22051SOL     OW68690   4.738   9.642   1.776  0.3620 -0.2238  0.1312
22051SOL    HW168691   4.733   9.698   1.698  0.6402 -1.3898 -0.7378
22051SOL    HW268692   4.817   9.671   1.821  0.1865  0.4801 -0.0045
22052SOL     OW68693   4.440   0.484   7.322 -0.0027 -0.0380 -0.4648
22052SOL    HW168694   4.355   0.440   7.331  0.3829 -1.0166 -1.4801
22052SOL    HW268695   4.440   0.550   7.391 -0.0057 -2.5905  2.0939
22053SOL     OW68696   7.480   5.977   6.423 -0.4479 -0.1526  0.1929
22053SOL    HW168697   7.486   5.881   6.416  0.4471 -0.0203 -1.1423
22053SOL    HW268698   7.425   6.003   6.348  0.8587  0.5167 -0.5560
22054SOL     OW68699   2.548   7.686   9.970 -0.8449 -0.4601  0.0393
22054SOL    HW168700   2.531   7.763   9.917  0.8684  1.0587  1.5944
22054SOL    HW268701   2.628   7.648   9.933  0.0495  0.2981  1.1389
22055SOL     OW68702   8.857   3.603   0.422  0.1301  0.2313  0.5921
22055SOL    HW168703   8.923   3.558   0.475  0.7026  0.7497  0.3265
22055SOL    HW268704   8.854   3.554   0.340  1.0206  0.8886  0.1591
22056SOL     OW68705   7.035   8.735   4.519  0.2291 -0.6922  0.1471
22056SOL    HW168706   7.032   8.682   4.440  0.8599  1.2180 -1.2105
22056SOL    HW268707   7.112   8.791   4.508 -1.7284  2.1940  0.3534
22057SOL     OW68708   4.726   3.744   6.718 -0.1453 -0.3776  0.2365
22057SOL    HW168709   4.788   3.672   6.728  0.3828  0.1858  1.1684
22057SOL    HW268710   4.663   3.731   6.789 -1.5528 -1.3775 -1.1647
22058SOL     OW68711   7.535   2.686   1.281 -0.4654  0.1560 -0.2756
22058SOL    HW168712   7.607   2.665   1.221  0.9610  0.0233  1.4311
22058SOL    HW268713   7.456   2.656   1.236  0.7273 -1.2226 -1.4833
22059SOL     OW68714   7.076   1.804   4.461  0.1094 -0.3456  0.2901
22059SOL    HW168715   7.100   1.797   4.553  0.4896  1.3166  0.3253
22059SOL    HW268716   7.148   1.853   4.421 -0.9711  0.6319 -0.4978
22060SOL     OW68717   3.548   2.723   2.354  0.3200 -0.1284  0.2215
22060SOL    HW168718   3.587   2.648   2.398  0.9317  1.1699  1.9636
22060SOL    HW268719   3.623   2.772   2.320  0.0308  0.6811  0.7413
22061SOL     OW68720   3.851   1.485   0.153 -0.1163 -0.0571  0.1858
22061SOL    HW168721   3.901   1.519   0.079 -0.5572  1.2972  0.4940
22061SOL    HW268722   3.767   1.458   0.115 -0.1918  0.2644  0.1241
22062SOL     OW68723   7.317   9.152   4.557  0.0186 -0.5130  0.2191
22062SOL    HW168724   7.258   9.218   4.521 -0.9088  0.2250  3.0084
22062SOL    HW268725   7.340   9.184   4.644  0.7742 -3.0957  1.0277
22063SOL     OW68726   6.004   9.701   3.357 -0.2861 -0.0015  0.1483
22063SOL    HW168727   6.094   9.728   3.373  0.0717 -0.0621 -1.6568
22063SOL    HW268728   6.011   9.614   3.319 -1.1671 -0.3938  0.8523
22064SOL     OW68729   9.175   8.420   8.103 -0.3154  0.3767  0.2214
22064SOL    HW168730   9.144   8.462   8.182  0.9509 -1.9174  2.0094
22064SOL    HW268731   9.096   8.386   8.061 -0.7996 -0.2651  1.6336
22065SOL     OW68732   2.374   0.749   0.653  0.3574 -1.0786 -0.0567
22065SOL    HW168733   2.442   0.737   0.587 -2.7381 -1.5891 -3.3506
22065SOL    HW268734   2.343   0.660   0.672 -0.7710 -0.7380 -0.2254
22066SOL     OW68735   5.885   1.431   0.081  0.1289 -0.1125  0.4691
22066SOL    HW168736   5.802   1.437   0.128  1.2334  0.2825  2.4256
22066SOL    HW268737   5.895   1.517   0.039 -2.3779 -1.4949 -3.2309
22067SOL     OW68738   1.993   2.216   1.787 -0.0517 -0.1507  0.1169
22067SOL    HW168739   1.992   2.124   1.760 -1.2741  0.1628 -0.9803
22067SOL    HW268740   1.906   2.248   1.766  0.3098  1.2259  0.6458
22068SOL     OW68741   3.609   4.261   2.575  1.0954  0.4463 -0.2899
22068SOL    HW168742   3.618   4.185   2.633 -1.5915  1.1043  1.1149
22068SOL    HW268743   3.618   4.337   2.633  2.3958  1.2044 -1.4509
22069SOL     OW68744  10.015   5.900   8.893  0.4627 -0.0815  0.2318
22069SOL    HW168745  10.017   5.927   8.801  0.9319 -0.7231  0.0517
22069SOL    HW268746  10.099   5.855   8.906  1.4833  2.1767  1.6421
22070SOL     OW68747   0.533   1.370   2.434  0.6103 -0.1774 -0.1492
22070SOL    HW168748   0.628   1.380   2.426  0.4112  0.9381 -1.2170
22070SOL    HW268749   0.503   1.452   2.471  0.1428 -0.8364  0.9562
22071SOL     OW68750   2.751   4.628   4.789 -0.6704 -0.0857 -0.5638
22071SOL    HW168751   2.764   4.718   4.759 -0.5909 -0.3140 -1.2396
22071SOL    HW268752   2.671   4.631   4.840 -0.3870  0.4702 -0.1440
22072SOL     OW68753   0.063   8.863   1.600  0.3779 -0.1114  0.0918
22072SOL    HW168754  -0.022   8.833   1.632 -0.1863  0.7842 -0.5594
22072SOL    HW268755   0.081   8.805   1.525 -0.2713  0.5417 -0.5774
22073SOL     OW68756   0.190   1.553   5.376  0.6860 -0.0300 -0.3740
22073SOL    HW168757   0.198   1.492   5.303  2.1574 -0.9634  0.5449
22073SOL    HW268758   0.109   1.525   5.421  1.2019 -1.1404 -0.1187
22074SOL     OW68759   9.121   9.135   2.864 -0.3183 -0.4552 -0.4349
22074SOL    HW168760   9.025   9.131   2.864 -0.3284 -0.1549  0.0017
22074SOL    HW268761   9.148   9.065   2.804 -0.7821 -1.1452  0.1540
22075SOL     OW68762   7.016   6.584   4.170 -0.0206  0.3208  0.5148
22075SOL    HW168763   6.953   6.513   4.157 -0.1715  0.3681  0.9575
22075SOL    HW268764   7.083   6.569   4.103  0.1175 -0.4328  0.8117
22076SOL     OW68765   8.299   8.345   4.916  1.1006  0.2458 -0.2445
22076SOL    HW168766   8.295   8.374   4.825  0.1211 -0.3445 -0.3929
22076SOL    HW268767   8.210   8.317   4.936  1.4823 -0.3236  0.6593
22077SOL     OW68768   6.149   6.017   5.242 -0.1716  0.3137 -0.2129
22077SOL    HW168769   6.185   6.062   5.319  0.5483  0.5624 -0.6913
22077SOL    HW268770   6.226   5.985   5.195 -0.4885  2.1637 -2.0528
22078SOL     OW68771   2.580   4.308   2.497  0.3236  0.2255 -0.3193
22078SOL    HW168772   2.612   4.220   2.520  0.3932  0.1443 -0.7206
22078SOL    HW268773   2.509   4.292   2.434  1.0821  0.4999 -1.2492
22079SOL     OW68774   0.864   6.537   4.125 -0.6547  0.4115 -0.0821
22079SOL    HW168775   0.896   6.514   4.212 -0.3198 -0.2891 -0.3880
22079SOL    HW268776   0.928   6.599   4.092  1.0947 -1.8927 -1.1727
22080SOL     OW68777   7.709   8.457   5.285  0.1906 -0.7747  0.0904
22080SOL    HW168778   7.758   8.424   5.209 -1.4291 -0.5092 -1.0913
22080SOL    HW268779   7.674   8.379   5.327 -1.1793 -0.7541 -1.0060
22081SOL     OW68780   2.266  10.136   0.896 -0.0428 -0.1861  0.3266
22081SOL    HW168781   2.184  10.184   0.892  0.6680  1.2158  1.7846
22081SOL    HW268782   2.289  10.120   0.804 -0.6481  1.6861 -0.1804
22082SOL     OW68783   7.320   4.550   6.498  0.6781  0.3271 -0.4138
22082SOL    HW168784   7.258   4.623   6.490  0.2033 -0.2526 -2.4719
22082SOL    HW268785   7.331   4.519   6.408  1.6484 -1.5019  0.3160
22083SOL     OW68786   7.891   7.313   9.158  0.1899 -0.4547  0.4276
22083SOL    HW168787   7.799   7.335   9.146 -0.3607 -3.4207 -1.3583
22083SOL    HW268788   7.891   7.245   9.226  1.0998 -0.0911  0.8016
22084SOL     OW68789   8.863   0.146   7.135 -0.2697  0.3221  0.3099
22084SOL    HW168790   8.869   0.081   7.205 -1.5060 -1.4120 -1.1193
22084SOL    HW268791   8.927   0.117   7.070 -0.5206  0.7718 -0.1438
22085SOL     OW68792   3.009   8.849   3.325  0.1362  0.5538 -0.4336
22085SOL    HW168793   3.037   8.761   3.298  1.3755  0.9932 -0.6005
22085SOL    HW268794   3.091   8.897   3.338 -0.4933  1.0347  1.8810
22086SOL     OW68795   5.376   6.352   3.206 -0.4393 -0.1769  0.1057
22086SOL    HW168796   5.326   6.276   3.236 -1.6337 -1.0260 -3.8153
22086SOL    HW268797   5.335   6.426   3.251 -1.3505 -1.4877  1.4946
22087SOL     OW68798   0.669   2.191   2.655  0.3146 -0.4025 -0.6105
22087SOL    HW168799   0.631   2.262   2.603  0.7741 -1.0172 -1.8122
22087SOL    HW268800   0.756   2.223   2.679 -0.1370  0.1340  0.3081
22088SOL     OW68801   9.954   8.031   5.296  0.8084  0.0790  0.2196
22088SOL    HW168802  10.011   8.071   5.230  0.4241  1.8027  0.8868
22088SOL    HW268803  10.014   8.010   5.368  0.6801  1.7326  0.8507
22089SOL     OW68804   3.200   5.183   2.954 -0.0616  0.1954 -0.0412
22089SOL    HW168805   3.276   5.176   2.897  0.4004  1.0398  0.4613
22089SOL    HW268806   3.235   5.212   3.038 -0.6795 -1.4810  0.8126
22090SOL     OW68807   7.715   3.832   5.785 -0.0629 -0.9511 -0.1286
22090SOL    HW168808   7.702   3.899   5.718 -0.3618  1.6486  2.4099
22090SOL    HW268809   7.629   3.794   5.799  0.0663 -1.7653 -1.4208
22091SOL     OW68810   1.730   5.552   5.192 -0.0191  0.3980 -0.1280
22091SOL    HW168811   1.688   5.558   5.278  1.0265  2.4248  0.2890
22091SOL    HW268812   1.659   5.564   5.130 -0.5412  0.5694  0.4909
22092SOL     OW68813   2.429   3.221   2.327 -0.2567 -0.2389  0.5879
22092SOL    HW168814   2.443   3.285   2.258  0.2691 -0.7179  0.2495
22092SOL    HW268815   2.347   3.177   2.304 -0.5131  0.1759  0.7152
22093SOL     OW68816   9.332   9.779   0.942  0.0100  0.4017  0.6345
22093SOL    HW168817   9.273   9.814   0.876 -0.0605  0.6245  0.8157
22093SOL    HW268818   9.316   9.833   1.020  0.7926  0.7821  0.5412
22094SOL     OW68819   0.903   8.269   0.606 -0.2468 -0.3183  0.3240
22094SOL    HW168820   0.885   8.251   0.514 -0.0430 -0.3982  0.3001
22094SOL    HW268821   0.973   8.334   0.605  0.2545 -0.8582  0.4329
22095SOL     OW68822   6.160   3.662   2.303  0.1153 -0.1431  0.4132
22095SOL    HW168823   6.253   3.651   2.324  0.2277  1.0497  0.5557
22095SOL    HW268824   6.116   3.662   2.388 -0.1204 -1.5683  0.3048
22096SOL     OW68825   3.448   6.131   3.825  0.4599 -0.1557 -0.0253
22096SOL    HW168826   3.493   6.193   3.882  0.8032 -0.1772 -0.2749
22096SOL    HW268827   3.466   6.045   3.863 -1.2213 -0.0225  1.1764
22097SOL     OW68828   1.280   9.159   7.373 -0.1035 -0.6545 -0.3312
22097SOL    HW168829   1.202   9.203   7.407 -1.0321 -1.5853 -1.2233
22097SOL    HW268830   1.353   9.206   7.413 -1.1385 -1.2903  2.4511
22098SOL     OW68831   1.615   0.409   3.273  0.6091 -0.1765  0.0619
22098SOL    HW168832   1.538   0.420   3.329 -0.0583  0.5075 -0.9807
22098SOL    HW268833   1.660   0.493   3.276  1.0298 -0.4053  0.2368
22099SOL     OW68834   7.947   7.260   4.175 -0.5896 -0.1563 -0.2258
22099SOL    HW168835   7.857   7.248   4.204 -1.0321  0.2651 -1.3894
22099SOL    HW268836   7.990   7.304   4.248 -1.4323  0.0174  0.1695
22100SOL     OW68837   4.683   7.344   1.510  0.2239 -0.2306  0.3856
22100SOL    HW168838   4.622   7.406   1.551  1.5182  0.3098  1.5705
22100SOL    HW268839   4.712   7.389   1.430  0.1705  0.1447  0.5736
22101SOL     OW68840   4.113   5.196   5.663  0.1221 -0.4135 -0.1416
22101SOL    HW168841   4.149   5.191   5.752  3.1571 -0.9850 -1.3425
22101SOL    HW268842   4.113   5.289   5.643  0.1492 -0.3441  0.1716
22102SOL     OW68843   1.609   5.640   8.869 -0.6254  0.2681  0.2394
22102SOL    HW168844   1.584   5.594   8.789 -0.6045 -1.0176  0.9580
22102SOL    HW268845   1.526   5.652   8.916 -0.2144 -1.9318  1.5525
22103SOL     OW68846   1.409   9.957   9.882 -0.0631  0.3444 -0.2238
22103SOL    HW168847   1.441  10.039   9.845  0.3354  0.4908  0.4305
22103SOL    HW268848   1.349   9.922   9.816  1.2044  0.2290 -1.3425
22104SOL     OW68849   1.361   1.422   9.129 -0.0216  0.0321 -0.1209
22104SOL    HW168850   1.358   1.419   9.225  1.1538 -1.2631 -0.1018
22104SOL    HW268851   1.303   1.351   9.101  0.0930  0.0315 -0.3519
22105SOL     OW68852   2.128   4.933   9.416 -0.0326 -0.1670 -0.1556
22105SOL    HW168853   2.212   4.977   9.405 -0.1218 -0.3866 -1.8205
22105SOL    HW268854   2.148   4.840   9.407 -0.1181 -0.3730  1.6424
22106SOL     OW68855   6.815   6.552   4.412 -0.2920 -0.2702 -0.3442
22106SOL    HW168856   6.773   6.519   4.333  0.8999 -0.2345 -1.0104
22106SOL    HW268857   6.904   6.516   4.408 -0.1031  0.0534  0.7775
22107SOL     OW68858   8.671   1.507   9.275 -0.0345  0.3467  0.1047
22107SOL    HW168859   8.586   1.535   9.240 -1.2702 -1.9373  1.1260
22107SOL    HW268860   8.666   1.529   9.368  1.2428  1.8756 -0.1780
22108SOL     OW68861   2.172   9.463   2.647  0.2388  0.1717 -0.0785
22108SOL    HW168862   2.133   9.407   2.581 -1.0917  0.3696  0.5271
22108SOL    HW268863   2.155   9.552   2.617  0.0745  0.2620  0.2805
22109SOL     OW68864   1.758   3.217   0.809 -0.1720  0.0856  0.1224
22109SOL    HW168865   1.783   3.233   0.900  0.8729  2.1463 -0.4981
22109SOL    HW268866   1.807   3.138   0.785  1.0492  0.6263  0.7638
22110SOL     OW68867   2.387   4.250   8.220 -0.0123 -0.7072  0.0522
22110SOL    HW168868   2.332   4.313   8.266  2.3538  0.5702  1.1986
22110SOL    HW268869   2.328   4.178   8.199 -2.3076  1.0115  0.4592
22111SOL     OW68870   2.861   1.580   6.378 -0.2405  0.0697 -0.2264
22111SOL    HW168871   2.818   1.635   6.313  0.8245  0.7349 -0.3751
22111SOL    HW268872   2.936   1.631   6.407 -1.2496  0.2168  2.2508
22112SOL     OW68873   8.431   5.763   9.614 -0.2617  0.2860  0.4465
22112SOL    HW168874   8.403   5.675   9.586  1.5088  0.3941 -1.8566
22112SOL    HW268875   8.475   5.749   9.697  1.6949 -1.3413 -0.7991
22113SOL     OW68876  10.050   9.855   4.585 -0.2392  0.5790 -0.2249
22113SOL    HW168877   9.960   9.866   4.615 -0.4753  0.4582 -0.8755
22113SOL    HW268878  10.091   9.941   4.598 -0.0604  0.2729  1.3194
22114SOL     OW68879   1.527   7.792   1.594  0.3676  0.3513 -0.3885
22114SOL    HW168880   1.554   7.825   1.508  2.0622  1.8500  0.6925
22114SOL    HW268881   1.490   7.868   1.639 -2.1271 -0.8047 -0.3935
22115SOL     OW68882   0.239   2.439   3.150 -0.2750 -0.9096  0.1699
22115SOL    HW168883   0.275   2.422   3.237  2.6020 -1.9166 -1.1493
22115SOL    HW268884   0.241   2.354   3.106  0.1360 -0.0388 -1.5288
22116SOL     OW68885   7.970   7.776   4.309 -0.5419 -0.7604  0.7150
22116SOL    HW168886   7.984   7.842   4.241 -0.5387  1.7739  3.0868
22116SOL    HW268887   8.055   7.768   4.352 -0.9995 -0.9562  1.6013
22117SOL     OW68888   5.605   3.874   0.587  0.1992  0.1752 -0.3128
22117SOL    HW168889   5.597   3.780   0.570  3.0484  0.0672 -1.3991
22117SOL    HW268890   5.521   3.900   0.625 -1.4555 -2.3366 -2.1748
22118SOL     OW68891   2.221   5.804   4.623 -0.5610  0.6094  0.3177
22118SOL    HW168892   2.175   5.886   4.642  0.8788  1.0926  1.8065
22118SOL    HW268893   2.303   5.811   4.671  1.0096 -0.3167 -2.1220
22119SOL     OW68894   0.077   7.804   2.393  0.3881  0.0688  0.0902
22119SOL    HW168895   0.148   7.793   2.456  0.9440  0.2251 -0.4993
22119SOL    HW268896   0.112   7.767   2.312 -0.5639 -0.7350  0.0433
22120SOL     OW68897   0.125   8.700   6.899  0.3691 -0.3868  0.3838
22120SOL    HW168898   0.106   8.791   6.922  1.2862  0.1077 -0.7327
22120SOL    HW268899   0.189   8.672   6.964  1.2910  0.2926 -0.2064
22121SOL     OW68900   0.076   7.118   8.703  0.0069  0.2230 -0.1099
22121SOL    HW168901   0.038   7.139   8.618  1.2621  0.9536 -0.4987
22121SOL    HW268902   0.082   7.202   8.749  0.6669  0.0503  0.1357
22122SOL     OW68903   4.958   9.171   1.858  0.6395 -0.2283 -0.0648
22122SOL    HW168904   4.897   9.223   1.806  0.4690  2.3400  2.5989
22122SOL    HW268905   5.045   9.202   1.829  0.5547  0.7460  0.6930
22123SOL     OW68906   1.622   8.493   8.182 -0.0555  0.1844  0.5149
22123SOL    HW168907   1.533   8.468   8.208 -0.3574  0.8542  0.1641
22123SOL    HW268908   1.647   8.560   8.246 -0.1596  0.6404  0.0878
22124SOL     OW68909   5.738   5.916   2.334 -0.6849 -0.2104 -0.2878
22124SOL    HW168910   5.816   5.971   2.338 -1.7282  1.2264  0.6033
22124SOL    HW268911   5.704   5.929   2.245 -0.7226  0.2960 -0.2002
22125SOL     OW68912   6.593   7.728   9.231  0.2788  0.1234 -0.2293
22125SOL    HW168913   6.522   7.716   9.295 -0.1782  0.2787 -0.7066
22125SOL    HW268914   6.549   7.729   9.146  1.0032 -1.1559 -0.6292
22126SOL     OW68915   8.463   9.879   7.746  0.4319 -0.5732  0.2762
22126SOL    HW168916   8.504   9.820   7.683 -0.3454 -0.1406 -0.6438
22126SOL    HW268917   8.372   9.886   7.717  0.1405 -0.1290  1.2715
22127SOL     OW68918   6.104   8.821   2.608  0.0625 -0.2830  0.6156
22127SOL    HW168919   6.091   8.829   2.513  1.1999  1.4067  0.5852
22127SOL    HW268920   6.023   8.853   2.646  0.7596  1.9934  0.2533
22128SOL     OW68921   6.466   0.882   2.508 -0.1372  0.2209  0.0386
22128SOL    HW168922   6.410   0.932   2.568  0.0129  2.3785 -1.5793
22128SOL    HW268923   6.543   0.861   2.559 -0.2369  1.5941  0.7851
22129SOL     OW68924   7.492   6.709   7.505 -0.4060 -0.2997 -0.1967
22129SOL    HW168925   7.466   6.640   7.566 -0.7121  1.6026  1.9029
22129SOL    HW268926   7.574   6.744   7.541  0.1663 -0.0942 -1.6716
22130SOL     OW68927   3.663   7.321   9.009  0.4077  0.6345  0.2482
22130SOL    HW168928   3.724   7.356   8.944  0.2828 -0.8630 -0.6864
22130SOL    HW268929   3.638   7.397   9.061  2.9953  1.2691  0.5991
22131SOL     OW68930   5.945   5.037   1.247 -0.1584  0.2819 -0.5640
22131SOL    HW168931   5.915   5.126   1.265 -0.2335  0.5930 -2.1821
22131SOL    HW268932   5.977   5.040   1.157  0.8347 -1.0695 -0.2729
22132SOL     OW68933   9.908   9.266   4.065 -0.4126 -0.4130  0.5982
22132SOL    HW168934   9.930   9.265   4.158 -2.0819  0.0656  1.0003
22132SOL    HW268935   9.974   9.208   4.025  1.7426  1.1899  1.7246
22133SOL     OW68936   7.321   9.889   8.742  0.6990 -0.2037 -0.3358
22133SOL    HW168937   7.298   9.956   8.807 -1.8645 -1.5833  0.2251
22133SOL    HW268938   7.407   9.857   8.770  1.4108  1.9707  0.0791
22134SOL     OW68939   4.116   6.909   5.332 -0.6697 -0.3045  0.1788
22134SOL    HW168940   4.184   6.966   5.368 -0.9429  0.0301  0.1742
22134SOL    HW268941   4.072   6.873   5.409 -1.1918  0.3344  0.1784
22135SOL     OW68942   8.836   4.035   2.837 -0.8195  0.0367  0.2899
22135SOL    HW168943   8.856   3.946   2.866 -0.0907  0.5461  1.3621
22135SOL    HW268944   8.746   4.030   2.803 -1.5360 -0.6477  2.2581
22136SOL     OW68945   8.383   8.236   3.566 -0.3887  0.3633  0.0371
22136SOL    HW168946   8.300   8.275   3.593 -0.7563  0.4093 -1.1356
22136SOL    HW268947   8.358   8.158   3.516  0.2532  0.8252 -1.0236
22137SOL     OW68948   4.248   2.077   8.589 -0.7801 -0.0181  0.0380
22137SOL    HW168949   4.215   1.990   8.612 -2.3525  0.3444 -0.7896
22137SOL    HW268950   4.220   2.091   8.499  0.6397  0.8025 -0.2952
22138SOL     OW68951   0.120   7.324   3.376 -0.2102 -0.7765  0.1417
22138SOL    HW168952   0.069   7.403   3.356  0.9590 -0.3870 -1.3540
22138SOL    HW268953   0.095   7.262   3.307 -0.7901 -1.5748  1.0587
22139SOL     OW68954   4.371   2.526   7.099 -0.3677 -0.5617  0.0929
22139SOL    HW168955   4.400   2.507   7.188 -4.0140 -1.2301  1.2367
22139SOL    HW268956   4.443   2.498   7.043  1.2888 -1.7304  2.7246
22140SOL     OW68957   5.147   5.764   7.951 -0.1589 -0.0873  0.3017
22140SOL    HW168958   5.199   5.845   7.954 -1.9397  1.0535  0.7195
22140SOL    HW268959   5.149   5.739   7.858 -0.3284  0.9209  0.0135
22141SOL     OW68960   3.482   9.586   7.438  0.2024 -0.3841  0.6675
22141SOL    HW168961   3.524   9.599   7.353 -0.5175  0.4270  0.4340
22141SOL    HW268962   3.555   9.578   7.500  0.7179 -0.4663  0.0493
22142SOL     OW68963   3.752   0.185   5.884  0.4559  0.1475  0.0051
22142SOL    HW168964   3.708   0.101   5.870  0.1180  0.5051 -1.1589
22142SOL    HW268965   3.822   0.166   5.946  1.2313 -1.2658 -1.2950
22143SOL     OW68966   7.635   0.454   8.810  0.6205  0.1009 -0.2724
22143SOL    HW168967   7.697   0.523   8.833  0.1854  0.3856  0.0448
22143SOL    HW268968   7.651   0.385   8.874  0.0136  0.5329  0.3576
22144SOL     OW68969   8.220   9.952   9.434  0.6305 -0.1761 -0.5493
22144SOL    HW168970   8.179   9.969   9.519  1.7235 -0.5139  0.0504
22144SOL    HW268971   8.147   9.936   9.375 -0.0778 -2.3038  0.8418
22145SOL     OW68972   0.299   0.442   9.477  0.3431  0.6925 -0.8034
22145SOL    HW168973   0.320   0.530   9.509 -0.3894  0.6847 -0.2900
22145SOL    HW268974   0.221   0.454   9.423 -0.3291  0.2067  0.0640
22146SOL     OW68975   3.102   2.473   4.099 -0.2948 -0.3970  0.2109
22146SOL    HW168976   3.029   2.512   4.051  1.7990  2.9069 -0.4225
22146SOL    HW268977   3.166   2.451   4.032 -0.1776 -2.1283  0.8784
22147SOL     OW68978   4.194   8.572   1.217  0.3378 -0.2273 -0.1985
22147SOL    HW168979   4.249   8.649   1.224 -0.1322  0.4726 -3.3791
22147SOL    HW268980   4.105   8.604   1.235  0.3252 -0.3437 -0.0463
22148SOL     OW68981   1.425   6.446   3.187  0.2128  0.1749  0.0230
22148SOL    HW168982   1.401   6.525   3.140  0.6746  0.7707  0.7815
22148SOL    HW268983   1.355   6.433   3.251  0.6879  0.5856  0.6332
22149SOL     OW68984   4.137   4.311   3.791 -0.4753 -0.3230  0.5542
22149SOL    HW168985   4.165   4.308   3.882  1.2450 -3.4624  0.0031
22149SOL    HW268986   4.051   4.270   3.790 -0.7763  0.3058  0.8613
22150SOL     OW68987   9.543   3.682   5.583  0.2187 -0.1564 -0.3479
22150SOL    HW168988   9.582   3.769   5.589 -1.2174  0.4107  0.9618
22150SOL    HW268989   9.595   3.629   5.644 -0.7979  0.5169  1.1327
22151SOL     OW68990   5.818   4.486   3.378 -0.3731  0.1135  0.0776
22151SOL    HW168991   5.855   4.424   3.315 -0.3818  0.0464  0.1388
22151SOL    HW268992   5.844   4.572   3.344 -0.4159  0.0799 -0.0423
22152SOL     OW68993   2.275  10.164   9.268 -0.5438  0.9182  0.2722
22152SOL    HW168994   2.335  10.093   9.290  1.7751  2.2872 -1.3573
22152SOL    HW268995   2.256  10.207   9.351  0.3206  0.1194  0.8923
22153SOL     OW68996   6.036   8.633   9.231  0.2004 -0.3487  0.3845
22153SOL    HW168997   6.089   8.565   9.190  1.6030  0.2782  1.0880
22153SOL    HW268998   6.073   8.715   9.198 -0.5826  0.0926  0.5982
22154SOL     OW68999   5.486   7.403   1.663  0.1887 -0.5005 -0.4606
22154SOL    HW169000   5.415   7.463   1.641  0.9417 -0.0004 -1.5326
22154SOL    HW269001   5.566   7.451   1.643  0.8152 -1.5418 -0.4926
22155SOL     OW69002   5.446   5.285   7.495 -0.1018 -0.4664 -0.2262
22155SOL    HW169003   5.536   5.313   7.510 -0.2172  0.3844 -1.0839
22155SOL    HW269004   5.449   5.240   7.410 -0.3882 -0.8918 -0.0129
22156SOL     OW69005   9.582   8.097   8.449 -0.2228 -0.1499 -0.3279
22156SOL    HW169006   9.589   8.141   8.534  0.1615 -0.9707  0.0687
22156SOL    HW269007   9.556   8.166   8.388  0.2065  0.5936  0.3244
22157SOL     OW69008   3.208   9.354   3.591  0.3653 -0.0051 -0.4716
22157SOL    HW169009   3.132   9.305   3.559 -0.1513 -0.2340  1.0995
22157SOL    HW269010   3.201   9.439   3.548 -0.8240 -0.0016 -0.2882
22158SOL     OW69011   3.974   8.521   1.817 -0.5078 -0.0850 -0.0031
22158SOL    HW169012   4.019   8.601   1.847  1.5047 -0.8864 -0.8395
22158SOL    HW269013   4.006   8.508   1.728 -2.7428 -0.4555 -0.7642
22159SOL     OW69014   6.511   0.250   3.644  0.2884  0.3706  0.0275
22159SOL    HW169015   6.605   0.238   3.658  0.2811  0.6309  0.3106
22159SOL    HW269016   6.482   0.168   3.605  0.5627  0.1446  0.2953
22160SOL     OW69017   6.601   0.454   5.991 -0.5724 -0.1129 -0.5126
22160SOL    HW169018   6.540   0.516   6.030  1.3109  2.0275 -0.8614
22160SOL    HW269019   6.547   0.380   5.964 -2.8855  1.4303 -0.1870
22161SOL     OW69020   6.050   7.673   7.066  0.4786 -0.5373 -0.3148
22161SOL    HW169021   5.958   7.678   7.039  0.0519 -1.2580  0.9688
22161SOL    HW269022   6.073   7.762   7.090 -0.0652 -0.4571 -0.0769
22162SOL     OW69023   3.999   6.015   5.725 -0.0091 -0.0188 -0.7962
22162SOL    HW169024   3.975   5.958   5.798 -0.5158  0.0894 -0.8702
22162SOL    HW269025   4.016   5.955   5.652 -1.1516 -0.0647 -1.0473
22163SOL     OW69026   7.234   7.785   0.858  0.4054 -0.0627  0.1331
22163SOL    HW169027   7.189   7.775   0.774  0.8176 -1.4382  0.0753
22163SOL    HW269028   7.310   7.841   0.837  0.4440 -0.3056 -0.3805
22164SOL     OW69029   0.040  10.189   2.074  0.4965 -0.3426 -0.5454
22164SOL    HW169030  -0.051  10.170   2.049 -0.7158  0.5619  2.7780
22164SOL    HW269031   0.059  10.126   2.144  2.4251 -0.4988 -1.1931
22165SOL     OW69032   4.649   8.805   5.536 -0.1568 -0.1800 -0.0207
22165SOL    HW169033   4.649   8.883   5.481 -2.7048 -0.9288 -1.1376
22165SOL    HW269034   4.738   8.771   5.530  1.6444  3.8185  2.2538
22166SOL     OW69035   4.719   4.127   5.494 -0.3308  0.0767 -0.5409
22166SOL    HW169036   4.643   4.084   5.532  1.1777 -1.2367  1.0847
22166SOL    HW269037   4.747   4.070   5.423  0.2028 -0.3575  0.0189
22167SOL     OW69038   2.182   3.798   9.491  0.2767 -0.2499  0.0342
22167SOL    HW169039   2.201   3.708   9.465 -0.5404  0.1607 -2.1312
22167SOL    HW269040   2.086   3.803   9.492  0.3192  0.5313  0.3791
22168SOL     OW69041   6.182   4.907   7.962 -0.0802 -0.3556 -0.0674
22168SOL    HW169042   6.214   4.962   7.891 -0.3715 -2.3482 -1.7768
22168SOL    HW269043   6.255   4.904   8.024 -0.0097  1.7991  0.0029
22169SOL     OW69044   2.744   1.279   0.397  0.2365  0.3142 -0.0786
22169SOL    HW169045   2.673   1.276   0.462 -0.6466 -1.2552 -1.0741
22169SOL    HW269046   2.699   1.273   0.312  1.5725 -0.9104 -0.7248
22170SOL     OW69047   7.066   1.246   3.110  0.5602 -0.1124 -0.3259
22170SOL    HW169048   7.104   1.291   3.186 -1.6400 -0.2486  0.9068
22170SOL    HW269049   7.127   1.175   3.092  1.3569  0.1913  1.0349
22171SOL     OW69050   1.676   2.532   8.505  0.4510 -0.3006 -0.3941
22171SOL    HW169051   1.627   2.567   8.580  0.3435  0.3175 -0.7590
22171SOL    HW269052   1.743   2.598   8.487  1.9804 -1.5161  0.6335
22172SOL     OW69053   1.212   1.881   2.028  0.0397  0.1307 -0.5317
22172SOL    HW169054   1.169   1.819   1.969  0.3256 -2.3195  1.7637
22172SOL    HW269055   1.148   1.894   2.098  1.4639 -0.4799  0.8947
22173SOL     OW69056   6.834   6.222  10.096  0.5987  0.2203  0.0223
22173SOL    HW169057   6.838   6.315  10.078 -1.0508  0.0827 -1.1949
22173SOL    HW269058   6.924   6.191  10.083  0.8867  1.4026 -0.8816
22174SOL     OW69059   4.832   6.398   4.730  0.1331  0.3664  0.2061
22174SOL    HW169060   4.922   6.396   4.761  0.4112  1.3972 -0.4850
22174SOL    HW269061   4.824   6.483   4.685 -1.1598  0.2710  0.2244
22175SOL     OW69062   6.189   1.540   9.589  0.5624  0.0421 -0.5860
22175SOL    HW169063   6.233   1.625   9.593 -0.8768  0.7916 -0.4499
22175SOL    HW269064   6.250   1.484   9.541  2.0912  0.7860  0.4319
22176SOL     OW69065   2.486   0.751   2.254 -0.0186  0.4233  0.2474
22176SOL    HW169066   2.418   0.690   2.285 -0.6732  0.0889 -1.7874
22176SOL    HW269067   2.437   0.823   2.214  0.7127  2.7705  3.3492
22177SOL     OW69068   2.716   1.117   2.212  0.3060 -0.2309  0.1107
22177SOL    HW169069   2.686   1.029   2.233  1.5038 -1.0122 -1.3333
22177SOL    HW269070   2.785   1.135   2.275  0.5203 -0.6018 -0.0176
22178SOL     OW69071   8.269   8.712   8.055 -0.1680  0.1797  0.5862
22178SOL    HW169072   8.259   8.793   8.104  0.0474  0.4787  0.1414
22178SOL    HW269073   8.357   8.682   8.076  0.3709  0.9384 -0.5497
22179SOL     OW69074   1.780   3.632   2.096 -0.0269 -0.0835  0.0434
22179SOL    HW169075   1.709   3.570   2.114  0.3088 -0.3805  0.3609
22179SOL    HW269076   1.767   3.702   2.160  1.5186 -1.4305  1.9383
22180SOL     OW69077   4.080   6.544   6.234 -0.6066 -0.2080 -0.2057
22180SOL    HW169078   4.163   6.592   6.226 -0.9564  0.3367 -0.5441
22180SOL    HW269079   4.099   6.475   6.298 -0.2213  0.6305  0.5941
22181SOL     OW69080   0.792   6.204   6.282  0.3837 -0.0712 -0.5340
22181SOL    HW169081   0.726   6.206   6.213 -1.1874  0.4496  0.9589
22181SOL    HW269082   0.748   6.163   6.356  1.5180  0.9130  0.7025
22182SOL     OW69083   7.040   7.800   9.744 -0.7280 -0.0031 -0.4205
22182SOL    HW169084   7.022   7.779   9.652  0.4289  0.8303 -0.8491
22182SOL    HW269085   6.953   7.812   9.783 -1.2294 -0.3922 -1.3969
22183SOL     OW69086   9.650   8.878   9.252  0.3123  0.3138 -0.1527
22183SOL    HW169087   9.676   8.786   9.250  0.0335  0.2419 -0.3844
22183SOL    HW269088   9.617   8.896   9.164  1.0665  0.8380 -0.3379
22184SOL     OW69089   6.777   4.117   3.675 -0.3246 -0.2812  0.7337
22184SOL    HW169090   6.761   4.172   3.752  1.5134 -0.5278  1.3203
22184SOL    HW269091   6.843   4.054   3.704 -0.4794 -1.1261 -0.7073
22185SOL     OW69092   5.055   1.345   8.447 -0.2544  0.5983 -0.5026
22185SOL    HW169093   4.967   1.355   8.411 -0.4045  0.2362 -0.2398
22185SOL    HW269094   5.083   1.435   8.467 -0.7286  0.6813 -0.2035
22186SOL     OW69095   6.258   1.215   6.162  0.5206 -0.4414  0.2664
22186SOL    HW169096   6.234   1.218   6.254 -1.8635 -2.2746 -0.2502
22186SOL    HW269097   6.223   1.295   6.125 -1.2121 -1.1387  0.3643
22187SOL     OW69098   9.452   9.722   1.728 -0.4170  0.0635 -0.2378
22187SOL    HW169099   9.533   9.722   1.679 -1.2539  0.0718 -1.6482
22187SOL    HW269100   9.383   9.721   1.661 -1.5701 -1.2345  0.9369
22188SOL     OW69101   2.773   4.522   8.897 -1.0527 -0.0992  0.8170
22188SOL    HW169102   2.868   4.524   8.885 -1.2578  1.6693 -0.7146
22188SOL    HW269103   2.740   4.473   8.822 -1.4056  0.0357  0.8821
22189SOL     OW69104   0.813   8.552   7.187  0.2891  0.4347 -0.3670
22189SOL    HW169105   0.854   8.529   7.103 -0.0320 -0.6632 -0.2269
22189SOL    HW269106   0.818   8.473   7.239 -1.7866  0.3400 -0.2541
22190SOL     OW69107   0.971   0.327  10.193 -0.6268  0.2592  0.1255
22190SOL    HW169108   1.007   0.393  10.252 -0.9808  1.2955 -0.8108
22190SOL    HW269109   0.878   0.322  10.216 -0.3133 -1.0096  1.2104
22191SOL     OW69110   0.470   7.382   8.002 -0.6580 -0.6838  0.1645
22191SOL    HW169111   0.554   7.336   8.003 -1.0903 -1.4950  0.4524
22191SOL    HW269112   0.449   7.393   7.909  2.0236  3.8165 -0.0212
22192SOL     OW69113   3.506   6.013  10.123  0.3239 -0.0329 -0.4920
22192SOL    HW169114   3.595   5.984  10.143  0.3138 -0.6737 -1.3744
22192SOL    HW269115   3.482   6.066  10.198  0.8899 -1.1107  0.4788
22193SOL     OW69116   2.428   0.680   8.982 -0.6503  0.6382  0.0081
22193SOL    HW169117   2.333   0.673   8.978 -0.6311  0.4433 -0.1411
22193SOL    HW269118   2.445   0.773   8.992 -0.8619  0.6585  0.1851
22194SOL     OW69119   6.424   8.944   0.280 -0.3324 -0.5934 -0.1366
22194SOL    HW169120   6.419   9.009   0.210 -1.7582  0.0516  0.5419
22194SOL    HW269121   6.359   8.972   0.344 -2.0784 -3.5422 -0.5296
22195SOL     OW69122   8.334   5.995   9.817 -0.1475  0.0619  0.0943
22195SOL    HW169123   8.242   6.015   9.836 -1.0720 -2.3293 -1.5706
22195SOL    HW269124   8.340   5.900   9.827  1.4215 -0.1753 -2.7883
22196SOL     OW69125   8.179   7.822   6.518  0.0956 -0.0598 -0.0390
22196SOL    HW169126   8.161   7.875   6.440  1.3246  0.1993 -0.1579
22196SOL    HW269127   8.274   7.828   6.529  0.1181 -1.3815  0.5585
22197SOL     OW69128   8.444   0.740   1.576 -0.1117  0.0593 -0.5002
22197SOL    HW169129   8.409   0.695   1.499  0.3113 -0.0754 -0.6184
22197SOL    HW269130   8.520   0.688   1.601 -1.0385 -0.6634  0.8256
22198SOL     OW69131   5.924   3.375   5.881 -0.2171 -0.2668 -0.0209
22198SOL    HW169132   5.850   3.320   5.857  0.7559 -1.6956  0.1742
22198SOL    HW269133   5.903   3.406   5.969 -1.2020  0.4572 -0.5002
22199SOL     OW69134   3.392   8.090   6.531  0.2008 -0.1183 -0.1158
22199SOL    HW169135   3.468   8.123   6.484 -0.3831 -0.1182 -1.0679
22199SOL    HW269136   3.348   8.169   6.563 -0.4795 -0.0236 -1.2696
22200SOL     OW69137   0.185   6.004   8.981 -0.2433  0.3233  0.0668
22200SOL    HW169138   0.191   5.933   9.045 -1.1149  0.2303  0.0551
22200SOL    HW269139   0.186   5.959   8.896  0.5832  0.4249  0.0175
22201SOL     OW69140   6.558   2.498   1.656  0.2799 -0.4616  0.5065
22201SOL    HW169141   6.598   2.495   1.570 -2.6452 -1.3800 -0.8724
22201SOL    HW269142   6.523   2.410   1.670  0.8088 -0.3600  2.6915
22202SOL     OW69143   6.627   1.877   2.491  0.1546  0.1194  0.1258
22202SOL    HW169144   6.648   1.906   2.402  1.7634 -0.7850  0.1872
22202SOL    HW269145   6.710   1.883   2.539 -0.3223 -0.9426  1.1224
22203SOL     OW69146   9.720   1.041   5.638  0.1287 -0.1127 -0.7967
22203SOL    HW169147   9.796   0.983   5.633  0.3230  0.1075 -0.3873
22203SOL    HW269148   9.747   1.119   5.589  0.0104 -0.2020 -1.0093
22204SOL     OW69149   9.553   8.472   2.396  0.5594 -0.2573  0.4760
22204SOL    HW169150   9.559   8.379   2.417  1.1163  0.0001  1.4544
22204SOL    HW269151   9.551   8.517   2.480  2.2376  0.7378  0.0178
22205SOL     OW69152  10.036   7.976   1.712  0.0196  0.3560 -0.3628
22205SOL    HW169153  10.111   7.967   1.652  0.5257  0.8492  0.1830
22205SOL    HW269154  10.023   7.889   1.749  0.0942  0.1873 -0.7355
22206SOL     OW69155   7.979   8.303   4.622  0.3776  0.1209 -0.2557
22206SOL    HW169156   8.030   8.240   4.573  0.4267  0.7797 -1.0624
22206SOL    HW269157   8.035   8.380   4.630 -0.4466  0.8259 -1.0915
22207SOL     OW69158   7.355   8.710   4.856  0.1319  0.0717  0.1453
22207SOL    HW169159   7.414   8.663   4.796  0.1156 -0.1652  0.3178
22207SOL    HW269160   7.269   8.702   4.816  0.3097  0.9215 -0.4141
22208SOL     OW69161   8.378   3.895   3.872 -0.4337 -0.2859  0.6173
22208SOL    HW169162   8.318   3.880   3.799  0.2650 -1.1029  0.2021
22208SOL    HW269163   8.406   3.807   3.897  0.0837  0.0612  1.2341
22209SOL     OW69164   4.144   0.957   7.767 -0.1766 -0.1472  0.2675
22209SOL    HW169165   4.233   0.989   7.759  0.3293 -1.5060  0.2762
22209SOL    HW269166   4.142   0.878   7.712 -0.9687 -0.9333  1.4119
22210SOL     OW69167   7.227   2.820   8.428 -0.7605 -0.2481  0.3129
22210SOL    HW169168   7.177   2.800   8.507  2.5944  0.0432  2.6274
22210SOL    HW269169   7.181   2.894   8.388 -2.9218 -0.8849  1.5733
22211SOL     OW69170   0.167   2.122   3.477  0.3556  0.4595 -0.0524
22211SOL    HW169171   0.175   2.046   3.535  0.2372  1.2211  0.9801
22211SOL    HW269172   0.117   2.089   3.402 -1.7051  0.0620  1.4249
22212SOL     OW69173   2.037   5.810   9.405  0.0584  1.0497 -0.2349
22212SOL    HW169174   2.126   5.809   9.370 -0.0752 -1.4387 -0.5558
22212SOL    HW269175   2.004   5.721   9.390 -2.4423  1.9017 -0.0209
22213SOL     OW69176   6.079   7.763   0.388 -1.3103  0.5076  1.2094
22213SOL    HW169177   6.025   7.774   0.467 -1.9941  0.7105  0.7213
22213SOL    HW269178   6.160   7.810   0.408 -1.9252  1.5214  1.3697
22214SOL     OW69179   9.452   9.031   3.712  1.0460 -0.2437 -0.0013
22214SOL    HW169180   9.521   9.027   3.645  0.0307  1.1257 -1.1520
22214SOL    HW269181   9.447   9.123   3.737  0.6707 -0.5773  1.1895
22215SOL     OW69182   4.855   4.973   3.299 -0.3248  0.8832  0.1095
22215SOL    HW169183   4.885   4.936   3.382 -1.2830 -0.2489 -0.0308
22215SOL    HW269184   4.877   5.066   3.305  2.6112  0.2470  0.2592
22216SOL     OW69185   8.219   4.648   6.467  0.2332 -0.5897  0.0685
22216SOL    HW169186   8.194   4.631   6.557  0.5423 -1.4247  0.0026
22216SOL    HW269187   8.314   4.632   6.465  0.6353  1.5399  0.0916
22217SOL     OW69188   6.943   5.137   3.370 -0.9092 -0.0605  0.2512
22217SOL    HW169189   6.896   5.070   3.319 -0.4604  0.8179 -1.3501
22217SOL    HW269190   6.961   5.207   3.307  1.0110  0.3909  1.2605
22218SOL     OW69191   3.340   0.120   2.162 -0.8137 -0.3879  0.3199
22218SOL    HW169192   3.281   0.184   2.202 -1.7862 -2.1673  1.8151
22218SOL    HW269193   3.285   0.073   2.099 -0.5932 -1.0347  0.6072
22219SOL     OW69194   3.903   4.955   7.880  0.0394  0.1307 -0.4169
22219SOL    HW169195   3.998   4.943   7.871 -0.2148 -0.8206 -2.1048
22219SOL    HW269196   3.868   4.866   7.883 -0.5687  0.4107  3.6731
22220SOL     OW69197   2.063   6.756   2.892  0.4102  0.3834 -0.0010
22220SOL    HW169198   2.098   6.670   2.917  1.1451  1.2187  1.9866
22220SOL    HW269199   1.969   6.750   2.910  0.4933  0.0618  0.3310
22221SOL     OW69200   2.498   8.724  10.186 -0.8127  0.1541 -0.2846
22221SOL    HW169201   2.470   8.737  10.277 -0.1799  2.1485 -0.3671
22221SOL    HW269202   2.480   8.807  10.143 -2.2152 -1.1519 -2.3090
22222SOL     OW69203   1.607   9.145   5.435 -0.1733  0.2010 -0.4782
22222SOL    HW169204   1.557   9.201   5.494 -1.8976 -0.5581 -1.1970
22222SOL    HW269205   1.692   9.188   5.428 -0.8724  1.7589  0.3933
22223SOL     OW69206   0.448   8.953   1.176  0.2355 -0.3837 -0.3915
22223SOL    HW169207   0.413   9.016   1.238 -0.5016 -0.8107 -0.3701
22223SOL    HW269208   0.542   8.970   1.175  0.1137  0.3262  0.0457
22224SOL     OW69209   1.620   5.449   9.113  0.2427  0.3869 -0.3150
22224SOL    HW169210   1.542   5.502   9.095  0.7645  1.6625  1.0517
22224SOL    HW269211   1.623   5.444   9.209  2.2202  0.9409 -0.3316
22225SOL     OW69212   1.389   8.519   1.577  0.1577 -0.2064 -0.5418
22225SOL    HW169213   1.440   8.448   1.538  1.0222  0.8061 -1.2936
22225SOL    HW269214   1.438   8.543   1.656 -0.7195 -1.1708  0.2994
22226SOL     OW69215   2.581   3.473   1.834  0.2445  0.1955 -0.4221
22226SOL    HW169216   2.662   3.461   1.784  1.3575 -0.2697  1.4261
22226SOL    HW269217   2.535   3.544   1.789  1.0634 -0.3978 -2.2508
22227SOL     OW69218   2.232   5.911   2.562 -0.0969  0.4884 -0.0310
22227SOL    HW169219   2.250   5.950   2.647  1.2106  0.6363 -0.3624
22227SOL    HW269220   2.213   5.819   2.581  0.7874  0.3818  0.3686
22228SOL     OW69221   2.619   0.905   2.594  0.2547  0.6464 -0.0635
22228SOL    HW169222   2.532   0.866   2.608  0.4159  0.7141  1.2523
22228SOL    HW269223   2.647   0.873   2.509 -1.1386  0.7479 -0.5746
22229SOL     OW69224   7.557   4.280   8.096 -0.2884 -0.3334 -0.4338
22229SOL    HW169225   7.551   4.336   8.174  0.9822  0.5907 -0.9924
22229SOL    HW269226   7.556   4.191   8.131  0.1986  0.0742  0.6433
22230SOL     OW69227   8.960   7.306   1.661 -0.3330  0.1140  0.1893
22230SOL    HW169228   9.003   7.391   1.668  0.6716 -0.3822  0.0462
22230SOL    HW269229   8.992   7.269   1.579 -2.0137  0.2849 -0.5619
22231SOL     OW69230   5.121   1.648   3.055  0.1131  0.0740  0.0616
22231SOL    HW169231   5.101   1.717   3.119  1.4600 -0.5194  1.1403
22231SOL    HW269232   5.056   1.581   3.070 -1.6114  1.3590 -1.4218
22232SOL     OW69233   3.534   5.006   7.065 -0.3819 -0.2509 -0.2584
22232SOL    HW169234   3.585   5.088   7.066 -1.5907  0.5023  1.5772
22232SOL    HW269235   3.568   4.958   6.990  0.2774  1.9989 -1.4452
22233SOL     OW69236   0.939   9.313   8.552 -0.1176  0.0587  0.1239
22233SOL    HW169237   0.892   9.381   8.601 -0.2221  0.1402 -0.0879
22233SOL    HW269238   0.914   9.231   8.594 -0.1402  0.1367  0.2598
22234SOL     OW69239   8.112   6.764   4.370 -0.6888 -0.1497 -0.4463
22234SOL    HW169240   8.058   6.709   4.426  0.6545 -0.5679  0.4551
22234SOL    HW269241   8.145   6.705   4.302 -1.8005  0.2217 -1.3212
22235SOL     OW69242   8.626   1.614   9.569  0.2001  0.6770 -0.4016
22235SOL    HW169243   8.556   1.675   9.550  0.1830  0.5539 -0.7411
22235SOL    HW269244   8.600   1.571   9.651 -0.9455 -0.5862 -1.4106
22236SOL     OW69245   0.656   1.863   1.355 -0.1908 -0.1407  0.1988
22236SOL    HW169246   0.699   1.791   1.309  1.9982 -1.2231  3.7050
22236SOL    HW269247   0.714   1.938   1.342 -1.6193  0.6028 -2.0653
22237SOL     OW69248   5.964   0.297   7.248 -0.1025  0.3975  0.1676
22237SOL    HW169249   5.965   0.328   7.339 -1.8716  0.4989  0.1594
22237SOL    HW269250   5.934   0.372   7.197 -0.6717 -0.1496 -0.3130
22238SOL     OW69251   7.842   6.983   3.390  0.0609  0.7397 -0.2226
22238SOL    HW169252   7.875   7.016   3.307 -2.3097 -0.6842 -1.7837
22238SOL    HW269253   7.755   7.020   3.398 -0.8481 -1.3901  0.2098
22239SOL     OW69254   7.179   7.082   0.630 -0.5408  0.5003  0.2502
22239SOL    HW169255   7.159   7.129   0.711  0.2955 -0.9447  1.3202
22239SOL    HW269256   7.119   7.008   0.630 -0.5961  0.5438 -0.4940
22240SOL     OW69257   5.616   9.123   4.567  0.0007 -0.8210 -0.1321
22240SOL    HW169258   5.689   9.157   4.618  1.7170 -1.5089 -2.0519
22240SOL    HW269259   5.547   9.187   4.578  1.4577  0.6883  0.3872
22241SOL     OW69260   7.357   6.055   6.152  0.2972 -0.0450 -0.3645
22241SOL    HW169261   7.268   6.027   6.170  0.0442 -0.2658 -1.8669
22241SOL    HW269262   7.351   6.101   6.068  1.0444  2.8462  1.1215
22242SOL     OW69263   8.773   1.710   5.695 -0.0206 -0.2507 -0.1734
22242SOL    HW169264   8.771   1.634   5.754  1.4945  1.6508  2.4488
22242SOL    HW269265   8.865   1.732   5.687 -0.5061  2.1139  0.2318
22243SOL     OW69266   0.914   5.089   9.421  0.5943  0.3959  0.1853
22243SOL    HW169267   0.912   5.182   9.396  1.3453  1.0315  2.3482
22243SOL    HW269268   0.827   5.056   9.400  1.0038  1.0042 -2.6780
22244SOL     OW69269   6.689   6.357   8.640  0.4384  0.6887 -0.2279
22244SOL    HW169270   6.713   6.316   8.723 -0.3351 -0.3221 -0.4941
22244SOL    HW269271   6.749   6.321   8.576 -0.8846 -0.8240 -0.6473
22245SOL     OW69272   5.028   1.054   6.889  0.1749  0.8773 -0.4399
22245SOL    HW169273   4.986   1.125   6.937 -2.2594 -0.6368 -0.2235
22245SOL    HW269274   5.100   1.026   6.946 -1.6438  0.2152  1.5955
22246SOL     OW69275   8.035   7.109   2.473  0.2980 -0.3612  0.7406
22246SOL    HW169276   8.033   7.128   2.379  1.1915 -0.3991  0.7041
22246SOL    HW269277   7.980   7.031   2.482 -0.0558 -0.1648  0.2919
22247SOL     OW69278   1.588   6.130   8.607 -0.3059 -0.1180  0.0425
22247SOL    HW169279   1.499   6.165   8.613 -0.1882  0.3595 -0.8785
22247SOL    HW269280   1.615   6.149   8.517  0.0459 -1.8936 -0.2460
22248SOL     OW69281   7.084   2.521   9.151 -0.4216  0.2144 -0.0390
22248SOL    HW169282   7.117   2.575   9.080  1.5392 -0.5809  0.2491
22248SOL    HW269283   7.004   2.482   9.115 -0.2147  0.9169 -1.3042
22249SOL     OW69284   8.899   4.727   7.077  0.6469  0.2353 -0.5337
22249SOL    HW169285   8.809   4.746   7.051  0.9991 -1.9982 -3.7572
22249SOL    HW269286   8.912   4.776   7.158 -4.4530 -1.7629  1.7087
22250SOL     OW69287   3.237   7.446   8.896  0.2775  0.2058 -0.0086
22250SOL    HW169288   3.191   7.455   8.980 -0.3309  1.1365 -0.4313
22250SOL    HW269289   3.236   7.535   8.859  0.6360 -0.1793 -0.9489
22251SOL     OW69290   2.264   7.097   4.945  0.3599  0.0231 -0.2998
22251SOL    HW169291   2.271   7.016   4.895 -1.1362  0.2940 -0.9813
22251SOL    HW269292   2.273   7.166   4.880  1.3123  0.4113  0.2354
22252SOL     OW69293  10.023   3.963   3.493 -0.1088  0.4004  0.0732
22252SOL    HW169294  10.031   3.996   3.582  2.5344  1.5756 -0.5577
22252SOL    HW269295   9.974   3.881   3.502 -0.8996  1.1048  2.4444
22253SOL     OW69296   6.705   9.408   7.594 -0.0980  0.0725  0.4647
22253SOL    HW169297   6.792   9.368   7.596 -0.3739 -0.4954  1.3033
22253SOL    HW269298   6.714   9.489   7.645  0.1599  0.4782 -0.2189
22254SOL     OW69299   0.277   0.750   0.129 -0.3417 -0.0698 -0.4810
22254SOL    HW169300   0.259   0.727   0.038 -0.8054  0.7660 -0.6127
22254SOL    HW269301   0.192   0.776   0.164 -0.0465  0.2651 -0.0120
22255SOL     OW69302   2.861   5.312   3.190  0.4750  0.0202  0.0218
22255SOL    HW169303   2.859   5.223   3.157  0.1930 -0.1161  0.4063
22255SOL    HW269304   2.771   5.329   3.219  0.0231  1.1248 -1.8968
22256SOL     OW69305   7.953   9.319   1.604  0.1701  0.4389 -0.1204
22256SOL    HW169306   7.962   9.304   1.698 -1.7755 -2.2565 -0.3075
22256SOL    HW269307   8.016   9.258   1.565 -2.9824 -2.6167 -0.6793
22257SOL     OW69308   0.635   2.485   1.229  0.0665  0.2341  0.0239
22257SOL    HW169309   0.717   2.535   1.231 -0.1030  0.4881  1.2854
22257SOL    HW269310   0.574   2.538   1.280  0.0312 -1.4874  1.8479
22258SOL     OW69311   1.041   7.834   4.959  0.5454  0.1057 -0.3952
22258SOL    HW169312   1.074   7.798   4.877 -1.1711  1.0281 -1.5153
22258SOL    HW269313   1.107   7.810   5.024  1.8683 -0.7330 -2.0166
22259SOL     OW69314   9.315   7.046   1.193  0.2905  0.9728  0.2018
22259SOL    HW169315   9.232   7.017   1.154  1.6678 -1.1730 -1.2096
22259SOL    HW269316   9.356   7.100   1.126  1.6569 -0.9395 -0.5576
22260SOL     OW69317   5.521   2.850   1.616  0.1291  0.3938 -0.5672
22260SOL    HW169318   5.462   2.794   1.565 -1.7844  1.8281 -0.0171
22260SOL    HW269319   5.512   2.819   1.706  1.7212 -0.6266 -0.7405
22261SOL     OW69320   0.896   6.233   6.688 -0.2409 -0.3214  0.1678
22261SOL    HW169321   0.918   6.305   6.628 -1.8951 -0.9348 -1.2144
22261SOL    HW269322   0.861   6.276   6.765  2.0673  0.4895  0.8016
22262SOL     OW69323   2.894   0.644   1.616 -0.2846  0.4043 -0.1909
22262SOL    HW169324   2.977   0.617   1.655 -0.4793  2.0346  1.4024
22262SOL    HW269325   2.900   0.739   1.609 -1.9913  0.5404 -0.0991
22263SOL     OW69326  10.126   8.119   8.070 -1.0702  0.2486 -0.3017
22263SOL    HW169327  10.037   8.150   8.054 -1.8497 -1.5516  0.4070
22263SOL    HW269328  10.138   8.047   8.009  0.6456  1.7706 -1.7931
22264SOL     OW69329   0.384   2.915   5.183  0.4369 -0.4102  0.0927
22264SOL    HW169330   0.334   2.940   5.105 -2.4399 -1.7610  1.4355
22264SOL    HW269331   0.377   2.992   5.240 -1.0566 -1.0096  0.7239
22265SOL     OW69332   3.528   6.072   8.993  0.2635  0.0442  0.5451
22265SOL    HW169333   3.580   6.025   8.928 -1.6065 -0.9461 -0.2731
22265SOL    HW269334   3.487   6.143   8.945  0.3482  0.4445  1.0542
22266SOL     OW69335   3.324   4.061   5.735 -0.0139 -0.2595 -0.0759
22266SOL    HW169336   3.384   3.987   5.746 -0.0550 -0.1721  0.7664
22266SOL    HW269337   3.284   4.047   5.649 -0.2096 -1.3523  0.1855
22267SOL     OW69338   0.433   5.664   9.007  0.2494 -0.4790 -0.0108
22267SOL    HW169339   0.517   5.707   9.023  0.3641 -0.3271 -0.9999
22267SOL    HW269340   0.368   5.720   9.050  0.6003 -0.3280  0.3195
22268SOL     OW69341   0.494   8.437   4.207  0.3194 -0.0364 -0.4566
22268SOL    HW169342   0.436   8.452   4.281  0.7571  0.7001 -0.2671
22268SOL    HW269343   0.436   8.437   4.131 -0.1398 -0.8624 -0.1175
22269SOL     OW69344   8.802   5.851   3.215  0.6228 -0.0724 -0.0450
22269SOL    HW169345   8.805   5.842   3.310  0.1996  0.9945  0.0661
22269SOL    HW269346   8.710   5.864   3.194  0.9066  1.3924 -0.4450
22270SOL     OW69347   7.520   6.135   5.541 -0.0552 -0.5323  0.3644
22270SOL    HW169348   7.461   6.118   5.468  0.5950 -0.6476 -0.1319
22270SOL    HW269349   7.607   6.115   5.508  0.1585 -1.4508  1.4507
22271SOL     OW69350   6.436   3.739   3.253  0.4391  0.0658 -0.3054
22271SOL    HW169351   6.463   3.814   3.306 -0.9967 -0.6094  1.4399
22271SOL    HW269352   6.393   3.680   3.315  0.1165 -1.4690 -1.9458
22272SOL     OW69353   6.496   3.419   8.437 -0.3390 -0.0718  0.1026
22272SOL    HW169354   6.482   3.473   8.515 -0.1503 -0.1436  0.1859
22272SOL    HW269355   6.520   3.481   8.369  1.7979 -0.2404  0.6705
22273SOL     OW69356   8.180   7.465   1.938 -0.1718  0.2385  0.3431
22273SOL    HW169357   8.208   7.548   1.900 -0.3333  0.3460  0.4573
22273SOL    HW269358   8.085   7.475   1.950 -0.5340 -0.6977 -1.5052
22274SOL     OW69359   5.246   3.963   2.001 -0.0505  0.2342  0.5809
22274SOL    HW169360   5.253   4.058   1.998 -2.6395  0.5070  1.7305
22274SOL    HW269361   5.307   3.936   2.069  0.8989  1.0393  0.0463
22275SOL     OW69362   2.364   3.674   5.760 -0.1203 -0.2666  0.6925
22275SOL    HW169363   2.449   3.656   5.720 -1.3092 -0.3407 -1.9159
22275SOL    HW269364   2.369   3.766   5.785  0.7361 -0.2753  0.5838
22276SOL     OW69365   1.529   2.037   2.572  0.0935  0.3414  0.0633
22276SOL    HW169366   1.509   1.947   2.599 -1.3158  0.6373  0.0601
22276SOL    HW269367   1.562   2.079   2.651  1.6404 -0.4139 -0.1555
22277SOL     OW69368   1.313   8.028   9.397  0.0551  0.2817  0.2057
22277SOL    HW169369   1.261   8.109   9.397  1.1109  0.9692  0.8408
22277SOL    HW269370   1.372   8.037   9.323  0.2200  0.1258  0.3180
22278SOL     OW69371   1.246   5.101   6.173  0.6991 -0.1640  0.3600
22278SOL    HW169372   1.156   5.082   6.201  0.7307 -0.6815  0.1119
22278SOL    HW269373   1.238   5.179   6.119  0.4238 -0.0924  0.5026
22279SOL     OW69374   4.458  10.003   4.227  0.0789  0.0543 -0.7052
22279SOL    HW169375   4.363  10.008   4.215 -0.1138 -1.4152  0.0014
22279SOL    HW269376   4.487  10.094   4.234 -1.3167  0.5035 -0.6492
22280SOL     OW69377   9.039   0.830   0.363 -0.0553 -0.5640 -0.8046
22280SOL    HW169378   9.042   0.851   0.270  0.3188 -0.5248 -0.7834
22280SOL    HW269379   9.078   0.742   0.369  0.3935 -0.3554 -0.6232
22281SOL     OW69380   8.550   8.496   4.283 -0.4051 -0.6567  0.4648
22281SOL    HW169381   8.524   8.482   4.192 -0.4850  2.2365 -0.0295
22281SOL    HW269382   8.609   8.572   4.280 -0.7702 -0.2138  2.8629
22282SOL     OW69383   1.479   8.036   6.581 -0.4571  0.1775  0.0015
22282SOL    HW169384   1.550   7.996   6.531 -1.8643 -3.0768  0.4942
22282SOL    HW269385   1.399   8.001   6.541 -1.7196  1.4169  1.3800
22283SOL     OW69386   2.153   0.345   3.775  0.2782 -0.5429  0.1420
22283SOL    HW169387   2.074   0.298   3.802 -1.9459  2.3869 -1.0357
22283SOL    HW269388   2.158   0.331   3.680 -0.0833  1.0639 -0.1328
22284SOL     OW69389   8.463   8.833   6.979  0.1917 -0.0409 -0.5287
22284SOL    HW169390   8.398   8.902   6.977  1.4990  1.1975 -0.7025
22284SOL    HW269391   8.427   8.764   6.923 -1.3728  0.2316  0.1111
22285SOL     OW69392   9.361   3.805   2.045  0.1783 -0.0626  0.3918
22285SOL    HW169393   9.451   3.813   2.077 -0.1266  0.3509  1.1654
22285SOL    HW269394   9.369   3.762   1.960  1.1133  0.0526  0.4200
22286SOL     OW69395   6.292   2.658   6.338  0.8764  0.1370 -0.3540
22286SOL    HW169396   6.244   2.587   6.380 -1.5966  1.9102 -0.0132
22286SOL    HW269397   6.270   2.650   6.245 -0.0017  0.8507 -0.2196
22287SOL     OW69398   6.476   8.357   8.281  0.6420  0.1693  0.0850
22287SOL    HW169399   6.494   8.384   8.371 -0.2455 -0.5588  0.4904
22287SOL    HW269400   6.405   8.293   8.289  0.4195  0.2491 -1.1512
22288SOL     OW69401   2.978   8.419   3.043  0.0335 -0.2473 -0.2559
22288SOL    HW169402   2.993   8.328   3.068 -0.7189 -0.9023 -2.0688
22288SOL    HW269403   2.894   8.441   3.083 -0.6146 -0.9208 -1.2196
22289SOL     OW69404   1.839   0.083   8.446  0.0011 -0.3596 -0.2538
22289SOL    HW169405   1.786   0.031   8.385 -1.3875  0.0770  0.5558
22289SOL    HW269406   1.913   0.027   8.467 -1.6233 -2.1739  0.8341
22290SOL     OW69407  10.075   6.243   9.529  0.0786  0.1464 -0.3908
22290SOL    HW169408  10.013   6.234   9.456 -0.4638  1.3969 -0.0996
22290SOL    HW269409  10.093   6.337   9.534  0.5483  0.0108  0.7239
22291SOL     OW69410   4.443   5.604   2.256  0.2814 -0.2165  0.1052
22291SOL    HW169411   4.448   5.686   2.207  0.4190 -0.0931  0.3258
22291SOL    HW269412   4.356   5.569   2.236  1.2334 -1.3824 -2.1932
22292SOL     OW69413   5.644   1.327   0.895 -0.0887  0.3692 -0.1247
22292SOL    HW169414   5.656   1.373   0.979 -2.8735  0.1478  0.4754
22292SOL    HW269415   5.609   1.241   0.920  0.5177 -0.2669 -1.4501
22293SOL     OW69416   0.594   9.325   9.081  0.0309 -0.8140  0.1837
22293SOL    HW169417   0.544   9.407   9.080 -2.5107 -2.2920  0.3896
22293SOL    HW269418   0.648   9.330   9.159  1.5641  1.5807 -0.9789
22294SOL     OW69419   2.474   9.048   6.431  0.0879 -0.0570  0.1416
22294SOL    HW169420   2.444   9.127   6.475  0.5510 -1.0119  2.2463
22294SOL    HW269421   2.425   8.977   6.473  1.3765 -1.1067 -0.0907
22295SOL     OW69422   6.235   7.241   1.772  0.7505 -0.6963 -0.1663
22295SOL    HW169423   6.147   7.209   1.753  0.3914  0.0949  0.1342
22295SOL    HW269424   6.277   7.246   1.686  0.1862 -0.1867 -0.4200
22296SOL     OW69425   3.682   1.854   2.286  0.2472 -0.0180 -0.0783
22296SOL    HW169426   3.700   1.760   2.281 -1.3249 -0.3663  0.5233
22296SOL    HW269427   3.745   1.887   2.350  0.6092 -0.7088 -0.0661
22297SOL     OW69428   4.823   9.069   8.584 -0.1875 -0.1077  0.7562
22297SOL    HW169429   4.878   8.991   8.594  0.2000  0.0746  0.1165
22297SOL    HW269430   4.745   9.051   8.637 -0.9944 -1.7836 -0.9014
22298SOL     OW69431   9.509   4.325   8.703  0.1288 -0.6124  0.1958
22298SOL    HW169432   9.478   4.364   8.621 -1.0465 -3.8743 -1.0164
22298SOL    HW269433   9.597   4.292   8.681 -0.0820 -1.2522  0.3105
22299SOL     OW69434   4.249   5.709   2.587  0.1212 -0.6173  0.0572
22299SOL    HW169435   4.215   5.780   2.534  0.8691 -0.5485 -0.3266
22299SOL    HW269436   4.216   5.629   2.544 -0.5297 -0.5146  0.3605
22300SOL     OW69437   5.821   0.429   9.982 -0.3677 -0.3678  0.5439
22300SOL    HW169438   5.867   0.512   9.986  1.0394 -1.1206  0.2989
22300SOL    HW269439   5.751   0.443   9.917 -0.5964  0.8243  1.0414
22301SOL     OW69440   4.688   5.179   2.677  0.5261  0.0478  0.3165
22301SOL    HW169441   4.726   5.152   2.761  3.2482 -0.6828 -1.1214
22301SOL    HW269442   4.718   5.268   2.663 -0.7911  0.5522  0.5805
22302SOL     OW69443   3.871   5.416   1.034  0.3998  0.2578  0.1721
22302SOL    HW169444   3.923   5.418   0.954  1.5197  0.2614  0.8826
22302SOL    HW269445   3.922   5.361   1.094 -0.4575  0.1972  0.8605
22303SOL     OW69446   3.945   3.233   6.900 -0.0664  0.5136 -0.4598
22303SOL    HW169447   3.866   3.264   6.945  0.3827 -0.2815  0.9052
22303SOL    HW269448   3.998   3.312   6.887 -0.0540  0.7183  0.7375
22304SOL     OW69449   2.350   7.487   9.896 -0.1119  0.1376 -0.1228
22304SOL    HW169450   2.414   7.554   9.919  1.2272 -1.3537  0.5481
22304SOL    HW269451   2.380   7.408   9.942 -1.6862 -0.9102 -0.8667
22305SOL     OW69452   7.085   1.392   2.640 -1.3380 -0.1266  0.1573
22305SOL    HW169453   7.063   1.365   2.730  0.1950 -0.0034  0.5913
22305SOL    HW269454   7.127   1.315   2.602 -0.1821  0.4602  0.2183
22306SOL     OW69455   0.201   9.552   6.702  0.5426  0.6554  0.9164
22306SOL    HW169456   0.209   9.457   6.711 -1.4395  0.4506  0.7616
22306SOL    HW269457   0.206   9.585   6.792  1.2705  0.4171  0.9672
22307SOL     OW69458   4.439   1.024   7.672  0.2858 -0.5322  0.0709
22307SOL    HW169459   4.496   0.955   7.705 -0.3711 -0.4028  1.5413
22307SOL    HW269460   4.477   1.105   7.708  1.0358 -0.1179 -1.6109
22308SOL     OW69461   0.395   9.592   1.175 -0.1621 -0.1533 -0.1319
22308SOL    HW169462   0.463   9.617   1.237 -0.4237  1.2928 -0.4094
22308SOL    HW269463   0.416   9.501   1.151  1.5562  0.2185 -0.0762
22309SOL     OW69464   6.674   6.349   2.913  0.1654  0.0856  0.3758
22309SOL    HW169465   6.664   6.429   2.861  0.8648 -0.3936 -0.5052
22309SOL    HW269466   6.642   6.373   3.000 -1.3967  0.7765 -0.3635
22310SOL     OW69467   7.034   8.520   1.616 -0.0135 -0.0136 -0.0246
22310SOL    HW169468   7.117   8.552   1.651 -0.5470  1.1559  0.2300
22310SOL    HW269469   7.037   8.542   1.523 -0.6082  1.3525  0.2528
22311SOL     OW69470   0.580   2.571   0.218 -0.1605 -0.3148  0.7650
22311SOL    HW169471   0.487   2.592   0.226 -0.1935  0.4824 -1.4759
22311SOL    HW269472   0.586   2.480   0.245 -1.6251 -0.4393  0.7259
22312SOL     OW69473   9.504   9.561   9.731  0.1231 -0.0838 -0.0846
22312SOL    HW169474   9.594   9.570   9.764  0.0113  1.9159 -0.2540
22312SOL    HW269475   9.499   9.472   9.697  1.8559 -0.4140  0.5001
22313SOL     OW69476   1.079   7.114   6.894 -0.3124 -0.0476 -0.0919
22313SOL    HW169477   1.135   7.184   6.927 -1.4605  0.2951  1.1543
22313SOL    HW269478   1.135   7.036   6.895  0.8913  0.7772 -1.2611
22314SOL     OW69479   6.053   5.975   1.892  0.1485  0.3917 -0.2891
22314SOL    HW169480   6.010   5.940   1.814  0.9706 -1.4422  0.0725
22314SOL    HW269481   5.984   6.023   1.938 -1.1590 -1.2668 -0.4841
22315SOL     OW69482   1.094   1.964   7.451  0.2071 -0.0875  0.3108
22315SOL    HW169483   1.107   2.054   7.478  0.1286 -0.4954  1.7148
22315SOL    HW269484   1.176   1.920   7.473 -0.4013 -0.7512  1.2492
22316SOL     OW69485   5.112   0.122   7.204  0.1278 -0.5235  0.3566
22316SOL    HW169486   5.073   0.035   7.214  0.0886 -0.7364 -1.3922
22316SOL    HW269487   5.207   0.106   7.204  0.1535 -0.3602  1.7292
22317SOL     OW69488   1.025   3.686   0.576  0.3882 -0.4050  0.2358
22317SOL    HW169489   1.105   3.648   0.540 -0.5331 -2.1070 -0.0452
22317SOL    HW269490   0.963   3.685   0.504 -0.0905  0.3481  0.6276
22318SOL     OW69491   7.010   0.297   6.993  0.4960  0.7484 -0.3888
22318SOL    HW169492   7.086   0.305   7.052  1.1051  4.4668 -1.5708
22318SOL    HW269493   6.943   0.351   7.034 -0.0005  1.1350 -1.7181
22319SOL     OW69494   4.317   7.730   2.331  0.7006 -0.1127  0.1630
22319SOL    HW169495   4.390   7.669   2.348  0.8585  0.3577  1.2204
22319SOL    HW269496   4.239   7.675   2.337  0.9374 -0.5322 -0.5238
22320SOL     OW69497   8.714   3.355   8.962  0.1696 -0.4428  0.0556
22320SOL    HW169498   8.721   3.450   8.963  0.7351 -0.4736 -0.6405
22320SOL    HW269499   8.793   3.324   9.007 -0.6385 -0.5563  1.4105
22321SOL     OW69500   1.775   8.542   1.593  0.1170  0.0492 -0.1805
22321SOL    HW169501   1.711   8.473   1.577  1.1251 -0.6622 -1.1877
22321SOL    HW269502   1.832   8.541   1.517  0.9879  1.0637  0.4361
22322SOL     OW69503   6.188   7.986   2.735  0.2122 -0.6140  0.0679
22322SOL    HW169504   6.132   8.052   2.694 -0.3524 -0.5172  0.9653
22322SOL    HW269505   6.221   8.029   2.814 -2.8590 -2.4704  2.4887
22323SOL     OW69506   0.140   8.457   1.682 -0.1024  0.2523  0.0076
22323SOL    HW169507   0.111   8.372   1.648 -0.0381  0.2701 -0.0970
22323SOL    HW269508   0.225   8.472   1.638 -0.6942  0.9395 -0.9195
22324SOL     OW69509   0.966   6.161   2.201 -0.3674 -0.3349 -0.0533
22324SOL    HW169510   1.056   6.158   2.233 -0.3689 -1.7145 -0.1461
22324SOL    HW269511   0.926   6.235   2.248  0.9558  0.6465 -0.4400
22325SOL     OW69512   5.821   3.841  10.198 -0.2639  0.2269  0.1713
22325SOL    HW169513   5.835   3.931  10.168 -0.5463  0.5942  1.1247
22325SOL    HW269514   5.747   3.847  10.258 -0.1845 -0.6199  0.3609
22326SOL     OW69515   5.480   8.586   0.551 -0.0371 -0.0725  0.5729
22326SOL    HW169516   5.537   8.526   0.598  0.2096  0.8767  1.5260
22326SOL    HW269517   5.530   8.613   0.474  0.8199  0.7485  1.3973
22327SOL     OW69518   0.670   7.308   2.509 -0.0670 -0.0014 -0.3174
22327SOL    HW169519   0.740   7.245   2.530 -0.7898 -0.6339  0.2243
22327SOL    HW269520   0.596   7.280   2.563 -0.4914  1.1407 -0.2964
22328SOL     OW69521   4.469   5.171   3.429  0.8359  0.4744 -0.0332
22328SOL    HW169522   4.459   5.155   3.523  2.4973  2.6906  0.5467
22328SOL    HW269523   4.485   5.084   3.392  0.0677 -0.4329  1.7114
22329SOL     OW69524   3.701   1.991   5.121  0.1445 -0.1576  0.2220
22329SOL    HW169525   3.650   1.968   5.199 -0.1582 -1.3234 -0.2984
22329SOL    HW269526   3.639   2.040   5.066 -0.4619 -1.6376 -0.4419
22330SOL     OW69527   3.086   9.824   4.405  0.2545 -0.3667  0.1100
22330SOL    HW169528   3.088   9.917   4.379  0.3206 -0.3109  0.3123
22330SOL    HW269529   2.996   9.797   4.387  0.1946 -0.2230  0.1871
22331SOL     OW69530   4.315   6.038   2.913  0.3408  0.9775 -0.2998
22331SOL    HW169531   4.247   6.024   2.847  0.3904 -1.8170  0.2016
22331SOL    HW269532   4.275   6.098   2.976 -0.9752  0.8835 -1.0325
22332SOL     OW69533   2.388   4.079   6.088 -0.4710 -0.9088  0.0095
22332SOL    HW169534   2.367   4.164   6.049  0.7588 -0.4444  0.3399
22332SOL    HW269535   2.470   4.093   6.135 -1.3018 -1.7545  1.7956
22333SOL     OW69536   4.678   2.885   4.703  0.0785  0.2316  0.3407
22333SOL    HW169537   4.747   2.819   4.711  0.9086  1.2104  1.2892
22333SOL    HW269538   4.643   2.894   4.792  0.3413  1.4741  0.3234
22334SOL     OW69539   7.427   0.710   4.853 -0.5538  0.2927 -0.0041
22334SOL    HW169540   7.483   0.673   4.921 -1.9339 -0.3429  0.7922
22334SOL    HW269541   7.345   0.730   4.897 -2.0920 -1.7724 -1.8386
22335SOL     OW69542   9.937   4.827   5.049 -0.0281  0.2047 -0.1219
22335SOL    HW169543   9.848   4.793   5.064  0.3048 -0.1502  1.0710
22335SOL    HW269544   9.983   4.813   5.132  1.6022 -1.0085 -1.2005
22336SOL     OW69545   2.993   1.646   8.000 -0.1291  0.5739  0.3331
22336SOL    HW169546   3.007   1.591   7.923  0.2559 -1.2159  1.6569
22336SOL    HW269547   2.920   1.703   7.975 -0.9317 -0.9309 -0.8709
22337SOL     OW69548   2.174   3.167   6.660 -0.0629  0.1005  0.3098
22337SOL    HW169549   2.175   3.217   6.578 -0.4560  0.0264  0.2613
22337SOL    HW269550   2.235   3.214   6.717  0.0187  0.2976  0.0624
22338SOL     OW69551   7.634   2.676   0.837  0.0522  0.4209  0.2202
22338SOL    HW169552   7.549   2.711   0.863 -0.1394  1.3387 -1.5552
22338SOL    HW269553   7.655   2.722   0.756  2.2955  0.2600  0.6905
22339SOL     OW69554   3.546   5.158   6.436 -0.0815  0.1016 -0.6380
22339SOL    HW169555   3.471   5.217   6.446  1.4015  1.9115  0.0951
22339SOL    HW269556   3.556   5.117   6.522 -0.0071  0.1537 -0.6208
22340SOL     OW69557   6.918   0.887   7.065 -0.4806  0.5780  0.7480
22340SOL    HW169558   6.839   0.849   7.104  0.1792 -1.0214  0.5296
22340SOL    HW269559   6.945   0.955   7.127 -0.5809 -0.6013  2.1011
22341SOL     OW69560   2.313   6.527   5.640 -0.1514 -0.1038  0.6089
22341SOL    HW169561   2.382   6.584   5.605 -2.1692  2.3335  0.5089
22341SOL    HW269562   2.281   6.572   5.718 -0.4146 -2.1279  1.7109
22342SOL     OW69563   6.822   1.547   0.343 -0.4417  0.0716  0.0198
22342SOL    HW169564   6.909   1.532   0.379 -0.2636  3.0763  1.0270
22342SOL    HW269565   6.762   1.523   0.413 -0.4216 -1.4753 -0.4797
22343SOL     OW69566   5.789   6.980   0.760 -0.2429  0.2502 -0.2162
22343SOL    HW169567   5.711   6.972   0.705  0.4153 -0.1568 -1.1081
22343SOL    HW269568   5.862   6.971   0.699  0.5046 -0.8575  0.8215
22344SOL     OW69569   3.522   3.017   1.582  0.0084  0.3500 -0.0468
22344SOL    HW169570   3.613   3.007   1.554  0.1436 -0.3182  0.6106
22344SOL    HW269571   3.474   2.951   1.533 -0.1538  0.8108 -0.5148
22345SOL     OW69572   5.851   7.587   5.693 -0.2697 -0.9203  0.2150
22345SOL    HW169573   5.898   7.505   5.679  1.1715  0.1490 -1.5325
22345SOL    HW269574   5.786   7.590   5.623 -1.8664 -1.5974  1.6226
22346SOL     OW69575   6.738   6.375   1.013 -0.3147  0.4978  0.1724
22346SOL    HW169576   6.827   6.383   0.978  0.0471  1.6223  1.2970
22346SOL    HW269577   6.750   6.361   1.107 -1.3050 -0.6454  0.1300
22347SOL     OW69578   3.879   5.787   0.888  0.2685 -0.5512  0.3649
22347SOL    HW169579   3.820   5.860   0.904 -1.0996 -1.5399 -0.0389
22347SOL    HW269580   3.948   5.823   0.832 -1.1035  0.1258 -0.9299
22348SOL     OW69581   2.765   8.935   7.908 -0.3229 -0.4889 -0.2078
22348SOL    HW169582   2.736   8.991   7.980 -2.4955 -1.2746 -0.4451
22348SOL    HW269583   2.792   8.853   7.951  0.9081 -0.0296 -0.0649
22349SOL     OW69584   3.214   0.746   4.791 -0.4137  0.2560  0.9315
22349SOL    HW169585   3.175   0.750   4.704  0.9660 -0.3911  0.2725
22349SOL    HW269586   3.226   0.837   4.816 -1.4620  0.4510  0.7448
22350SOL     OW69587   3.627   7.763   1.317 -0.8755 -0.7036  0.0040
22350SOL    HW169588   3.590   7.675   1.329 -0.7352 -0.8694 -0.7484
22350SOL    HW269589   3.612   7.782   1.224  1.3139 -0.9422 -0.4177
22351SOL     OW69590   9.163   1.020   9.928  0.5304 -0.2250  0.2515
22351SOL    HW169591   9.127   0.960   9.862 -0.8069 -0.4325  1.1374
22351SOL    HW269592   9.208   0.963   9.990 -0.5997 -0.3227  1.0042
22352SOL     OW69593   0.007   4.389   4.860  0.2943  0.1366  0.1841
22352SOL    HW169594  -0.006   4.300   4.892  0.0386 -0.6820 -2.0650
22352SOL    HW269595  -0.080   4.418   4.834  0.8934 -0.4308 -2.6406
22353SOL     OW69596   3.921   7.636   8.756 -0.4077  0.1824  0.5949
22353SOL    HW169597   3.908   7.717   8.805  2.4010 -0.4452  2.4490
22353SOL    HW269598   3.979   7.660   8.684  0.1322 -0.0980  0.9344
22354SOL     OW69599   1.790   1.166   4.749 -0.5922  0.4745  0.8852
22354SOL    HW169600   1.758   1.252   4.723  0.7332  1.3359  2.0519
22354SOL    HW269601   1.850   1.183   4.822  0.7147 -1.3042  0.2620
22355SOL     OW69602   8.091   8.438   6.466 -0.6968 -0.1595 -0.2600
22355SOL    HW169603   8.026   8.505   6.488 -1.6462 -1.2836  0.4502
22355SOL    HW269604   8.175   8.483   6.475 -1.2571  0.6314  1.3637
22356SOL     OW69605   6.846   8.679   6.235  0.7482 -0.7378  0.2822
22356SOL    HW169606   6.866   8.729   6.157 -1.8189  0.0335  0.0640
22356SOL    HW269607   6.894   8.723   6.305 -0.3146  1.1950 -0.1558
22357SOL     OW69608   4.826   6.737   6.159  0.2538  0.0757  0.3010
22357SOL    HW169609   4.822   6.729   6.064 -2.4196 -1.1997  0.4753
22357SOL    HW269610   4.780   6.820   6.178 -0.2014 -0.2286  0.5376
22358SOL     OW69611   3.441   6.370   0.657 -0.1061 -0.1676  0.2344
22358SOL    HW169612   3.475   6.364   0.567  0.0765 -0.6485  0.3321
22358SOL    HW269613   3.352   6.403   0.647 -0.2947 -0.7911 -0.1740
22359SOL     OW69614   6.926  10.034   1.304 -0.1622 -0.4765 -0.0966
22359SOL    HW169615   6.956   9.963   1.360 -0.7759 -0.5320  0.1627
22359SOL    HW269616   6.912  10.108   1.363 -0.0476 -0.2973 -0.2895
22360SOL     OW69617   5.864   1.166   8.924 -0.2681  0.0256 -0.0746
22360SOL    HW169618   5.867   1.119   8.841  0.7801 -0.8345  0.4450
22360SOL    HW269619   5.828   1.252   8.901  1.1976  0.2492 -1.6471
22361SOL     OW69620   8.952   0.065   7.913  0.6955  0.3875 -0.4043
22361SOL    HW169621   9.023   0.007   7.941 -0.8494 -0.6209  1.5578
22361SOL    HW269622   8.994   0.127   7.853  3.1795 -0.3242  0.5167
22362SOL     OW69623   9.436   9.832   9.683  0.5963  0.3249  0.4758
22362SOL    HW169624   9.450   9.741   9.709 -0.0462 -0.0020 -0.2953
22362SOL    HW269625   9.350   9.854   9.718  0.9625  0.7947  1.0802
22363SOL     OW69626   0.190   1.252   9.500  0.0161 -0.0798  0.2698
22363SOL    HW169627   0.128   1.243   9.572 -2.3995 -0.9304 -1.8322
22363SOL    HW269628   0.167   1.335   9.458  0.8816  0.0391  0.0258
22364SOL     OW69629   7.833   7.026   6.929 -0.5468  0.2118  0.0070
22364SOL    HW169630   7.893   6.989   6.864 -0.7964  1.0176 -0.6956
22364SOL    HW269631   7.796   6.950   6.974  1.2546 -0.2928  0.6915
22365SOL     OW69632   1.646   6.315   1.813 -0.4312 -0.1746 -0.2656
22365SOL    HW169633   1.621   6.294   1.903 -1.3374  1.6076 -0.0753
22365SOL    HW269634   1.580   6.379   1.785  1.2837  1.1425 -1.3394
22366SOL     OW69635   1.213   3.863   4.121  0.5308  0.2012  0.1019
22366SOL    HW169636   1.288   3.826   4.074 -2.8074 -3.0937 -2.9638
22366SOL    HW269637   1.174   3.925   4.059  0.1940  1.2077  1.3027
22367SOL     OW69638   3.667   5.274   1.788  0.1063  0.0851 -0.4193
22367SOL    HW169639   3.666   5.193   1.840  0.3381  1.2739  1.4859
22367SOL    HW269640   3.602   5.330   1.830 -1.1203  0.3923 -2.6139
22368SOL     OW69641   8.008   1.293   7.545 -0.0007  0.2836  0.0151
22368SOL    HW169642   7.927   1.339   7.566  0.3419  1.2513 -0.7530
22368SOL    HW269643   8.065   1.309   7.621 -0.3087  0.1288  0.2772
22369SOL     OW69644   4.805   0.804   9.212 -0.2859  0.1599 -0.0728
22369SOL    HW169645   4.873   0.852   9.258 -0.4803  0.2696  0.0994
22369SOL    HW269646   4.772   0.741   9.276 -0.9298  0.6803  0.1104
22370SOL     OW69647   7.883   6.875   9.986 -0.5420 -0.5905 -0.6954
22370SOL    HW169648   7.874   6.883   9.891 -0.9169 -1.6097 -0.7507
22370SOL    HW269649   7.857   6.785  10.005 -0.4466 -0.3969  0.3718
22371SOL     OW69650   0.129   7.381   8.762 -0.6375  0.7857 -0.7044
22371SOL    HW169651   0.082   7.394   8.680  0.5675  1.0527 -1.3602
22371SOL    HW269652   0.221   7.396   8.740 -0.1482 -0.5483  0.3826
22372SOL     OW69653   0.778   8.797   2.897 -0.0731  0.2371 -0.0679
22372SOL    HW169654   0.812   8.729   2.956  0.9022  1.6204  1.0139
22372SOL    HW269655   0.833   8.790   2.819  1.3852  1.0849  0.8475
22373SOL     OW69656   0.767   5.933   0.544 -0.1911 -0.0997  0.5709
22373SOL    HW169657   0.803   5.865   0.601  1.7996 -0.9940 -1.6703
22373SOL    HW269658   0.824   6.009   0.558 -0.2179 -0.0538  0.4371
22374SOL     OW69659   9.200   5.479   7.824 -0.3273 -0.2479  0.2092
22374SOL    HW169660   9.260   5.423   7.874 -0.6038 -1.5800 -0.9176
22374SOL    HW269661   9.170   5.544   7.888  3.0640  1.0827  0.5252
22375SOL     OW69662   6.562   0.804   0.462 -0.1990 -0.2428  0.6946
22375SOL    HW169663   6.567   0.879   0.403  0.7296 -0.3207  0.6639
22375SOL    HW269664   6.487   0.823   0.519  1.0441  1.5329  1.8086
22376SOL     OW69665   7.466   8.996   8.900  0.0418  0.4474  0.0374
22376SOL    HW169666   7.541   9.003   8.841 -0.0016  0.9022  0.0372
22376SOL    HW269667   7.501   8.951   8.977  0.1733  0.1362 -0.1982
22377SOL     OW69668   6.995   5.622   2.406  0.0197 -0.4403  0.0294
22377SOL    HW169669   6.970   5.534   2.433  0.7415  0.2980  3.3517
22377SOL    HW269670   7.088   5.628   2.426  0.2236  0.7616 -1.1664
22378SOL     OW69671   8.658   4.717   1.508  0.6918  0.5209  0.3140
22378SOL    HW169672   8.651   4.623   1.493 -0.4680  0.7874 -0.9305
22378SOL    HW269673   8.713   4.748   1.436  1.1021  0.7880  0.7456
22379SOL     OW69674   2.199   5.174   4.244  0.2176 -0.6928 -0.1941
22379SOL    HW169675   2.212   5.168   4.149  1.6856  0.0072 -0.0375
22379SOL    HW269676   2.287   5.183   4.280 -0.2512 -1.9454  1.3251
22380SOL     OW69677   1.910   7.342   4.301 -0.1562  0.2172 -0.1371
22380SOL    HW169678   1.893   7.260   4.255  1.4739 -0.9343  1.2727
22380SOL    HW269679   1.931   7.315   4.391 -1.7931  2.3206  0.9284
22381SOL     OW69680   1.661   2.606   2.370 -0.6545  0.4794  0.5835
22381SOL    HW169681   1.675   2.608   2.275 -1.0893  0.8796  0.5240
22381SOL    HW269682   1.603   2.531   2.384  0.2805 -0.2348  0.6557
22382SOL     OW69683   2.413   5.533   1.126  0.2136 -0.0290  0.4414
22382SOL    HW169684   2.468   5.469   1.171 -1.3687  0.4367  3.1660
22382SOL    HW269685   2.428   5.517   1.033  1.0284 -3.3308  1.0761
22383SOL     OW69686   3.843   7.019   0.219 -0.0048 -0.2741  0.1052
22383SOL    HW169687   3.869   7.079   0.289  0.1353 -2.6904  2.1809
22383SOL    HW269688   3.925   6.984   0.185 -0.1513 -0.5250  0.0109
22384SOL     OW69689   5.972   1.936   2.520  0.3155 -0.1054  0.2471
22384SOL    HW169690   5.946   1.852   2.558  2.2557 -0.2834  1.2393
22384SOL    HW269691   5.927   2.002   2.573 -1.3546 -0.5060 -0.6479
22385SOL     OW69692   7.899   3.535   9.007  0.3984 -0.1508  0.1734
22385SOL    HW169693   7.890   3.594   9.082 -0.8857 -1.5716  1.1832
22385SOL    HW269694   7.991   3.509   9.007  0.7594  1.1001  0.2870
22386SOL     OW69695   1.949   3.314   1.323 -0.2029 -0.0750  0.3208
22386SOL    HW169696   1.937   3.271   1.408 -0.5529 -1.1465 -0.2671
22386SOL    HW269697   2.033   3.280   1.291 -1.1130 -1.3727 -0.7464
22387SOL     OW69698   1.737   2.956   2.759  0.3175 -0.0646 -0.0558
22387SOL    HW169699   1.802   2.970   2.689  1.4677 -1.6360  0.6597
22387SOL    HW269700   1.673   2.897   2.720 -0.1640  0.6966 -0.4374
22388SOL     OW69701   4.676   7.917  10.081 -0.0261  0.0406  0.0649
22388SOL    HW169702   4.706   7.947  10.167  1.1394  1.0723 -0.6982
22388SOL    HW269703   4.633   7.993  10.042  1.1237  0.1444 -1.0340
22389SOL     OW69704   0.520   3.846   3.723  0.6423 -0.0424 -0.3405
22389SOL    HW169705   0.543   3.923   3.775  1.3827 -0.1768 -0.4673
22389SOL    HW269706   0.516   3.774   3.786  0.2923  0.0335 -0.2755
22390SOL     OW69707   0.787   2.946   8.721  0.1853  0.5476 -0.2246
22390SOL    HW169708   0.874   2.938   8.760 -0.0356 -0.4806  0.0594
22390SOL    HW269709   0.759   3.035   8.744  0.3757  0.2254  1.3103
22391SOL     OW69710   0.231   6.570   2.944 -0.0491  0.1568  0.5017
22391SOL    HW169711   0.241   6.476   2.929 -0.3655  0.1118  0.5851
22391SOL    HW269712   0.288   6.610   2.879  0.0340 -0.0908  0.4201
22392SOL     OW69713   8.141   6.248   4.465  0.0296  0.4919  0.0543
22392SOL    HW169714   8.116   6.222   4.376 -1.3895 -0.0386  0.6006
22392SOL    HW269715   8.082   6.199   4.522  2.6932 -1.2794  1.4208
22393SOL     OW69716   9.097  10.001  10.069  0.3362  0.4671 -0.0735
22393SOL    HW169717   9.105   9.992  10.164 -0.1042  0.9328  0.0089
22393SOL    HW269718   9.136  10.086  10.050  1.8731 -0.3114 -0.5046
22394SOL     OW69719   4.339   0.510   7.706  0.1213  0.2975 -0.4867
22394SOL    HW169720   4.359   0.424   7.671 -0.9973 -0.1312 -0.0789
22394SOL    HW269721   4.400   0.569   7.661  0.5158 -0.6193 -1.1637
22395SOL     OW69722   8.937   3.403   7.409 -0.7637 -0.1165  0.6955
22395SOL    HW169723   9.029   3.380   7.415  0.0456  3.1294  1.4731
22395SOL    HW269724   8.909   3.370   7.324  2.2377  2.6373 -1.4129
22396SOL     OW69725  10.064   1.710   9.232 -0.2390  0.6284  0.3813
22396SOL    HW169726  10.059   1.769   9.157  0.7112 -0.1583 -0.3168
22396SOL    HW269727  10.156   1.684   9.236 -1.0923 -2.9462 -1.0179
22397SOL     OW69728   0.274   0.000   9.848 -0.9366  0.1094  0.1181
22397SOL    HW169729   0.356  -0.039   9.879  0.0375  2.2848  0.4038
22397SOL    HW269730   0.219  -0.074   9.824  0.4378 -1.4589  1.6663
22398SOL     OW69731   2.061   7.974   5.219  0.0556 -0.6912 -0.2020
22398SOL    HW169732   2.092   8.020   5.297 -0.1925  1.1461 -1.1596
22398SOL    HW269733   1.968   7.993   5.215  0.5173  1.3424 -2.3150
22399SOL     OW69734   9.534   3.337   3.750 -0.4512 -0.4815  0.0470
22399SOL    HW169735   9.450   3.339   3.796 -0.3073 -0.6634  0.3190
22399SOL    HW269736   9.549   3.244   3.732  0.6334 -0.6492  1.7274
22400SOL     OW69737   5.639   8.397   1.173 -0.1928 -0.0842  0.4205
22400SOL    HW169738   5.584   8.451   1.116 -0.0663  0.6810  1.0244
22400SOL    HW269739   5.582   8.324   1.197  0.5776 -1.8638 -2.8274
22401SOL     OW69740   5.368   1.719   5.471  0.5296  0.4536 -0.3999
22401SOL    HW169741   5.459   1.747   5.476  0.5665  0.4918 -1.2294
22401SOL    HW269742   5.369   1.629   5.503  1.2049 -0.2620 -2.3439
22402SOL     OW69743   0.921   1.888   0.064 -0.0211  0.1109  0.1915
22402SOL    HW169744   0.870   1.947   0.008 -1.0441 -0.1201  0.8604
22402SOL    HW269745   0.975   1.946   0.117 -1.3311  0.4833  1.1485
22403SOL     OW69746   8.448   5.295   1.677 -0.2704 -0.1391 -0.4435
22403SOL    HW169747   8.446   5.232   1.749  0.4732 -0.2567 -0.5222
22403SOL    HW269748   8.481   5.245   1.602 -0.9815 -0.0004 -0.8568
22404SOL     OW69749   0.196   7.780   5.615 -0.2925  0.1549  0.4836
22404SOL    HW169750   0.126   7.715   5.613  0.9524 -1.1967 -0.3585
22404SOL    HW269751   0.151   7.863   5.626 -2.0443 -0.6794 -0.1190
22405SOL     OW69752   5.912   6.921   4.356 -0.0481  0.0683  0.8780
22405SOL    HW169753   5.985   6.983   4.350 -0.7820  0.9276  0.6208
22405SOL    HW269754   5.938   6.859   4.424  1.0074  0.2459  0.6419
22406SOL     OW69755   8.776   6.470   2.832  0.2617 -0.8124 -0.0253
22406SOL    HW169756   8.697   6.520   2.811  0.9598  1.3648  2.2720
22406SOL    HW269757   8.748   6.378   2.828 -2.3558 -0.0865  0.6179
22407SOL     OW69758   4.275   2.265   0.183 -0.4254  0.3347  0.3802
22407SOL    HW169759   4.284   2.353   0.220 -0.1012  0.1071  0.8477
22407SOL    HW269760   4.365   2.236   0.168 -0.5543  0.6279 -1.0938
22408SOL     OW69761   3.857   7.503   2.987 -0.4205  0.3106 -0.0035
22408SOL    HW169762   3.837   7.573   2.925  0.5375  0.5363 -0.0588
22408SOL    HW269763   3.928   7.454   2.946  1.3905  1.4751  1.6851
22409SOL     OW69764   6.927   0.437   2.392  0.5033  0.2364  0.0910
22409SOL    HW169765   6.906   0.425   2.484 -1.3450 -0.7497 -0.4330
22409SOL    HW269766   6.938   0.348   2.357  0.1965  0.5640 -0.8674
22410SOL     OW69767   8.827   4.362   0.460  0.2676 -0.0278 -0.5956
22410SOL    HW169768   8.763   4.335   0.525  1.1302  1.4886  0.9362
22410SOL    HW269769   8.910   4.328   0.493  0.7621  1.0445 -0.7102
22411SOL     OW69770   2.565   1.370   0.598 -0.0849 -0.3064  0.0581
22411SOL    HW169771   2.591   1.321   0.676  1.7605 -0.9535 -0.9344
22411SOL    HW269772   2.526   1.450   0.632  1.4308 -0.2089  1.6481
22412SOL     OW69773   2.285   7.783   2.485 -0.3660 -0.8377  0.1000
22412SOL    HW169774   2.363   7.733   2.460 -0.2338 -0.1019 -0.9638
22412SOL    HW269775   2.212   7.726   2.461 -0.1888 -0.9989 -0.0592
22413SOL     OW69776   6.151   9.263   2.406  0.1674  0.1329 -0.1012
22413SOL    HW169777   6.059   9.238   2.403  0.0426  0.5807 -0.1538
22413SOL    HW269778   6.188   9.213   2.478 -0.0077 -0.4123 -0.3926
22414SOL     OW69779   4.199   0.055   0.102  0.0633 -1.0261  0.1733
22414SOL    HW169780   4.207   0.135   0.154  0.5315 -1.7596  1.2697
22414SOL    HW269781   4.272   0.058   0.041  0.4477 -0.9068  0.6361
22415SOL     OW69782   8.544   3.776   3.012 -0.2889 -0.2711 -0.2177
22415SOL    HW169783   8.454   3.796   2.986 -0.4670 -0.5921  0.1392
22415SOL    HW269784   8.598   3.811   2.942 -0.7950 -1.5722 -1.2790
22416SOL     OW69785   0.375   7.737   7.251  0.1763 -0.1238  1.0368
22416SOL    HW169786   0.326   7.661   7.219  1.7431  0.4213 -3.0097
22416SOL    HW269787   0.367   7.733   7.346 -2.9670 -3.1804  0.7453
22417SOL     OW69788   3.343   8.110   4.796  0.3949  0.1010  0.2300
22417SOL    HW169789   3.361   8.181   4.857  0.0347 -1.1660  1.8555
22417SOL    HW269790   3.324   8.034   4.852 -0.8090 -0.8812 -1.4596
22418SOL     OW69791   6.574   2.505   4.160 -0.2896 -0.2481  0.0620
22418SOL    HW169792   6.632   2.539   4.092  0.4274 -0.1426  0.7178
22418SOL    HW269793   6.619   2.525   4.242 -1.8513  0.9899  0.6600
22419SOL     OW69794   9.707   8.472  10.103 -0.1780 -0.5677  0.0482
22419SOL    HW169795   9.670   8.543  10.052  0.7593 -1.6922 -2.2823
22419SOL    HW269796   9.728   8.511  10.188 -0.6404  1.6444 -0.8298
22420SOL     OW69797   2.533   1.701   3.825 -0.1041 -0.5318  0.6760
22420SOL    HW169798   2.585   1.727   3.748  0.8910 -1.7914  0.9072
22420SOL    HW269799   2.595   1.706   3.898 -1.2312  1.3865  1.5373
22421SOL     OW69800   4.883   0.702   0.762 -0.2161  0.2708 -0.1508
22421SOL    HW169801   4.797   0.692   0.722  0.6169 -0.3528 -1.8586
22421SOL    HW269802   4.871   0.674   0.853 -2.1015  1.4864 -0.0058
22422SOL     OW69803   2.004   7.692   8.028 -0.4111 -0.6201  0.5604
22422SOL    HW169804   2.070   7.725   7.968  0.0958 -1.7809  0.4522
22422SOL    HW269805   1.940   7.762   8.035 -0.0737 -0.1738 -0.7281
22423SOL     OW69806   1.966   4.417   4.417 -0.2926  0.3793  0.1578
22423SOL    HW169807   1.938   4.333   4.454  0.1784 -0.2313 -0.8332
22423SOL    HW269808   2.059   4.403   4.396 -0.1862  1.1877  0.0863
22424SOL     OW69809   5.534   4.835   9.262  0.1568  0.3361  0.2233
22424SOL    HW169810   5.482   4.764   9.299  0.0320 -0.5729 -1.6647
22424SOL    HW269811   5.470   4.900   9.233  0.1768  0.2953  0.0857
22425SOL     OW69812   8.208   5.606   3.401 -0.1681  0.0452 -0.5560
22425SOL    HW169813   8.198   5.666   3.327 -0.4735  0.9039  0.1751
22425SOL    HW269814   8.206   5.662   3.478  3.3406 -0.4672  0.0129
22426SOL     OW69815  10.195   9.515   0.663 -0.1536  0.3302 -0.0402
22426SOL    HW169816  10.241   9.513   0.579 -0.7804  0.4720 -0.3922
22426SOL    HW269817  10.134   9.589   0.655 -1.9969 -1.2008 -0.4206
22427SOL     OW69818   1.192   4.419   8.395  0.1249 -0.4389 -0.7730
22427SOL    HW169819   1.178   4.505   8.434  0.5881 -1.0841  0.8681
22427SOL    HW269820   1.111   4.400   8.347 -0.0235  0.8380 -1.0355
22428SOL     OW69821   1.771   9.248   5.029  0.2588  0.1232 -0.2143
22428SOL    HW169822   1.809   9.189   4.964  3.6768  1.7662  0.1887
22428SOL    HW269823   1.715   9.306   4.978  0.6711 -0.4005 -1.2885
22429SOL     OW69824   1.436   7.634   6.666 -0.0206 -0.1035  1.2144
22429SOL    HW169825   1.345   7.652   6.644  0.4691 -0.3165 -1.1088
22429SOL    HW269826   1.432   7.555   6.720 -1.3087  0.7487  2.4162
22430SOL     OW69827   1.318   1.426   7.876  0.2076 -0.2107 -0.0592
22430SOL    HW169828   1.322   1.401   7.968  0.0516  1.5506  0.4483
22430SOL    HW269829   1.340   1.520   7.875 -2.2760  0.4148 -1.4972
22431SOL     OW69830   4.915   2.369   9.622  0.0544 -0.2423  0.1705
22431SOL    HW169831   4.886   2.296   9.567 -1.2409  1.9852 -2.2096
22431SOL    HW269832   5.010   2.368   9.614  0.0132 -1.3312 -0.2968
22432SOL     OW69833   5.020   4.806   8.125  0.0656 -0.6701 -0.6571
22432SOL    HW169834   5.082   4.734   8.112  1.5582  0.3476  0.7046
22432SOL    HW269835   5.018   4.819   8.220  0.2351  1.4574 -0.9297
22433SOL     OW69836   9.194   4.698   8.684 -0.3116  0.1810 -0.3680
22433SOL    HW169837   9.212   4.749   8.763  0.4430  0.4437 -0.7016
22433SOL    HW269838   9.271   4.643   8.673 -1.1799 -1.1404  0.0616
22434SOL     OW69839   4.423   2.672   3.630  0.5827 -0.0064  0.1675
22434SOL    HW169840   4.424   2.735   3.702 -0.4761 -0.0438  0.2097
22434SOL    HW269841   4.344   2.692   3.580  0.4248 -1.0629 -0.0292
22435SOL     OW69842   5.506   9.607   3.986 -0.3900 -0.2681  0.1386
22435SOL    HW169843   5.419   9.634   4.015 -0.4412  0.8119 -0.9853
22435SOL    HW269844   5.496   9.516   3.960 -1.3740  0.0823 -0.7257
22436SOL     OW69845   5.509   7.925   1.858  0.3786  0.4652  0.1733
22436SOL    HW169846   5.460   7.986   1.914 -2.0108  0.2420 -1.5523
22436SOL    HW269847   5.541   7.858   1.918 -2.4244  0.0202  1.2714
22437SOL     OW69848   6.068   0.339   1.324  0.3717  0.8502  0.1006
22437SOL    HW169849   6.116   0.388   1.258  1.1828  0.6312  0.5207
22437SOL    HW269850   5.976   0.355   1.304  0.6220  1.4577 -0.5712
22438SOL     OW69851   7.207   0.541   2.689 -0.8189 -0.2514 -0.0133
22438SOL    HW169852   7.196   0.453   2.726  0.1465 -0.3923 -0.0694
22438SOL    HW269853   7.232   0.595   2.764 -1.1798 -0.0603 -0.0255
22439SOL     OW69854   9.797   1.632   8.347 -0.3173  0.0053 -0.2386
22439SOL    HW169855   9.873   1.604   8.397  0.6890  1.3988 -0.9744
22439SOL    HW269856   9.726   1.637   8.411 -0.1404 -2.5910  0.2083
22440SOL     OW69857   8.108   0.323   7.774 -0.2253  0.4488  0.3067
22440SOL    HW169858   8.127   0.271   7.695 -1.0970  0.1954  0.2472
22440SOL    HW269859   8.191   0.326   7.821 -0.1048 -0.8597  0.2184
22441SOL     OW69860   6.056   0.859   9.802  0.1086 -0.8443 -0.2001
22441SOL    HW169861   6.057   0.954   9.816 -0.5769 -1.2495  2.7348
22441SOL    HW269862   6.044   0.850   9.707  0.3191  1.9888 -0.5479
22442SOL     OW69863   6.080   4.481   1.187  0.2670  0.9609  0.0926
22442SOL    HW169864   6.116   4.516   1.105 -0.8445  1.1694 -0.3103
22442SOL    HW269865   6.040   4.556   1.230 -1.5765  0.3384 -0.4816
22443SOL     OW69866   8.573   2.706   3.873 -0.2345 -0.4511  0.2225
22443SOL    HW169867   8.650   2.716   3.928 -0.2343  2.1824 -0.2290
22443SOL    HW269868   8.607   2.673   3.790  0.1394 -1.2397  0.6782
22444SOL     OW69869   1.574   3.333   2.535  0.5886 -0.1468 -0.1259
22444SOL    HW169870   1.533   3.250   2.559  1.0986 -0.7708 -1.3818
22444SOL    HW269871   1.504   3.397   2.545  0.1546 -0.7432  0.7290
22445SOL     OW69872   0.839   9.415   4.452  0.0847  0.1903 -0.0652
22445SOL    HW169873   0.775   9.348   4.473 -2.1001  1.9805 -0.7769
22445SOL    HW269874   0.919   9.367   4.434 -0.6105 -2.0131  2.3869
22446SOL     OW69875   6.582  10.051   7.277  0.3010  0.3940 -0.0065
22446SOL    HW169876   6.602  10.002   7.357  2.2247 -0.7070 -1.1202
22446SOL    HW269877   6.565   9.984   7.211 -2.3455  1.2989 -0.2969
22447SOL     OW69878   8.986   3.755   1.336 -0.1974 -0.7640  0.2711
22447SOL    HW169879   9.048   3.701   1.287 -0.6456 -1.2365  0.2317
22447SOL    HW269880   9.039   3.830   1.365 -0.2033  0.1467 -1.9549
22448SOL     OW69881   3.730   1.098   0.057  0.2100 -0.0596  0.0326
22448SOL    HW169882   3.648   1.119   0.101  0.7946 -1.9240  2.1106
22448SOL    HW269883   3.704   1.052  -0.023 -0.7650 -1.6696  1.2554
22449SOL     OW69884   9.271   5.510   8.481 -0.0038  0.1465 -0.2701
22449SOL    HW169885   9.358   5.480   8.504 -0.1785 -0.6029 -0.5558
22449SOL    HW269886   9.262   5.489   8.388 -0.0660  1.2602 -0.5272
22450SOL     OW69887   0.296   4.441   5.962  0.0689 -0.0214  0.8000
22450SOL    HW169888   0.347   4.361   5.967 -1.0846 -0.9866 -1.6292
22450SOL    HW269889   0.205   4.412   5.965 -0.4179  0.8971 -2.2798
22451SOL     OW69890   5.468   3.835   4.862  0.4089  0.4848 -0.6606
22451SOL    HW169891   5.540   3.809   4.919 -1.8513  0.6784  2.3929
22451SOL    HW269892   5.450   3.757   4.809 -0.6179 -1.4087  2.3450
22452SOL     OW69893   0.066   2.414   7.868 -0.7347 -0.3166  0.5312
22452SOL    HW169894   0.152   2.376   7.852 -0.0732  0.6371  1.7027
22452SOL    HW269895   0.005   2.343   7.850  0.3933 -1.5088  1.2513
22453SOL     OW69896   0.011   7.707   9.015 -0.4197 -0.0771  0.8550
22453SOL    HW169897   0.104   7.697   9.037 -0.6828 -1.4573  1.4117
22453SOL    HW269898  -0.035   7.684   9.096 -1.2552  0.1836  0.4553
22454SOL     OW69899   7.602   8.982   6.753 -0.2004 -0.8017  0.2274
22454SOL    HW169900   7.530   9.045   6.753  0.8336  0.4159 -0.4561
22454SOL    HW269901   7.680   9.035   6.736  0.8813 -2.0675  1.1058
22455SOL     OW69902   5.664   8.506   4.115 -1.1127 -0.1672  0.2188
22455SOL    HW169903   5.600   8.493   4.045 -0.6864  1.0140 -0.4037
22455SOL    HW269904   5.748   8.511   4.069 -0.8928  1.1825  0.7491
22456SOL     OW69905   1.277   5.269   5.124 -0.5244 -0.3872  0.3116
22456SOL    HW169906   1.230   5.191   5.094  0.6775 -1.5313  1.3571
22456SOL    HW269907   1.346   5.235   5.180 -0.4303  1.4896  1.3601
22457SOL     OW69908   6.568   0.520   6.630 -0.5798 -0.3188 -0.5417
22457SOL    HW169909   6.526   0.453   6.577 -1.2923 -1.2382  1.1314
22457SOL    HW269910   6.649   0.480   6.661 -1.2624 -0.6337  0.8977
22458SOL     OW69911   6.863   4.434   6.061  0.8626 -0.2433  0.0020
22458SOL    HW169912   6.915   4.452   6.139 -0.3507  0.0066  0.7685
22458SOL    HW269913   6.904   4.485   5.992  1.0545  0.7172  0.8177
22459SOL     OW69914  10.190   9.984   4.283  0.2306 -0.5568 -0.0847
22459SOL    HW169915  10.272   9.987   4.332 -0.4848 -0.3004  1.0938
22459SOL    HW269916  10.211  10.028   4.200  0.5672  1.9220  1.2648
22460SOL     OW69917   0.702   0.047   7.089 -0.9954 -0.3534  0.2602
22460SOL    HW169918   0.718   0.138   7.065  1.4010 -0.6668  0.4807
22460SOL    HW269919   0.788   0.015   7.117 -1.6390 -2.9016 -0.5687
22461SOL     OW69920   1.102   2.017   8.582 -0.5438 -0.2075  0.2215
22461SOL    HW169921   1.135   1.998   8.494  1.0621  2.6102  0.1300
22461SOL    HW269922   1.181   2.018   8.637 -1.3651 -0.5986  1.4140
22462SOL     OW69923   3.199   5.757   4.559  0.0118 -0.8950  0.5959
22462SOL    HW169924   3.172   5.665   4.562 -0.6808 -0.6736  1.1484
22462SOL    HW269925   3.274   5.762   4.617 -0.4835 -0.9370  1.2441
22463SOL     OW69926   3.195   4.380   8.225  0.2911  0.2184 -0.2063
22463SOL    HW169927   3.137   4.455   8.239  1.3916  1.3199 -1.3576
22463SOL    HW269928   3.237   4.398   8.141  3.2734  0.1190  1.2066
22464SOL     OW69929   5.676   2.497   8.211  0.0981 -0.7877  0.4693
22464SOL    HW169930   5.605   2.481   8.149  1.5634 -0.1855 -1.4070
22464SOL    HW269931   5.679   2.592   8.219 -0.7215 -0.9008  2.2417
22465SOL     OW69932   1.671   3.220   1.720 -0.7089 -0.0190  0.3659
22465SOL    HW169933   1.582   3.204   1.751 -0.5842  0.6895  1.0978
22465SOL    HW269934   1.659   3.247   1.629 -1.3844  1.7886  0.9704
22466SOL     OW69935   5.700   9.791   9.096  0.5487 -0.4632  0.4038
22466SOL    HW169936   5.708   9.695   9.099  1.6853 -0.5350 -2.5650
22466SOL    HW269937   5.626   9.807   9.038  0.7713  0.4482  0.3643
22467SOL     OW69938   6.713   0.093   5.614  0.3261 -0.8178 -0.2126
22467SOL    HW169939   6.745   0.007   5.642 -0.0437 -0.5170  1.1499
22467SOL    HW269940   6.673   0.077   5.528  1.3511 -1.7693 -0.5336
22468SOL     OW69941   8.120  10.171   6.827 -0.6115 -0.1490  0.4167
22468SOL    HW169942   8.150  10.255   6.862  0.9366 -0.0968 -0.9344
22468SOL    HW269943   8.188  10.147   6.764 -1.4598 -2.0248  0.2071
22469SOL     OW69944   9.690   9.620   3.535  0.3499 -0.2954 -0.0975
22469SOL    HW169945   9.656   9.655   3.452 -0.2289  0.6169  0.5053
22469SOL    HW269946   9.708   9.528   3.517  1.5755  0.2289 -1.6379
22470SOL     OW69947   1.910   9.657   7.162 -0.3176 -0.2810  0.3507
22470SOL    HW169948   1.846   9.704   7.215  0.3808  3.2126 -1.7478
22470SOL    HW269949   1.869   9.572   7.146 -2.3932  0.1700  2.8457
22471SOL     OW69950   2.708  10.145   9.888 -0.2274 -0.2589 -0.2747
22471SOL    HW169951   2.754  10.134   9.804 -0.5639 -0.0535 -0.4890
22471SOL    HW269952   2.757  10.214   9.933 -0.3880  0.0341 -0.5478
22472SOL     OW69953   7.124   2.759   3.987 -0.0618 -0.4429  0.0494
22472SOL    HW169954   7.041   2.794   3.956  1.1552  2.1967 -0.3651
22472SOL    HW269955   7.106   2.729   4.076 -0.9016  2.3640  0.8753
22473SOL     OW69956   0.589   6.544   4.686 -0.2416 -0.1900 -0.0171
22473SOL    HW169957   0.671   6.550   4.637 -0.3640 -0.0771 -0.2065
22473SOL    HW269958   0.536   6.482   4.637 -0.8349  0.8458 -0.6938
22474SOL     OW69959   2.402   6.166   1.259  0.4070  0.3462 -0.1482
22474SOL    HW169960   2.399   6.172   1.164  0.4179  3.0759 -0.0061
22474SOL    HW269961   2.311   6.172   1.287  0.4237 -0.2000  0.0375
22475SOL     OW69962   4.971   0.696   3.518 -0.3389 -0.4458  0.4823
22475SOL    HW169963   4.955   0.675   3.426  2.0635 -0.0261 -0.0443
22475SOL    HW269964   4.927   0.780   3.532 -1.4049 -0.9021 -0.0361
22476SOL     OW69965   9.331   5.482   2.578 -0.1025  0.1391  0.2145
22476SOL    HW169966   9.240   5.479   2.549  0.1107 -0.5588 -0.3854
22476SOL    HW269967   9.376   5.417   2.525  1.0337  1.4347 -0.4351
22477SOL     OW69968   2.036   6.054   2.127  0.3795 -0.0577  0.0391
22477SOL    HW169969   2.119   6.008   2.113 -0.5858 -1.3970 -1.4982
22477SOL    HW269970   2.040   6.084   2.217  2.1911 -0.8286  0.2403
22478SOL     OW69971   7.352   2.534   1.930  0.1809  0.2738  0.4906
22478SOL    HW169972   7.270   2.523   1.980 -0.8159  1.2811 -0.8758
22478SOL    HW269973   7.400   2.602   1.977 -0.5482  0.8884  0.3556
22479SOL     OW69974   2.138   8.388   5.719  0.4561  0.2831  0.0488
22479SOL    HW169975   2.059   8.357   5.763  1.0565  0.1948  1.0870
22479SOL    HW269976   2.135   8.484   5.729  0.4222  0.2891 -0.0191
22480SOL     OW69977   9.972   3.304   2.542  0.6092  0.0159  0.4913
22480SOL    HW169978   9.931   3.268   2.621  0.6751 -2.5088 -0.5859
22480SOL    HW269979   9.925   3.386   2.526 -1.3577 -0.8690  1.5330
22481SOL     OW69980   7.173   1.627   7.405 -0.1588  0.3068  0.2154
22481SOL    HW169981   7.211   1.608   7.319 -0.5703 -1.5373  0.4343
22481SOL    HW269982   7.115   1.702   7.389  1.9897  1.8534 -0.5163
22482SOL     OW69983   5.485   9.082   1.227  0.1950 -0.2308 -0.0158
22482SOL    HW169984   5.426   9.154   1.250  1.4019  0.1598  1.9715
22482SOL    HW269985   5.510   9.099   1.136 -0.0388  1.5001  0.2261
22483SOL     OW69986   5.314   7.224   2.529  0.6370  0.0611  0.2033
22483SOL    HW169987   5.381   7.236   2.596 -0.3569  0.6076  1.1281
22483SOL    HW269988   5.255   7.158   2.566  0.4690 -0.1578 -0.4477
22484SOL     OW69989   5.995   5.705   2.072 -0.0900  0.4470 -0.0547
22484SOL    HW169990   5.912   5.716   2.118  0.1432 -1.1031  0.7742
22484SOL    HW269991   5.976   5.733   1.982 -1.0548  1.6900  0.5166
22485SOL     OW69992   4.412   0.026   3.662 -0.8315  0.3630 -0.0306
22485SOL    HW169993   4.333  -0.012   3.702 -0.7281  0.9691  0.7774
22485SOL    HW269994   4.420  -0.018   3.578 -0.8074 -1.2838  0.8042
22486SOL     OW69995   9.517   7.587   5.005  0.1291  0.6165  0.8430
22486SOL    HW169996   9.476   7.665   4.966 -0.2441 -0.0936 -0.2192
22486SOL    HW269997   9.611   7.601   4.993 -0.0248 -0.3436 -1.8644
22487SOL     OW69998   7.453   1.246   3.429 -0.1771 -0.1189 -0.3505
22487SOL    HW169999   7.359   1.244   3.416 -0.4870  0.2237  1.6779
22487SOL    HW270000   7.480   1.154   3.429 -0.7949 -0.3083  0.8706
22488SOL     OW70001   8.366   8.780   3.738  0.1162 -0.5833  0.0625
22488SOL    HW170002   8.449   8.766   3.693 -0.7794  0.4425 -1.9993
22488SOL    HW270003   8.338   8.867   3.710 -0.6442 -0.0319  2.4014
22489SOL     OW70004   9.018   8.544   5.475 -0.1484  0.1298  0.2994
22489SOL    HW170005   9.012   8.500   5.560  0.9964 -0.7164 -0.0492
22489SOL    HW270006   8.948   8.503   5.422 -1.9345  1.7904  1.3064
22490SOL     OW70007   7.533   3.208   4.114 -0.0922 -0.2425 -0.1761
22490SOL    HW170008   7.590   3.172   4.046 -1.3317  0.8967 -1.8768
22490SOL    HW270009   7.444   3.197   4.079 -0.7492  0.4372  1.2378
22491SOL     OW70010   0.329   3.239   1.230  0.3771 -0.2191 -0.0056
22491SOL    HW170011   0.341   3.216   1.138  2.8112 -0.2444  0.2742
22491SOL    HW270012   0.294   3.328   1.229  0.7492 -0.0852 -0.9576
22492SOL     OW70013   0.705   8.621   9.646 -0.3065 -0.1969 -0.2792
22492SOL    HW170014   0.790   8.577   9.652 -0.8614 -1.1587  0.6125
22492SOL    HW270015   0.641   8.551   9.657 -1.2120  0.7337  0.4144
22493SOL     OW70016   5.132   5.397   7.699  0.1415 -0.0931 -0.1686
22493SOL    HW170017   5.053   5.364   7.742  0.5187 -0.5359  0.1835
22493SOL    HW270018   5.134   5.353   7.614  0.1386 -0.2640 -0.0803
22494SOL     OW70019   7.707   0.781   1.120 -0.3973 -0.5489 -0.8484
22494SOL    HW170020   7.692   0.693   1.156  0.5075 -1.0219 -1.6200
22494SOL    HW270021   7.678   0.775   1.029 -0.3130 -0.0439 -0.9066
22495SOL     OW70022   5.029   1.597   9.526  0.2377 -0.0784  0.2935
22495SOL    HW170023   5.071   1.542   9.593  0.5087 -1.1596 -0.7323
22495SOL    HW270024   4.964   1.539   9.486 -0.1289  0.6539 -0.1665
22496SOL     OW70025   2.495   3.163   3.103 -0.0214  0.3627  0.1914
22496SOL    HW170026   2.483   3.116   3.021  3.3497  0.0231 -0.1750
22496SOL    HW270027   2.448   3.111   3.168 -1.9378  0.1469 -1.3189
22497SOL     OW70028   9.637   7.367   1.121 -0.3956  0.5400  0.5382
22497SOL    HW170029   9.726   7.341   1.144  0.2541  0.4365 -1.9987
22497SOL    HW270030   9.632   7.459   1.147 -0.1657  0.0845  2.3113
22498SOL     OW70031   1.332   2.567   9.484  0.4619 -0.5011 -0.0607
22498SOL    HW170032   1.369   2.530   9.404  2.5164  0.3180  0.4846
22498SOL    HW270033   1.272   2.499   9.516 -1.3749 -0.3258 -2.9156
22499SOL     OW70034   7.184   9.512   2.390  0.6834 -0.0776  0.6009
22499SOL    HW170035   7.141   9.437   2.350  1.8513 -1.3197  1.6212
22499SOL    HW270036   7.144   9.521   2.476 -1.0872  1.9438 -0.3778
22500SOL     OW70037   2.339   5.996   2.838 -0.3513 -0.3955 -0.0668
22500SOL    HW170038   2.431   5.997   2.864 -0.8969 -0.2665  1.9844
22500SOL    HW270039   2.299   5.930   2.896 -1.6137 -0.1839 -0.6862
22501SOL     OW70040   5.555   0.674   1.026  0.0695 -0.2904  0.3079
22501SOL    HW170041   5.535   0.588   1.061 -0.1184 -0.7313 -0.8894
22501SOL    HW270042   5.511   0.678   0.941 -0.7675  1.3611  0.7787
22502SOL     OW70043   9.380   9.655   6.323  0.4984  0.4309 -1.0035
22502SOL    HW170044   9.428   9.579   6.355 -2.5092 -0.6959  0.9807
22502SOL    HW270045   9.306   9.619   6.275  0.2098  2.1442 -1.9037
22503SOL     OW70046   3.638   1.119   4.832  0.0553  0.4202 -0.1314
22503SOL    HW170047   3.694   1.196   4.845  1.2408 -0.7927  2.1787
22503SOL    HW270048   3.686   1.064   4.771  0.2659  0.4864 -0.0269
22504SOL     OW70049   0.838   9.265   2.119 -0.1540  0.1911 -0.4513
22504SOL    HW170050   0.917   9.317   2.102 -1.0143  1.0556 -1.8856
22504SOL    HW270051   0.871   9.186   2.163  1.0888  2.2497  2.4731
22505SOL     OW70052   9.222   1.679   6.470 -0.0613 -0.1832  0.3118
22505SOL    HW170053   9.244   1.679   6.377  0.7935  0.2555  0.5069
22505SOL    HW270054   9.275   1.751   6.507  0.2507 -0.8988  1.2806
22506SOL     OW70055   0.589   3.201   1.015 -0.0240  0.4361 -0.7773
22506SOL    HW170056   0.627   3.181   0.929 -0.9601  1.0848 -1.3515
22506SOL    HW270057   0.495   3.208   0.998 -0.2782 -0.0030  0.4136
22507SOL     OW70058   1.846   8.881   7.729  0.2907 -0.6730 -0.2624
22507SOL    HW170059   1.850   8.786   7.724  1.5016 -0.8297  2.5491
22507SOL    HW270060   1.752   8.902   7.728 -0.0082 -1.9738  0.1753
22508SOL     OW70061   7.389   8.922   1.913 -0.4525 -0.1560 -0.0924
22508SOL    HW170062   7.440   8.905   1.834 -0.5298 -1.6822  0.1726
22508SOL    HW270063   7.455   8.939   1.980 -0.3891  1.2943 -0.5036
22509SOL     OW70064   9.981   8.877   4.114  0.3458 -0.4660  1.0546
22509SOL    HW170065   9.983   8.924   4.031  1.3209 -1.4066  0.5431
22509SOL    HW270066  10.068   8.891   4.152  1.1893 -3.1524  0.1605
22510SOL     OW70067   5.537   3.562   5.590 -0.2326 -0.5264 -0.7684
22510SOL    HW170068   5.626   3.558   5.625 -0.2496 -2.7022 -0.9132
22510SOL    HW270069   5.520   3.655   5.578  0.6491  0.1261  2.7605
22511SOL     OW70070   6.166   7.790   2.964 -0.5626 -0.0900 -0.1595
22511SOL    HW170071   6.197   7.713   2.916 -0.0213 -0.2744  0.4778
22511SOL    HW270072   6.166   7.861   2.900 -1.1475 -0.6452 -0.7713
22512SOL     OW70073   9.393   7.698   9.754 -0.0489 -0.0421 -0.4658
22512SOL    HW170074   9.473   7.702   9.702  0.2566  1.2620  0.0800
22512SOL    HW270075   9.376   7.788   9.781 -0.4164 -0.6137  1.3601
22513SOL     OW70076   6.676   6.582   9.394  0.4408 -0.2095  0.3155
22513SOL    HW170077   6.751   6.530   9.427  1.5619  0.1322 -1.6413
22513SOL    HW270078   6.636   6.526   9.328  1.1805  1.0707 -1.2458
22514SOL     OW70079   2.474   4.710   0.928 -0.0352  0.4773  0.4023
22514SOL    HW170080   2.542   4.770   0.962 -0.8448  1.3494  0.5098
22514SOL    HW270081   2.489   4.709   0.833  1.6139 -1.1948  0.6589
22515SOL     OW70082   2.320   1.264   6.390 -0.0566 -0.7031  0.1707
22515SOL    HW170083   2.332   1.271   6.484  1.8026 -1.7878  0.0398
22515SOL    HW270084   2.379   1.330   6.353 -1.0659 -0.0093 -0.2395
22516SOL     OW70085   4.443   8.651   4.938  0.1951  0.1679 -0.3145
22516SOL    HW170086   4.484   8.700   4.867  2.4165  1.3682  1.7148
22516SOL    HW270087   4.360   8.696   4.954  1.2006  1.9503  0.0411
22517SOL     OW70088   5.072   9.469   3.723 -0.0029  0.5449 -0.2364
22517SOL    HW170089   5.073   9.374   3.713  2.4134  0.4896  0.2396
22517SOL    HW270090   5.068   9.503   3.633 -0.8771 -0.0072 -0.4034
22518SOL     OW70091   6.140   1.450   0.247 -0.6330  0.5126  0.1486
22518SOL    HW170092   6.203   1.521   0.257  0.7107 -0.4265 -1.4122
22518SOL    HW270093   6.153   1.418   0.158 -2.2368 -0.7332  0.3269
22519SOL     OW70094   0.788   7.068   6.118 -0.4506 -0.6765  0.5574
22519SOL    HW170095   0.877   7.054   6.148  0.1314  1.5154 -0.0041
22519SOL    HW270096   0.746   7.115   6.190 -1.1971 -1.7921  0.8620
22520SOL     OW70097   6.016   4.396   6.139  0.1507  0.1620  0.4725
22520SOL    HW170098   6.033   4.359   6.052  1.0859  1.7985 -0.0625
22520SOL    HW270099   5.997   4.489   6.122  0.1052  0.4390  1.9964
22521SOL     OW70100   1.992   9.076   6.392  0.1300 -0.6516 -0.2017
22521SOL    HW170101   1.926   9.056   6.458 -0.0581  0.4880 -0.0382
22521SOL    HW270102   2.004   9.171   6.398  0.0006 -0.5194 -1.9157
22522SOL     OW70103   7.168   6.206   1.168  1.1397 -0.0267 -0.1202
22522SOL    HW170104   7.212   6.234   1.088  1.2269  1.1115  0.3153
22522SOL    HW270105   7.216   6.249   1.239  2.1829 -2.4375  0.6891
22523SOL     OW70106   8.715   7.147   3.046 -0.3080  0.7771  0.2634
22523SOL    HW170107   8.717   7.243   3.044 -1.5868  0.8101 -0.3723
22523SOL    HW270108   8.804   7.121   3.069  0.0089  2.1250  0.5897
22524SOL     OW70109   7.716   0.448   9.245  0.1850  0.1704 -0.9356
22524SOL    HW170110   7.774   0.402   9.305 -0.6249 -0.3455 -0.5346
22524SOL    HW270111   7.697   0.384   9.176  0.0551  0.3149 -1.0359
22525SOL     OW70112   4.129   4.045   5.716 -0.1960  0.1626 -0.1449
22525SOL    HW170113   4.087   3.960   5.704  2.0790 -0.9133 -0.7007
22525SOL    HW270114   4.137   4.082   5.628  0.3648  0.1889 -0.0859
22526SOL     OW70115   8.583   3.898   0.133  0.3184 -0.5650 -0.5921
22526SOL    HW170116   8.615   3.973   0.183 -2.5386  1.1503 -1.1836
22526SOL    HW270117   8.661   3.848   0.111  2.4122  2.6254 -0.7903
22527SOL     OW70118   0.442   7.703   1.156  0.4944 -0.2426  0.6337
22527SOL    HW170119   0.512   7.675   1.097  0.3376 -2.7303  1.5704
22527SOL    HW270120   0.460   7.657   1.238 -0.7530  1.1655  1.7251
22528SOL     OW70121   3.148   7.391   1.736 -0.2728 -0.7378 -0.1635
22528SOL    HW170122   3.134   7.476   1.694  0.3068  0.5385  2.0916
22528SOL    HW270123   3.061   7.353   1.743 -0.6732  0.1647 -0.2071
22529SOL     OW70124   9.115   9.579   9.973 -0.1649  0.4580 -0.5642
22529SOL    HW170125   9.024   9.560   9.996  0.5765 -4.1131 -1.0414
22529SOL    HW270126   9.166   9.544  10.046  1.3401  1.1352 -1.2772
22530SOL     OW70127   3.213   5.067   2.496  0.1986  0.0582 -0.5363
22530SOL    HW170128   3.181   4.997   2.554  0.5843 -1.4379 -2.0853
22530SOL    HW270129   3.264   5.021   2.429  0.6225  1.8586 -1.4798
22531SOL     OW70130   3.702   9.575   4.363 -0.1812 -0.7071 -0.3434
22531SOL    HW170131   3.783   9.549   4.406 -0.1534 -1.9295 -1.1081
22531SOL    HW270132   3.649   9.614   4.433  2.0777  2.5728 -0.3870
22532SOL     OW70133   0.768   9.236   1.603  0.5241  0.1415 -0.8171
22532SOL    HW170134   0.709   9.278   1.541 -0.3925  1.4117  0.8685
22532SOL    HW270135   0.848   9.290   1.601  0.5405  0.1089 -0.9840
22533SOL     OW70136   5.183   7.503   3.977 -0.5873  0.1418 -0.0643
22533SOL    HW170137   5.248   7.569   4.000  0.1000 -1.3669  2.4326
22533SOL    HW270138   5.114   7.553   3.932  0.8531  2.2184 -0.0565
22534SOL     OW70139   9.407   2.184   6.699 -0.0680  0.1369 -0.2039
22534SOL    HW170140   9.435   2.108   6.750 -1.7269 -0.9052 -0.8268
22534SOL    HW270141   9.368   2.243   6.764  0.8126  0.2712  0.2128
22535SOL     OW70142   0.247   1.442   8.446  0.6359  0.4210 -0.1180
22535SOL    HW170143   0.192   1.436   8.368  1.0469 -0.5459 -0.3508
22535SOL    HW270144   0.196   1.399   8.515 -0.3565  2.5668  0.5287
22536SOL     OW70145   8.993   2.967   0.264  0.1965  0.2781  0.1589
22536SOL    HW170146   8.982   2.915   0.343  0.4844 -0.7705 -0.4713
22536SOL    HW270147   8.955   3.052   0.285 -1.2206 -0.5189  0.8698
22537SOL     OW70148   8.797   9.457   7.712 -0.5444  0.3790  0.0356
22537SOL    HW170149   8.818   9.532   7.768  0.4869  0.2980 -0.2379
22537SOL    HW270150   8.878   9.438   7.665 -1.5606  0.8195 -1.9510
22538SOL     OW70151   8.827   4.360   0.195  0.4154 -0.0396  0.0176
22538SOL    HW170152   8.827   4.367   0.291  1.5951  1.3508 -0.0617
22538SOL    HW270153   8.849   4.448   0.165  2.1486 -0.9369 -1.4655
22539SOL     OW70154   8.449   3.609   9.983  0.1328  0.2265 -0.3521
22539SOL    HW170155   8.532   3.561   9.975  0.1619  0.2427 -0.1540
22539SOL    HW270156   8.382   3.541   9.982  0.2200  0.1059  0.8503
22540SOL     OW70157   8.096   5.227   1.745 -0.1472  0.6563 -0.5196
22540SOL    HW170158   8.001   5.221   1.748 -0.0436 -1.2659 -0.7736
22540SOL    HW270159   8.120   5.270   1.827 -1.0605 -1.6710  1.0263
22541SOL     OW70160   6.325   3.318   8.049  0.1813  0.1839 -0.3788
22541SOL    HW170161   6.322   3.412   8.028 -0.7450  0.0360 -0.9352
22541SOL    HW270162   6.397   3.284   7.996  0.9343  0.6834  0.2944
22542SOL     OW70163   0.360   8.060   1.956 -0.7642 -0.4293 -0.7273
22542SOL    HW170164   0.448   8.026   1.970 -0.8071  0.1345  1.0478
22542SOL    HW270165   0.371   8.133   1.896  0.2367  0.8179  0.9462
22543SOL     OW70166   6.456   5.127   8.406  0.1172 -0.0536  0.4209
22543SOL    HW170167   6.509   5.061   8.452  0.1779  1.1196  2.0705
22543SOL    HW270168   6.512   5.157   8.335 -0.5589 -3.0201 -1.4417
22544SOL     OW70169   9.552   7.858   3.617  0.4872  0.2618  0.4475
22544SOL    HW170170   9.532   7.774   3.658  0.4675 -0.1192 -0.3397
22544SOL    HW270171   9.476   7.913   3.637  0.0341 -0.2286  0.0866
22545SOL     OW70172   1.453   2.396   2.384 -0.4472  0.2533 -0.3527
22545SOL    HW170173   1.452   2.327   2.318 -1.5146 -1.3019  1.2661
22545SOL    HW270174   1.386   2.458   2.354  1.2823  1.2040 -2.3977
22546SOL     OW70175   2.062   1.266   8.318  0.5416  0.3304 -0.0599
22546SOL    HW170176   2.130   1.269   8.385 -0.3159  0.2526  0.8249
22546SOL    HW270177   2.073   1.346   8.268  0.3517  1.0307  1.0136
22547SOL     OW70178   8.792   2.178   8.710  0.2734  0.0208  0.3576
22547SOL    HW170179   8.716   2.158   8.765 -0.0039 -0.3147 -0.1432
22547SOL    HW270180   8.848   2.232   8.766  0.0352 -0.3857  1.0014
22548SOL     OW70181   2.722   6.586   3.589 -0.4256 -0.5336 -0.1737
22548SOL    HW170182   2.744   6.586   3.682 -1.4128  1.3491  0.0823
22548SOL    HW270183   2.729   6.494   3.563 -0.4568 -1.1319  1.8296
22549SOL     OW70184   3.347   5.421   7.246 -0.2467  0.0636  0.2868
22549SOL    HW170185   3.297   5.437   7.326 -0.6830  0.8561 -0.1371
22549SOL    HW270186   3.438   5.411   7.276 -0.6918 -1.8238  1.1057
22550SOL     OW70187   6.549   6.864   3.459 -0.1895  0.5057  0.6842
22550SOL    HW170188   6.641   6.887   3.471  0.3025 -0.3582 -1.1939
22550SOL    HW270189   6.512   6.862   3.547  1.3261  1.9498  1.3687
22551SOL     OW70190   3.302   3.300   1.331  0.0223 -0.5638  0.0034
22551SOL    HW170191   3.233   3.276   1.269 -0.7816 -0.5657  0.8909
22551SOL    HW270192   3.261   3.365   1.388  0.1986 -1.8675  1.6556
22552SOL     OW70193   3.751   8.641   3.703 -0.4968  0.4216  0.3450
22552SOL    HW170194   3.758   8.545   3.697 -0.6342  0.4437 -0.2036
22552SOL    HW270195   3.689   8.655   3.775 -1.3969  0.0691 -0.3490
22553SOL     OW70196   2.699   9.114   0.581 -0.1318  0.9697 -0.0771
22553SOL    HW170197   2.728   9.121   0.672  3.1360  1.4215 -1.0963
22553SOL    HW270198   2.696   9.205   0.550 -0.4510  0.7657 -0.6514
22554SOL     OW70199   7.576   3.688   7.560  0.4168  0.2595 -0.3971
22554SOL    HW170200   7.661   3.732   7.564  0.6449 -0.1178 -1.0284
22554SOL    HW270201   7.543   3.692   7.650  1.5619 -0.4747  0.0720
22555SOL     OW70202   5.810   1.655   9.917  0.2622 -0.1277 -0.0990
22555SOL    HW170203   5.902   1.627   9.918  0.1946 -0.3520 -0.1027
22555SOL    HW270204   5.793   1.676   9.826 -0.0565 -1.3201 -0.3295
22556SOL     OW70205   9.049   5.586   5.182 -0.7627 -0.2379 -0.4751
22556SOL    HW170206   9.090   5.503   5.157 -2.3260 -0.9952 -0.6104
22556SOL    HW270207   8.976   5.561   5.239 -0.8670  1.0949  0.0126
22557SOL     OW70208   0.379   0.378   5.794 -0.2206  0.3320  0.2011
22557SOL    HW170209   0.415   0.297   5.830  0.4152  0.9190  0.9299
22557SOL    HW270210   0.284   0.367   5.797 -0.1355 -0.3852  0.2791
22558SOL     OW70211   7.505   6.512   0.570 -0.4818 -0.0921  0.3093
22558SOL    HW170212   7.546   6.598   0.560 -1.1954  0.1502 -0.7004
22558SOL    HW270213   7.456   6.500   0.489 -2.3820 -0.3613  1.4626
22559SOL     OW70214   6.806   6.705   7.932 -0.4882 -0.3510 -0.0758
22559SOL    HW170215   6.788   6.738   8.020 -1.0863  0.0953 -0.3637
22559SOL    HW270216   6.770   6.616   7.932  0.8710 -0.9275  0.6069
22560SOL     OW70217   2.208   4.270   4.155 -0.7526 -0.3435 -0.3275
22560SOL    HW170218   2.154   4.268   4.233 -0.2190 -1.3640  0.0288
22560SOL    HW270219   2.298   4.272   4.187 -0.5334 -0.5662 -0.9043
22561SOL     OW70220   8.316   4.205   5.664 -0.0157 -0.1257 -0.2902
22561SOL    HW170221   8.409   4.218   5.649  0.4480 -1.4182  1.3870
22561SOL    HW270222   8.310   4.172   5.754 -1.9560 -1.3597 -0.8377
22562SOL     OW70223   3.303   0.561   0.373 -0.0531  0.5664 -0.3948
22562SOL    HW170224   3.387   0.522   0.348 -0.5425 -0.2225 -0.8415
22562SOL    HW270225   3.262   0.586   0.290 -0.6673  0.0861 -0.2399
22563SOL     OW70226   4.078   6.130   7.288  0.5825 -0.5696 -0.2838
22563SOL    HW170227   4.036   6.114   7.204  1.5691 -1.5579 -0.6046
22563SOL    HW270228   4.031   6.205   7.325  0.4966  0.2227 -1.9515
22564SOL     OW70229   7.727   3.078   1.840 -0.3424 -0.1656  0.0006
22564SOL    HW170230   7.720   3.055   1.933 -2.8149 -0.1782 -0.1337
22564SOL    HW270231   7.787   3.013   1.804  0.1276 -0.5764  1.4727
22565SOL     OW70232   0.851   3.234   2.562 -0.0369 -0.1881 -0.1130
22565SOL    HW170233   0.878   3.303   2.623  0.6084 -2.9808  2.8616
22565SOL    HW270234   0.757   3.244   2.554  0.0681  1.1192  0.1858
22566SOL     OW70235   2.699   1.380   2.365 -0.1775 -0.5352  0.2457
22566SOL    HW170236   2.669   1.435   2.293  0.1086  2.5003  2.3333
22566SOL    HW270237   2.779   1.339   2.332 -0.4014  0.2915 -1.3807
22567SOL     OW70238   5.248   7.755   9.389 -0.3879  0.0070  0.3378
22567SOL    HW170239   5.226   7.843   9.419 -0.7369 -0.9734  3.0441
22567SOL    HW270240   5.302   7.718   9.459  1.1019 -1.3942 -1.4715
22568SOL     OW70241   1.159   5.341   4.449 -0.0473  0.2063 -0.2895
22568SOL    HW170242   1.242   5.324   4.403 -0.5708  0.9539 -1.5322
22568SOL    HW270243   1.184   5.393   4.525  0.7783 -0.6172  0.0092
22569SOL     OW70244   2.030   9.569   4.323 -0.0860  0.3172  0.3876
22569SOL    HW170245   2.065   9.620   4.250  0.0264  0.5561  0.6109
22569SOL    HW270246   2.103   9.561   4.385 -0.2550  0.3222  0.5881
22570SOL     OW70247   0.636   0.113   8.238  0.0198 -0.2118  0.1871
22570SOL    HW170248   0.711   0.071   8.280 -1.4300 -1.0214  2.0156
22570SOL    HW270249   0.566   0.110   8.303 -1.5265  0.8277 -1.3611
22571SOL     OW70250   2.858   0.296   7.169  0.0535 -0.7253 -0.0461
22571SOL    HW170251   2.893   0.312   7.081 -0.0613 -2.1184 -0.3562
22571SOL    HW270252   2.821   0.380   7.196 -0.4988 -0.4466 -1.6127
22572SOL     OW70253   6.613   1.791   0.492  0.0320 -0.2575 -0.8411
22572SOL    HW170254   6.663   1.766   0.570  0.1077 -1.1461 -1.1750
22572SOL    HW270255   6.525   1.809   0.526  0.1206 -0.4155 -0.5203
22573SOL     OW70256   9.440   9.092   7.006 -0.4652  0.0737  0.0303
22573SOL    HW170257   9.454   9.005   7.044 -3.1875 -0.6787 -0.5825
22573SOL    HW270258   9.401   9.143   7.077  2.3027  1.2500  0.7957
22574SOL     OW70259   9.883   9.209   9.493 -0.3655 -0.0696 -0.0826
22574SOL    HW170260   9.890   9.119   9.461 -3.7545 -0.4606  0.1929
22574SOL    HW270261   9.848   9.258   9.419 -2.2576  0.2315  0.9817
22575SOL     OW70262   1.171   3.016   1.292 -0.0483  0.4651 -0.2461
22575SOL    HW170263   1.178   2.972   1.207  1.2011 -0.3839  0.2976
22575SOL    HW270264   1.237   3.085   1.289 -0.8620  1.2463 -0.4429
22576SOL     OW70265   5.346   3.954   2.252  0.0059  0.4760 -0.3716
22576SOL    HW170266   5.407   3.999   2.311  1.2591 -2.1385  0.3920
22576SOL    HW270267   5.261   3.994   2.271  1.1661  2.9698 -0.2143
22577SOL     OW70268   1.985   7.881   6.610  0.5235 -0.6279 -0.0163
22577SOL    HW170269   2.076   7.892   6.635 -0.1633  0.7363  1.9669
22577SOL    HW270270   1.950   7.818   6.673 -0.3352  0.1556  0.3031
22578SOL     OW70271   0.390   4.304   0.988  0.0142  0.1910  0.0138
22578SOL    HW170272   0.309   4.276   0.947 -0.9968  0.7154  1.6258
22578SOL    HW270273   0.424   4.225   1.031  0.2789  0.0098 -0.5253
22579SOL     OW70274   5.575   4.102   4.489 -0.1656  0.3413  0.2687
22579SOL    HW170275   5.595   4.196   4.488 -2.3619  0.8467  1.1541
22579SOL    HW270276   5.584   4.077   4.581 -1.0769  0.0171  0.2675
22580SOL     OW70277   1.906   9.174   2.643 -0.0105  0.0376 -0.1703
22580SOL    HW170278   1.820   9.164   2.602  0.3616 -0.9814 -0.7237
22580SOL    HW270279   1.891   9.156   2.735 -0.4533  0.1777 -0.2132
22581SOL     OW70280   6.117   5.089   5.751  0.3105 -0.3675  0.6454
22581SOL    HW170281   6.048   5.152   5.732  2.0634  1.5715  0.4566
22581SOL    HW270282   6.168   5.084   5.670  2.0947  0.4863  1.6839
22582SOL     OW70283   8.857   1.154   8.211 -0.0202  0.4357  0.2292
22582SOL    HW170284   8.839   1.174   8.119 -0.4389  2.2714  0.6934
22582SOL    HW270285   8.821   1.066   8.223 -1.1783  0.7144 -1.0225
22583SOL     OW70286   4.336   7.541   9.224  0.2130  0.5590 -0.7093
22583SOL    HW170287   4.311   7.488   9.300  1.0332  1.0986 -0.0616
22583SOL    HW270288   4.253   7.576   9.191 -0.0242  1.3485  0.6898
22584SOL     OW70289   6.540   4.289   0.772  0.4154  0.3733 -0.6261
22584SOL    HW170290   6.569   4.199   0.789 -1.2487  0.1167  0.8986
22584SOL    HW270291   6.483   4.281   0.695 -0.7661 -0.0872  0.2829
22585SOL     OW70292   8.602   9.309   4.063  0.6765  0.4369  0.4669
22585SOL    HW170293   8.521   9.353   4.087  0.6714  0.4684  0.3930
22585SOL    HW270294   8.663   9.380   4.041  0.7540  0.4171  0.6190
22586SOL     OW70295   3.949   0.144   3.739  0.5146 -0.3108  0.4898
22586SOL    HW170296   3.951   0.190   3.823  0.8982  1.4393 -0.4578
22586SOL    HW270297   3.893   0.199   3.683  0.6692 -1.1999 -0.5565
22587SOL     OW70298   2.984   3.818   1.748 -0.1991 -0.4750 -0.0908
22587SOL    HW170299   3.042   3.894   1.744  0.5971 -1.0540  0.3669
22587SOL    HW270300   2.905   3.851   1.793  0.0693  0.1175 -0.0415
22588SOL     OW70301   2.864   8.201   8.333 -0.1753 -0.0271 -0.3431
22588SOL    HW170302   2.806   8.140   8.380 -0.2624 -2.0011 -2.9197
22588SOL    HW270303   2.831   8.202   8.244  3.2291 -0.5856 -1.7061
22589SOL     OW70304  10.040   0.322  10.183 -0.1534  0.2703  0.1154
22589SOL    HW170305   9.952   0.286  10.197  0.0542  0.1878  1.3035
22589SOL    HW270306  10.025   0.404  10.138 -0.8258  0.1003  0.0169
22590SOL     OW70307   0.917   5.539   1.860 -0.2090 -0.3423  0.3984
22590SOL    HW170308   0.960   5.622   1.837  0.4545 -0.4872  1.1344
22590SOL    HW270309   0.903   5.545   1.954 -0.7650 -0.7920  0.3451
22591SOL     OW70310   2.361   7.847   9.309 -0.0919  0.2618 -0.4063
22591SOL    HW170311   2.457   7.841   9.313 -0.1990 -0.5673  1.7590
22591SOL    HW270312   2.344   7.940   9.291  1.1212  0.6240  0.2038
22592SOL     OW70313   2.044   5.800   0.126 -0.6283 -0.1943  0.2615
22592SOL    HW170314   2.082   5.731   0.180 -0.3344 -0.0644  0.2232
22592SOL    HW270315   2.041   5.764   0.038  2.0941  0.8243 -0.2926
22593SOL     OW70316   0.997   9.512   3.568  0.4488  0.1724  0.0277
22593SOL    HW170317   1.070   9.552   3.523  2.2414 -2.6416  0.3050
22593SOL    HW270318   0.994   9.422   3.535 -1.4166 -0.4481  1.7322
22594SOL     OW70319   0.329   4.836   8.504  0.1488  0.0677 -0.0482
22594SOL    HW170320   0.416   4.848   8.543  0.2429 -1.5168  0.2570
22594SOL    HW270321   0.339   4.763   8.443 -0.8225  0.3005 -0.5072
22595SOL     OW70322   1.643   9.752   4.525  0.2986 -0.2305 -0.1232
22595SOL    HW170323   1.669   9.837   4.487  1.8740 -1.1155 -1.0842
22595SOL    HW270324   1.557   9.735   4.488 -0.3470  1.2840  0.6365
22596SOL     OW70325   3.708   8.053   7.201 -0.3732 -0.3679 -0.2255
22596SOL    HW170326   3.705   7.966   7.242  2.1495 -0.6572 -0.5979
22596SOL    HW270327   3.767   8.104   7.257 -2.8975  1.5812  0.7814
22597SOL     OW70328   3.292   4.548   2.127  0.3611  0.4075 -0.3157
22597SOL    HW170329   3.340   4.562   2.045  0.0063  1.6829 -0.3177
22597SOL    HW270330   3.339   4.477   2.170  1.8273  1.1432 -0.6586
22598SOL     OW70331   7.666   3.733   8.346  0.0111 -0.1492 -0.0236
22598SOL    HW170332   7.725   3.751   8.272 -1.7244  2.2960 -0.8529
22598SOL    HW270333   7.724   3.726   8.422  1.5764 -0.1431 -1.1969
22599SOL     OW70334   8.315   9.506   1.748  0.4743 -0.7628  0.2804
22599SOL    HW170335   8.388   9.464   1.702  1.3947  0.4244  0.6432
22599SOL    HW270336   8.314   9.596   1.714 -0.0054 -0.4043  1.2226
22600SOL     OW70337   2.884   2.407   2.840 -0.4455 -0.2471  0.3489
22600SOL    HW170338   2.806   2.388   2.787 -1.1901  4.2023 -0.3327
22600SOL    HW270339   2.957   2.376   2.787 -1.5927 -3.7840  0.6475
22601SOL     OW70340   4.722   0.913   3.775 -0.5022 -0.4909  0.3113
22601SOL    HW170341   4.718   0.939   3.867 -1.9455  0.9092 -0.1065
22601SOL    HW270342   4.686   0.989   3.728 -0.9202 -1.6603 -1.3022
22602SOL     OW70343   4.458   0.843   9.880  0.2449 -0.1480 -0.2580
22602SOL    HW170344   4.413   0.776   9.829  0.8139  0.3999 -1.5051
22602SOL    HW270345   4.550   0.822   9.872  0.2815 -0.5812  1.3100
22603SOL     OW70346   6.166   6.731   3.249  0.4496  0.0021 -0.4989
22603SOL    HW170347   6.192   6.780   3.327  1.2077 -0.0928 -0.6911
22603SOL    HW270348   6.127   6.797   3.192 -0.3130  0.0329  0.0509
22604SOL     OW70349   4.763   3.977   9.061  0.8106 -0.1393 -0.0192
22604SOL    HW170350   4.823   3.911   9.096 -1.0789 -1.8330  0.1397
22604SOL    HW270351   4.796   4.060   9.096  4.6877 -0.6108 -2.2251
22605SOL     OW70352   3.496   2.206   7.163  0.1437  0.5160  0.1730
22605SOL    HW170353   3.472   2.295   7.138  3.2279  1.3106 -0.1464
22605SOL    HW270354   3.489   2.205   7.259 -0.8105  0.8029  0.1101
22606SOL     OW70355   6.112   3.451   4.161 -0.4161 -0.2175 -0.2065
22606SOL    HW170356   6.084   3.409   4.242 -1.2561  0.2143 -0.2614
22606SOL    HW270357   6.175   3.517   4.188 -1.7984  0.9225  0.2462
22607SOL     OW70358   7.862   7.294   5.525  0.2948 -0.2332 -0.1501
22607SOL    HW170359   7.951   7.290   5.561  0.0925 -0.1002  0.3829
22607SOL    HW270360   7.871   7.269   5.434  1.0616  0.9675 -0.4140
22608SOL     OW70361   2.273  10.027   7.089 -0.0342 -0.1718  0.2289
22608SOL    HW170362   2.261   9.971   7.012 -0.7236  1.1010 -0.6052
22608SOL    HW270363   2.368  10.039   7.095  0.1379 -1.6102  0.5580
22609SOL     OW70364   3.195   2.050   6.825 -0.7961 -0.1793  0.1909
22609SOL    HW170365   3.224   2.045   6.916 -2.4922 -2.1237  0.6778
22609SOL    HW270366   3.221   1.966   6.787 -1.0941  0.1707 -0.7986
22610SOL     OW70367   6.421   4.154   2.797  0.4115 -0.2252 -0.1947
22610SOL    HW170368   6.353   4.217   2.820  0.4780  0.1824 -1.0786
22610SOL    HW270369   6.485   4.160   2.868  1.0740  1.6826 -0.9117
22611SOL     OW70370   4.372   2.732   2.561  0.3071 -0.0352  0.2688
22611SOL    HW170371   4.460   2.731   2.600  0.5961 -1.3320 -0.3743
22611SOL    HW270372   4.329   2.807   2.601  1.1414 -0.3759  1.8565
22612SOL     OW70373   7.537   8.301   9.087 -0.5107  0.1132  0.4161
22612SOL    HW170374   7.601   8.249   9.135  0.1762  1.6114  1.1461
22612SOL    HW270375   7.454   8.254   9.099  0.4729 -2.0627 -0.8682
22613SOL     OW70376   0.668   8.126   9.176  0.1398 -0.5513  0.1415
22613SOL    HW170377   0.760   8.104   9.190  0.5735  0.3633 -1.1353
22613SOL    HW270378   0.665   8.221   9.187 -0.5728 -0.5374 -0.1985
22614SOL     OW70379   7.293   7.965   1.316 -0.4884  0.0328 -0.2185
22614SOL    HW170380   7.381   8.003   1.323 -0.8010  0.9906 -1.3628
22614SOL    HW270381   7.289   7.930   1.227 -1.0076 -0.6770  0.0815
22615SOL     OW70382   1.788   0.572   1.346 -0.1172  0.3799 -0.0315
22615SOL    HW170383   1.709   0.574   1.292  0.4429 -0.1077 -0.8621
22615SOL    HW270384   1.772   0.501   1.408 -0.2894  0.2254 -0.2515
22616SOL     OW70385   9.980   7.856   7.264 -0.6262  0.9063  0.4544
22616SOL    HW170386   9.999   7.855   7.358  0.5127 -1.1630  0.2207
22616SOL    HW270387  10.045   7.915   7.227 -0.0490  0.4603  0.7604
22617SOL     OW70388   8.807   8.673   3.485 -0.4206 -0.0781  0.2341
22617SOL    HW170389   8.828   8.706   3.397 -1.2034  1.8512  0.7460
22617SOL    HW270390   8.831   8.580   3.482  2.8925  0.7507 -0.9243
22618SOL     OW70391   3.381   8.792   2.953 -0.5307  0.1361 -0.2545
22618SOL    HW170392   3.398   8.869   2.899  1.2804  0.1451  0.3181
22618SOL    HW270393   3.350   8.829   3.036  3.8215  0.4582  1.3285
22619SOL     OW70394   4.197   7.327   4.623  0.6301 -0.1405 -0.2160
22619SOL    HW170395   4.231   7.294   4.706  0.4583 -0.6694 -0.3506
22619SOL    HW270396   4.266   7.383   4.589  1.3208 -1.1065 -0.4301
22620SOL     OW70397   2.752   1.076   1.011 -0.1267  0.2331  0.3063
22620SOL    HW170398   2.809   1.134   1.062  0.4846 -0.0219 -0.0810
22620SOL    HW270399   2.800   0.994   1.006 -0.4800  0.0507 -0.1203
22621SOL     OW70400   8.280   1.709   7.355  0.0069 -0.9452 -0.1356
22621SOL    HW170401   8.212   1.735   7.292  0.6628  0.2044 -0.4042
22621SOL    HW270402   8.340   1.784   7.357  0.4299 -1.3018  1.2678
22622SOL     OW70403   0.640   3.174   7.845 -0.1133 -0.3475  0.0962
22622SOL    HW170404   0.735   3.170   7.862  0.1440  1.6154 -0.8423
22622SOL    HW270405   0.603   3.109   7.906  1.6789 -0.0706  1.5359
22623SOL     OW70406   6.559   4.127   2.553  0.2401 -0.1949 -0.2769
22623SOL    HW170407   6.634   4.084   2.593  2.2059  2.8590 -0.5331
22623SOL    HW270408   6.494   4.133   2.623  1.5167  0.1267  0.8938
22624SOL     OW70409   6.139   3.138   2.150 -0.3408 -0.3399 -0.1710
22624SOL    HW170410   6.069   3.189   2.109  0.0080  0.1431 -0.1669
22624SOL    HW270411   6.201   3.121   2.079  0.3762  0.6950  0.1943
22625SOL     OW70412   3.067   5.666   0.402  0.6415 -0.4447  0.1919
22625SOL    HW170413   3.130   5.730   0.370 -1.3183  0.9483 -0.9479
22625SOL    HW270414   3.043   5.698   0.489  0.5491 -0.2882  0.1084
22626SOL     OW70415   1.229   7.585   0.023  0.7794  0.0016  0.3546
22626SOL    HW170416   1.155   7.635  -0.009  0.4725 -1.5747 -1.5473
22626SOL    HW270417   1.210   7.569   0.116 -0.3091  1.2426  0.3513
22627SOL     OW70418   1.704   7.216   1.648 -0.1013 -0.1215 -0.0214
22627SOL    HW170419   1.729   7.125   1.630 -1.5170 -0.2237 -1.5861
22627SOL    HW270420   1.635   7.235   1.584 -0.4882  1.7503  0.9241
22628SOL     OW70421   8.351   2.286   7.506 -0.0794 -0.1217 -0.1257
22628SOL    HW170422   8.266   2.289   7.550 -0.4228 -1.2617 -0.6894
22628SOL    HW270423   8.409   2.243   7.568 -0.1166 -0.1183 -0.0879
22629SOL     OW70424   7.051   6.892   0.916  0.4486 -0.2156  0.2403
22629SOL    HW170425   7.067   6.982   0.887 -1.4892 -0.5747 -2.1908
22629SOL    HW270426   6.989   6.901   0.988  1.5061  0.4776  1.0669
22630SOL     OW70427   2.489   7.975   2.208 -0.0712 -0.2421 -0.8815
22630SOL    HW170428   2.537   7.978   2.290 -3.1445 -0.5892  0.9988
22630SOL    HW270429   2.542   7.920   2.151  0.0508 -3.5691  2.2864
22631SOL     OW70430   9.781   0.647   3.026 -0.0943  0.3851 -0.0597
22631SOL    HW170431   9.841   0.572   3.024 -0.2348  0.2721 -0.1329
22631SOL    HW270432   9.722   0.628   3.099 -1.2864 -0.4979 -1.2155
22632SOL     OW70433   4.745   1.331   8.483  0.1853  0.6266 -0.1463
22632SOL    HW170434   4.721   1.423   8.475 -1.0395  0.2274 -1.2242
22632SOL    HW270435   4.755   1.317   8.577 -1.0368  1.5003  0.1353
22633SOL     OW70436   9.729   8.808   5.419 -0.2855  0.1082 -0.2570
22633SOL    HW170437   9.738   8.730   5.364  2.0306  0.0848  0.0908
22633SOL    HW270438   9.649   8.793   5.469 -0.3107 -1.6847 -0.7954
22634SOL     OW70439   9.200   3.132   3.989 -0.4575  0.5126  0.3310
22634SOL    HW170440   9.230   3.187   3.916 -1.7641 -0.3798 -0.8910
22634SOL    HW270441   9.246   3.049   3.978 -1.0468  0.1969  0.2125
22635SOL     OW70442   7.228   9.365   9.135  0.4157 -0.4674 -0.8094
22635SOL    HW170443   7.287   9.389   9.064 -0.2214 -0.2404 -1.2716
22635SOL    HW270444   7.267   9.287   9.174  0.8287 -0.5285 -1.3403
22636SOL     OW70445   2.191   8.948   4.028  0.2827 -0.1485  0.0536
22636SOL    HW170446   2.138   8.939   3.949  0.7778  2.6786 -0.6583
22636SOL    HW270447   2.247   8.870   4.029  0.6116  0.0287 -2.6526
22637SOL     OW70448   4.161   5.931   5.482 -0.2151 -0.2883  0.0465
22637SOL    HW170449   4.145   5.917   5.388  0.4817  0.8512 -0.2600
22637SOL    HW270450   4.183   5.845   5.516 -3.3989 -1.2841 -0.2314
22638SOL     OW70451   7.000   4.563   6.695 -0.4317 -0.1265  0.2932
22638SOL    HW170452   7.059   4.614   6.640 -0.3580 -1.3078 -0.7568
22638SOL    HW270453   7.053   4.490   6.726 -0.9281 -0.3543  0.6090
22639SOL     OW70454   5.163   1.214   5.764  0.2379 -0.7783  0.3292
22639SOL    HW170455   5.106   1.206   5.840 -0.7321 -0.8636 -0.3918
22639SOL    HW270456   5.122   1.283   5.711  1.3188 -0.1861  0.2450
22640SOL     OW70457   4.989  10.041   9.674 -0.1974  0.5260  0.3362
22640SOL    HW170458   5.075   9.999   9.670 -1.3352 -1.7236 -1.1824
22640SOL    HW270459   5.001  10.112   9.738  2.7703  0.2811  0.1478
22641SOL     OW70460   6.751   1.757   5.742 -0.1948  0.3704 -0.0173
22641SOL    HW170461   6.789   1.744   5.828 -0.0796  1.0620  0.0409
22641SOL    HW270462   6.818   1.725   5.681 -0.7260 -1.1434  0.1800
22642SOL     OW70463   3.179   5.916   3.804  0.2724  0.3879 -0.4418
22642SOL    HW170464   3.172   5.992   3.862  0.9404  0.4366 -0.4184
22642SOL    HW270465   3.223   5.850   3.857  0.7234  0.3730 -0.8337
22643SOL     OW70466   2.643   1.799   8.490 -0.1984 -0.1442 -0.1790
22643SOL    HW170467   2.675   1.888   8.475 -1.2681 -0.0107 -1.6934
22643SOL    HW270468   2.634   1.761   8.403  1.9711 -2.3792  0.5196
22644SOL     OW70469   4.075   7.159   3.868  0.3718 -0.1063 -0.0045
22644SOL    HW170470   4.098   7.252   3.877 -4.0930  1.3394 -1.8975
22644SOL    HW270471   4.057   7.130   3.957  0.9694  1.1385  0.5299
22645SOL     OW70472   8.744   6.932   2.493  0.6135 -0.0564  0.5793
22645SOL    HW170473   8.816   6.890   2.542  0.8231 -0.7452 -0.3025
22645SOL    HW270474   8.783   6.954   2.409 -0.6707 -2.0949 -0.5970
22646SOL     OW70475   8.741   2.776   7.199  0.0702  0.0704 -0.3291
22646SOL    HW170476   8.721   2.687   7.228  0.5142 -0.0648 -0.4362
22646SOL    HW270477   8.779   2.765   7.112  1.2316  0.2671  0.1384
22647SOL     OW70478   7.838   1.180   0.349 -0.0817  0.2521 -0.1552
22647SOL    HW170479   7.932   1.192   0.337  0.0990 -2.4568 -1.7611
22647SOL    HW270480   7.831   1.126   0.428 -0.2874  0.3857 -0.0811
22648SOL     OW70481   2.137   8.353   0.180  0.2158  0.0690 -0.0430
22648SOL    HW170482   2.133   8.355   0.276 -0.9976  1.6225 -0.1012
22648SOL    HW270483   2.225   8.322   0.160 -0.0417 -1.7887  1.5753
22649SOL     OW70484   0.664   4.474   0.484  0.8049 -0.1267  0.3378
22649SOL    HW170485   0.726   4.417   0.439  0.1840  0.3169 -1.1205
22649SOL    HW270486   0.616   4.517   0.414  1.1096  2.0342  1.3985
22650SOL     OW70487   6.186   5.434   6.108  0.3526  0.7542  0.2970
22650SOL    HW170488   6.148   5.350   6.082  0.9566  0.8530 -0.9366
22650SOL    HW270489   6.226   5.416   6.194 -2.3499  0.6343  1.5928
22651SOL     OW70490   0.421   8.808   7.833  0.0070 -0.6909 -0.0678
22651SOL    HW170491   0.392   8.888   7.876 -1.1009 -0.4064 -1.3177
22651SOL    HW270492   0.467   8.759   7.902 -1.9701 -0.3698  1.5412
22652SOL     OW70493   7.534   3.316   4.835  0.0872  0.1316 -0.2395
22652SOL    HW170494   7.450   3.292   4.874 -0.2076  0.8216 -0.4429
22652SOL    HW270495   7.592   3.330   4.910  0.0224 -0.3661 -0.0987
22653SOL     OW70496   3.898   7.161   8.341  0.3617  0.0547  0.0954
22653SOL    HW170497   3.856   7.080   8.368 -0.7788  0.6341  0.0703
22653SOL    HW270498   3.927   7.202   8.422  5.2603 -2.6190 -0.0807
22654SOL     OW70499   0.436   0.837   8.269 -0.0131  0.0896  0.2260
22654SOL    HW170500   0.394   0.830   8.184  1.2391  2.7840 -0.6758
22654SOL    HW270501   0.374   0.885   8.324  0.0852  0.2819  0.1698
22655SOL     OW70502   3.216   6.844   0.494 -0.4587 -0.4027 -0.3820
22655SOL    HW170503   3.213   6.817   0.586 -0.8445  0.7669 -0.0334
22655SOL    HW270504   3.193   6.766   0.445  1.0695 -1.3960  0.4424
22656SOL     OW70505   7.770   1.476   5.101  0.0211  0.1038 -0.4085
22656SOL    HW170506   7.856   1.435   5.107 -0.5229 -0.9362  0.5265
22656SOL    HW270507   7.710   1.409   5.133 -1.1211  0.8829 -0.8914
22657SOL     OW70508   5.898   2.760   1.175  0.0780 -0.1477  0.1861
22657SOL    HW170509   5.925   2.811   1.253 -0.5030 -0.0390  0.3158
22657SOL    HW270510   5.844   2.821   1.125 -0.9453 -0.7624  0.5345
22658SOL     OW70511   4.633   6.257   1.378  0.7676 -0.3918  0.4563
22658SOL    HW170512   4.688   6.192   1.334 -1.6993 -1.4325 -1.2150
22658SOL    HW270513   4.560   6.207   1.414 -0.4201  1.2554  0.4072
22659SOL     OW70514   1.182   9.254   0.253 -0.4897 -0.2058  0.1920
22659SOL    HW170515   1.271   9.287   0.245 -0.7925  0.5354 -0.2398
22659SOL    HW270516   1.129   9.316   0.202 -0.9558 -1.8562 -1.3879
22660SOL     OW70517   6.290   6.499   3.307  0.3557  0.2268 -0.9260
22660SOL    HW170518   6.258   6.584   3.277 -0.8884  0.4742  1.0312
22660SOL    HW270519   6.376   6.518   3.344 -0.7610  1.0030  1.3291
22661SOL     OW70520   3.007   7.522   0.296 -0.2739  0.0485  0.2402
22661SOL    HW170521   2.948   7.553   0.227  0.4572  0.7661 -0.0704
22661SOL    HW270522   3.057   7.599   0.322  0.9956 -0.6859  0.0389
22662SOL     OW70523   9.899   4.524   7.071 -0.2156  0.0968 -0.1614
22662SOL    HW170524   9.896   4.562   6.984  0.0024  0.1766 -0.1343
22662SOL    HW270525   9.991   4.526   7.095 -0.5264  2.0069  0.9198
22663SOL     OW70526   4.268   4.881   2.812 -0.4887 -0.6070  0.1905
22663SOL    HW170527   4.208   4.818   2.770 -1.9464  0.8525  0.0350
22663SOL    HW270528   4.218   4.917   2.885  0.7970 -0.5351  1.0589
22664SOL     OW70529   3.577   8.283   9.203 -0.2508 -0.9354  0.8357
22664SOL    HW170530   3.647   8.285   9.138 -2.4594  0.2771 -1.6363
22664SOL    HW270531   3.615   8.238   9.279  3.3643  0.2624 -0.1555
22665SOL     OW70532   8.634   4.581   9.920  0.1416  0.0167  0.2170
22665SOL    HW170533   8.596   4.563  10.007 -0.0593 -0.7636 -0.0267
22665SOL    HW270534   8.659   4.495   9.887  0.6408  0.3638 -0.3110
22666SOL     OW70535   0.305   9.425   9.445  0.0231  0.3892 -0.3427
22666SOL    HW170536   0.369   9.367   9.486 -0.7653 -0.9860 -1.0367
22666SOL    HW270537   0.354   9.471   9.376  0.3960 -0.2205 -0.4808
22667SOL     OW70538   3.114  10.142   7.203 -0.0926 -0.6695 -0.4955
22667SOL    HW170539   3.110  10.065   7.145  0.3583 -1.3403  0.3543
22667SOL    HW270540   3.165  10.206   7.153  0.7334 -1.4274 -0.6420
22668SOL     OW70541   6.600   7.896   2.113 -0.0100  0.0601 -0.9588
22668SOL    HW170542   6.572   7.880   2.203 -2.8520  1.2285 -1.5800
22668SOL    HW270543   6.674   7.837   2.100  0.4421 -0.1132  2.1327
22669SOL     OW70544   0.838   1.595   4.917 -0.0774 -0.3880  0.2742
22669SOL    HW170545   0.778   1.601   4.991 -2.2420 -1.4520 -1.3067
22669SOL    HW270546   0.802   1.655   4.852  1.6022  0.2806 -0.0610
22670SOL     OW70547   5.205   2.478   2.818 -0.0279  0.2048  0.1691
22670SOL    HW170548   5.158   2.523   2.888 -0.2733  0.4041 -0.1185
22670SOL    HW270549   5.168   2.516   2.738 -1.1624 -1.4321 -0.1131
22671SOL     OW70550   4.776   2.609   7.760 -0.4732 -0.2728 -0.1822
22671SOL    HW170551   4.716   2.603   7.686 -0.1316  1.5244 -0.6345
22671SOL    HW270552   4.795   2.703   7.768 -0.1021 -0.4888  1.8574
22672SOL     OW70553   7.054   8.791   3.873  0.3196 -0.3262  0.1377
22672SOL    HW170554   7.048   8.707   3.917 -0.4584  0.7745  2.1621
22672SOL    HW270555   6.963   8.817   3.858  0.5384  0.6912  0.5671
22673SOL     OW70556   6.104   7.208   3.679  0.3532 -0.1303  0.0848
22673SOL    HW170557   6.171   7.147   3.712  0.6919  0.9927  1.5276
22673SOL    HW270558   6.120   7.289   3.727  0.9781  1.6441 -3.0044
22674SOL     OW70559   7.417   7.436   0.462 -0.6612 -0.4995 -0.1597
22674SOL    HW170560   7.434   7.505   0.398 -1.4224  0.1986  0.3843
22674SOL    HW270561   7.333   7.460   0.501  0.1227 -0.5372  1.5873
22675SOL     OW70562   5.270   7.415   4.676  0.2147 -0.1716 -0.1949
22675SOL    HW170563   5.269   7.399   4.770  0.5012 -2.0758 -0.5005
22675SOL    HW270564   5.184   7.453   4.657  0.1627  0.2304  0.8306
22676SOL     OW70565   0.925   6.407   3.821 -0.2297 -0.3038 -0.3286
22676SOL    HW170566   0.897   6.462   3.749 -0.3984 -0.6395 -0.5230
22676SOL    HW270567   0.979   6.464   3.876  1.8293 -0.6597 -1.9411
22677SOL     OW70568   7.499   1.083   7.930 -0.0129  0.0659 -0.2980
22677SOL    HW170569   7.552   1.163   7.934  1.0308 -0.6684  1.4448
22677SOL    HW270570   7.560   1.013   7.956 -1.3980 -1.0370  0.0168
22678SOL     OW70571   9.614   7.052   8.834 -0.2403 -0.0092 -0.3584
22678SOL    HW170572   9.655   7.137   8.850 -0.0896  0.3580 -2.5626
22678SOL    HW270573   9.617   7.041   8.739 -0.8470 -2.1944 -0.1548
22679SOL     OW70574   2.093   0.724   2.514  0.2392 -0.5182 -0.4027
22679SOL    HW170575   2.026   0.696   2.576  2.5898 -0.4622  2.2606
22679SOL    HW270576   2.073   0.816   2.498 -0.0415 -0.3647  0.7651
22680SOL     OW70577   9.761   6.705   5.135  1.1556 -0.6023  0.5988
22680SOL    HW170578   9.773   6.792   5.171 -0.7503 -0.5106  1.0910
22680SOL    HW270579   9.824   6.650   5.182 -0.1077 -0.1549  2.8870
22681SOL     OW70580   0.440   9.428   5.162 -0.0879 -0.2895  0.3347
22681SOL    HW170581   0.411   9.365   5.228 -0.8170  2.1559  2.4244
22681SOL    HW270582   0.534   9.413   5.155 -0.5353 -2.8447 -0.5701
22682SOL     OW70583   3.248   8.560   0.048  0.2974 -0.2430  0.0049
22682SOL    HW170584   3.245   8.555   0.144  0.5909  2.8492  0.2493
22682SOL    HW270585   3.341   8.569   0.028  0.0443  2.0725 -0.3103
22683SOL     OW70586   9.221   0.094   3.337 -0.3262  0.3558  0.0879
22683SOL    HW170587   9.136   0.128   3.366 -0.5801 -0.3162  0.1561
22683SOL    HW270588   9.199   0.035   3.265  0.0062 -0.4753  0.6666
22684SOL     OW70589   0.140  10.143   6.569  0.1800 -0.2469 -0.5446
22684SOL    HW170590   0.056  10.178   6.597 -0.1097 -0.3756 -1.2469
22684SOL    HW270591   0.129  10.124   6.476  0.8693 -0.6071 -0.5602
22685SOL     OW70592   5.168   6.035   6.798  0.4383 -0.0136  0.2732
22685SOL    HW170593   5.085   6.081   6.783 -1.6898 -3.3291  1.5301
22685SOL    HW270594   5.201   6.019   6.710 -1.6177 -1.0452 -0.3481
22686SOL     OW70595   9.627   0.053   6.831  0.1685  0.0938 -0.0276
22686SOL    HW170596   9.688   0.062   6.903 -2.0727  0.0396  1.9462
22686SOL    HW270597   9.681   0.057   6.752  2.6234  0.4108  1.6377
22687SOL     OW70598   5.418  10.071   6.872 -0.1039  0.2945  0.1646
22687SOL    HW170599   5.477  10.139   6.840  0.1622 -0.7328 -1.5803
22687SOL    HW270600   5.468   9.990   6.863 -0.6243 -0.2213  1.6907
22688SOL     OW70601   0.894   7.983   9.596  0.6972  0.5692  0.0489
22688SOL    HW170602   0.940   8.016   9.673  0.7788  3.4704 -1.1646
22688SOL    HW270603   0.960   7.979   9.528  0.4312 -1.1220 -0.1230
22689SOL     OW70604   9.558   7.871   5.431 -0.1859  0.0544  0.2008
22689SOL    HW170605   9.567   7.785   5.471 -1.7961  0.0050  0.4989
22689SOL    HW270606   9.466   7.875   5.403 -0.7535  2.5446  2.2249
22690SOL     OW70607   9.798   7.506   0.592 -0.0987  0.0701 -0.0708
22690SOL    HW170608   9.729   7.526   0.655  0.0286 -1.6356  0.6283
22690SOL    HW270609   9.754   7.511   0.507 -1.7141 -3.2325  0.4753
22691SOL     OW70610   9.827   9.065   5.482 -0.0538  0.6510 -0.5459
22691SOL    HW170611   9.773   8.987   5.471 -0.2659  0.7966 -0.5433
22691SOL    HW270612   9.766   9.138   5.472  0.1216  0.8137 -0.4204
22692SOL     OW70613   1.462   6.200   5.559  0.1539 -0.3948  0.4383
22692SOL    HW170614   1.410   6.235   5.488  0.4596 -0.7871  0.0171
22692SOL    HW270615   1.449   6.261   5.631 -1.2265 -0.7267  0.4782
22693SOL     OW70616   5.944   6.561   3.281  0.5830  0.2950 -0.0122
22693SOL    HW170617   5.953   6.515   3.364  0.9841 -2.0553 -1.3000
22693SOL    HW270618   6.025   6.612   3.272  1.2708 -0.7360  0.2782
22694SOL     OW70619   6.980   4.571   8.295 -0.1686 -0.4455 -0.3810
22694SOL    HW170620   7.065   4.550   8.256 -0.4954  2.0479 -2.5917
22694SOL    HW270621   6.999   4.585   8.387  1.4470 -1.9342 -0.4568
22695SOL     OW70622   2.912   0.990   4.871 -0.0581  0.0369  0.2915
22695SOL    HW170623   2.853   1.033   4.933  1.0370  1.1178  0.6052
22695SOL    HW270624   2.978   1.057   4.851 -0.2282 -0.3912 -1.8172
22696SOL     OW70625   4.483   8.130   7.980 -0.0995 -0.4065 -0.2253
22696SOL    HW170626   4.559   8.155   8.032  0.7876 -3.4538  0.0424
22696SOL    HW270627   4.519   8.106   7.894 -0.9947  0.0813 -0.7475
22697SOL     OW70628   4.648   1.796   4.525  0.3359  0.4015  0.5445
22697SOL    HW170629   4.629   1.818   4.434 -1.1860  0.7012  0.9293
22697SOL    HW270630   4.705   1.866   4.555 -1.9109  2.1465  0.8178
22698SOL     OW70631   3.686   4.256   5.631  0.2159 -0.4105 -0.3059
22698SOL    HW170632   3.621   4.298   5.689 -0.0603 -0.7279 -0.3866
22698SOL    HW270633   3.675   4.300   5.547 -0.9412 -1.4980 -0.7407
22699SOL     OW70634   2.341   0.204   2.772 -0.0580  0.5674 -0.3759
22699SOL    HW170635   2.373   0.157   2.849 -0.1982  0.2276 -0.5244
22699SOL    HW270636   2.388   0.287   2.774 -0.5288  0.8124  0.4207
22700SOL     OW70637   0.296   6.575   5.862 -0.3449  0.3184 -0.5222
22700SOL    HW170638   0.298   6.583   5.767  2.2594  1.5773 -0.3719
22700SOL    HW270639   0.309   6.664   5.895 -1.3282 -0.0841  1.0323
22701SOL     OW70640   8.869   5.442   5.335 -0.9857  1.0495  0.0200
22701SOL    HW170641   8.850   5.378   5.404  0.7635  0.0004 -0.4316
22701SOL    HW270642   8.807   5.513   5.350 -0.9165  0.6377  2.3983
22702SOL     OW70643   8.910   1.578   7.928  0.8013 -0.2347 -0.2657
22702SOL    HW170644   8.838   1.640   7.916 -0.4015 -1.4539  0.4531
22702SOL    HW270645   8.913   1.528   7.847 -0.7722 -1.7766  0.5659
22703SOL     OW70646   0.912   1.192   0.897 -0.4612 -0.2044  0.2688
22703SOL    HW170647   0.875   1.105   0.883  0.2327 -0.5492  0.5706
22703SOL    HW270648   0.915   1.232   0.810 -0.2940 -0.6774  0.0608
22704SOL     OW70649   5.843   9.244   4.059  0.2953 -0.1801  0.2850
22704SOL    HW170650   5.817   9.323   4.012  0.3385  0.4584  1.3180
22704SOL    HW270651   5.939   9.246   4.059  0.4185 -2.0565 -2.7164
22705SOL     OW70652   8.760   5.046   5.250  0.2080  0.3819 -0.0771
22705SOL    HW170653   8.689   5.098   5.213 -1.1249 -0.1012  1.7469
22705SOL    HW270654   8.768   5.076   5.341  2.1348  0.2139 -0.1595
22706SOL     OW70655   6.002   3.539   7.021 -0.4992  0.2053  0.0988
22706SOL    HW170656   5.999   3.505   6.932 -0.9894  1.8025 -0.5239
22706SOL    HW270657   6.069   3.487   7.065  1.1564  0.6783 -1.7754
22707SOL     OW70658   5.994   3.929   3.337  0.5832  0.1489 -0.2166
22707SOL    HW170659   6.021   3.969   3.254  3.0880 -1.0642 -0.0348
22707SOL    HW270660   6.074   3.927   3.389 -0.7963  0.1680  1.9554
22708SOL     OW70661   6.179   1.608   5.724  0.1434 -0.1547 -0.0214
22708SOL    HW170662   6.089   1.610   5.693 -0.0148  0.0449  0.4500
22708SOL    HW270663   6.180   1.541   5.792 -0.1723  1.4163  1.5689
22709SOL     OW70664   7.069   2.006   0.605 -0.0644  0.0691  0.2877
22709SOL    HW170665   7.018   1.942   0.655 -0.9694 -0.3429 -1.1283
22709SOL    HW270666   7.003   2.064   0.567  0.6506  0.7010  0.0143
22710SOL     OW70667   0.946   8.175   7.551  0.2313  0.1085 -0.0581
22710SOL    HW170668   0.867   8.164   7.604 -0.0395  0.5174 -0.3762
22710SOL    HW270669   0.967   8.086   7.521 -0.1526  0.0095 -0.0350
22711SOL     OW70670   2.317   1.820   3.252  0.0590  0.0205  0.4584
22711SOL    HW170671   2.365   1.771   3.319 -0.2438  0.6045  1.1066
22711SOL    HW270672   2.306   1.757   3.181 -0.4779 -0.9181  1.3517
22712SOL     OW70673   3.998   0.082   4.414  0.0176 -0.2374  0.8721
22712SOL    HW170674   3.974   0.076   4.506 -0.9087  0.1840  0.6570
22712SOL    HW270675   3.916   0.095   4.368  0.6148  0.9131  0.1061
22713SOL     OW70676   6.363  10.132  10.078  0.1769  0.0633 -0.1444
22713SOL    HW170677   6.285  10.177  10.044  0.7019  0.1567 -1.2675
22713SOL    HW270678   6.332  10.044  10.099  0.1408 -0.4879 -2.3479
22714SOL     OW70679   6.644   1.684   9.785 -0.5645  0.3147 -0.1610
22714SOL    HW170680   6.722   1.643   9.823  0.0846  2.6336  1.0916
22714SOL    HW270681   6.572   1.624   9.807  0.8594 -1.9808 -1.5627
22715SOL     OW70682   0.961   4.789   8.548  0.3363  0.5420  0.1652
22715SOL    HW170683   0.953   4.712   8.605  1.8884  0.3429  0.1410
22715SOL    HW270684   0.873   4.802   8.512  0.1397 -1.4507 -0.1201
22716SOL     OW70685   1.838   5.310   3.426 -0.9710 -0.9952  0.4087
22716SOL    HW170686   1.773   5.309   3.497 -0.9736 -1.3271  0.4054
22716SOL    HW270687   1.801   5.251   3.360 -0.6020 -1.2972  0.4669
22717SOL     OW70688   0.836   8.103   9.980 -0.0460  0.0077 -0.1168
22717SOL    HW170689   0.835   8.113   9.885  1.0927  1.5233  0.0080
22717SOL    HW270690   0.816   8.190  10.013  2.6790  0.2558  1.0269
22718SOL     OW70691   3.440   4.925   3.333 -0.2348  0.3580 -0.3394
22718SOL    HW170692   3.491   4.940   3.413 -0.1200  0.0087 -0.3460
22718SOL    HW270693   3.401   5.010   3.313 -1.1051  0.2034  0.6751
22719SOL     OW70694   6.593   5.347   1.870  0.2389 -0.0977 -0.1354
22719SOL    HW170695   6.546   5.422   1.906  1.5279  1.5259 -1.7285
22719SOL    HW270696   6.618   5.295   1.946 -1.0409  0.8662  0.9642
22720SOL     OW70697   5.298   8.414   7.835  0.2380  0.2687  0.0914
22720SOL    HW170698   5.370   8.474   7.855 -0.5510  0.9827  0.8588
22720SOL    HW270699   5.287   8.363   7.916 -0.9990  1.0996  0.4624
22721SOL     OW70700   2.966   3.210   4.594  0.1917 -0.3110 -0.2077
22721SOL    HW170701   2.879   3.250   4.597  1.6605  3.4697 -3.5362
22721SOL    HW270702   2.950   3.116   4.604 -4.2310  0.3070 -0.5591
22722SOL     OW70703   6.829   7.224   5.564 -0.1245  0.2040  0.4609
22722SOL    HW170704   6.842   7.263   5.478 -0.4830  2.0407  1.2215
22722SOL    HW270705   6.884   7.276   5.623  0.0882 -1.0044  1.3565
22723SOL     OW70706   6.190   2.561   1.019  0.4220  0.0897 -0.3417
22723SOL    HW170707   6.103   2.538   0.985 -0.2732  3.6344 -1.1775
22723SOL    HW270708   6.233   2.477   1.034 -2.7554 -1.7290 -0.9415
22724SOL     OW70709   2.149   7.361   9.160  0.8929  0.2392  0.6270
22724SOL    HW170710   2.145   7.311   9.241 -1.5860  1.4900  1.3346
22724SOL    HW270711   2.102   7.442   9.180  1.3667  1.1051 -1.6710
22725SOL     OW70712   2.368   5.955   3.697  0.3615  0.1178  0.3590
22725SOL    HW170713   2.311   5.896   3.746  0.3445 -0.6808 -0.6145
22725SOL    HW270714   2.442   5.971   3.755  1.2472 -2.3066 -0.0879
22726SOL     OW70715   9.032   9.688   6.798 -0.0332 -0.1440  0.1388
22726SOL    HW170716   8.967   9.758   6.804 -0.1241 -0.2888  0.8887
22726SOL    HW270717   8.980   9.609   6.781  0.1250  0.0701 -1.4253
22727SOL     OW70718   6.996   3.051   7.854 -0.3537 -0.1112 -0.8364
22727SOL    HW170719   7.057   2.978   7.851 -0.9519 -0.6363 -0.3116
22727SOL    HW270720   6.968   3.055   7.945  0.7893  1.7025 -0.5407
22728SOL     OW70721   6.852   9.947   9.185 -0.3741 -0.5669  0.1759
22728SOL    HW170722   6.827   9.947   9.092  0.3412  1.7203 -0.0382
22728SOL    HW270723   6.943   9.917   9.186  0.9544  3.1515 -0.3145
22729SOL     OW70724   8.709   2.412   8.586  0.0160 -0.2635 -0.1250
22729SOL    HW170725   8.681   2.449   8.670 -0.3618  1.3188 -0.9211
22729SOL    HW270726   8.775   2.347   8.609 -0.8388 -0.5946  1.4632
22730SOL     OW70727   3.296   0.139   8.693 -0.4991  0.0677  0.3536
22730SOL    HW170728   3.336   0.166   8.610 -0.6397  0.7724  0.5145
22730SOL    HW270729   3.368   0.097   8.741  0.5138  2.8481  1.3525
22731SOL     OW70730   2.638   3.324   6.806  0.0050  0.0908  0.0768
22731SOL    HW170731   2.642   3.397   6.869  0.9507  1.1396 -1.1793
22731SOL    HW270732   2.545   3.312   6.789 -0.1826  0.6955  0.6604
22732SOL     OW70733   1.743   6.004   8.050  0.6088  0.1248 -0.0683
22732SOL    HW170734   1.731   5.979   8.142 -0.2218  0.5163 -0.0605
22732SOL    HW270735   1.657   6.037   8.023  1.3080  1.7252 -0.4465
22733SOL     OW70736   3.556   1.238   1.661  0.2798  0.7339  0.6738
22733SOL    HW170737   3.615   1.276   1.726  0.2333  0.0335  1.1314
22733SOL    HW270738   3.482   1.206   1.713  0.5949 -0.5185  0.3469
22734SOL     OW70739   4.924   8.242   6.575  0.0548 -0.9295 -0.0752
22734SOL    HW170740   4.893   8.198   6.496  0.9079  0.5334 -1.2589
22734SOL    HW270741   5.010   8.202   6.592  0.1448 -0.8114 -0.2492
22735SOL     OW70742   0.923   5.809   8.971  0.3577 -0.8456  0.4768
22735SOL    HW170743   0.971   5.892   8.966  0.2816 -0.7868  0.7093
22735SOL    HW270744   0.948   5.772   9.055 -0.2278 -0.6730  0.7329
22736SOL     OW70745   7.883   4.205   5.280 -0.4331 -0.1405  0.0696
22736SOL    HW170746   7.965   4.159   5.299 -0.1804  0.4644  0.4271
22736SOL    HW270747   7.909   4.296   5.265 -0.6578 -0.5334 -2.9099
22737SOL     OW70748   1.361   2.577   6.528  0.3129  0.5859 -0.3466
22737SOL    HW170749   1.284   2.521   6.523  1.9774 -1.9942  1.5419
22737SOL    HW270750   1.404   2.551   6.610  1.7996  3.8112 -0.0193
22738SOL     OW70751   1.892   9.580   5.539  0.1177 -0.5256  0.8645
22738SOL    HW170752   1.815   9.539   5.578  0.2683 -0.4922  1.2033
22738SOL    HW270753   1.957   9.582   5.610  0.0412  0.4808  0.9116
22739SOL     OW70754   8.779   5.444   7.828 -0.3993 -0.0037  0.3429
22739SOL    HW170755   8.687   5.470   7.821 -0.6027 -1.3837 -2.9074
22739SOL    HW270756   8.828   5.520   7.797 -0.5874 -0.3340 -0.7726
22740SOL     OW70757   0.096   0.948   9.744 -0.3213 -0.3703  0.4088
22740SOL    HW170758   0.163   0.970   9.680  0.7515 -1.8892  0.9599
22740SOL    HW270759   0.142   0.945   9.828 -1.0716 -1.3808  0.8102
22741SOL     OW70760   3.426   4.507   4.879  0.2893 -0.1365 -0.2470
22741SOL    HW170761   3.445   4.416   4.901  1.6204 -0.2581 -1.8066
22741SOL    HW270762   3.422   4.508   4.783 -0.0728  1.3735 -0.2258
22742SOL     OW70763   5.411   4.078   4.754  0.2939 -0.2140  0.3901
22742SOL    HW170764   5.420   3.995   4.802 -1.6870 -2.7253 -3.3026
22742SOL    HW270765   5.318   4.100   4.764  0.3027  0.2726 -0.6030
22743SOL     OW70766   0.207   5.713   2.268 -0.6584 -0.0369  0.2645
22743SOL    HW170767   0.155   5.632   2.267  0.0966 -0.5235 -0.6294
22743SOL    HW270768   0.226   5.730   2.176  1.9566 -0.6653  0.6363
22744SOL     OW70769   6.606   1.456   0.551 -0.7204  0.1485 -0.0656
22744SOL    HW170770   6.606   1.435   0.644  1.5732 -0.1877 -0.1018
22744SOL    HW270771   6.544   1.528   0.542 -1.0643  0.0852  1.6945
22745SOL     OW70772   3.790   3.071   1.458 -0.0420  0.3601  0.0315
22745SOL    HW170773   3.778   3.137   1.389 -0.3609  0.6233  0.3339
22745SOL    HW270774   3.877   3.034   1.441  0.0031  0.6299 -0.3358
22746SOL     OW70775   9.990   8.505   1.482  0.1234  0.0600 -0.0241
22746SOL    HW170776   9.985   8.591   1.440  3.6309  0.5377  0.3274
22746SOL    HW270777   9.988   8.525   1.576  0.9419 -0.2039  0.0562
22747SOL     OW70778   5.696   6.733   3.552  0.6268 -0.0006  0.1320
22747SOL    HW170779   5.608   6.719   3.587  1.0568  0.5116  1.4617
22747SOL    HW270780   5.684   6.741   3.458 -1.1979  3.4416  0.5968
22748SOL     OW70781   8.450   8.382   3.135 -0.4393  0.1338  0.1705
22748SOL    HW170782   8.367   8.396   3.180 -1.6155 -0.5080 -1.6911
22748SOL    HW270783   8.424   8.357   3.046  1.6870 -2.3077  0.1575
22749SOL     OW70784   3.095   0.677   7.419 -0.2941  0.0969  0.0678
22749SOL    HW170785   3.028   0.636   7.366 -1.6316  0.8805  1.1318
22749SOL    HW270786   3.177   0.657   7.373 -1.1992 -1.1685 -1.0360
22750SOL     OW70787   3.358   1.951   2.311 -0.2095 -0.1411  0.5331
22750SOL    HW170788   3.447   1.916   2.317 -0.8336 -2.1169 -0.9830
22750SOL    HW270789   3.356   1.997   2.227 -0.1765  1.2700  1.2942
22751SOL     OW70790   9.884   2.488   9.715 -0.4960 -0.2343 -0.9248
22751SOL    HW170791   9.806   2.456   9.761 -0.0644  0.3928  0.2944
22751SOL    HW270792   9.957   2.463   9.772  0.1942 -0.8069 -2.0502
22752SOL     OW70793   9.783   4.902   5.703 -0.0062 -0.9385  0.0753
22752SOL    HW170794   9.817   4.992   5.708  0.6164 -1.0657 -1.7202
22752SOL    HW270795   9.844   4.851   5.757 -0.6412 -0.2107  1.4981
22753SOL     OW70796   4.036   6.984   2.081 -0.3274  0.0907 -0.4435
22753SOL    HW170797   4.131   6.992   2.072 -0.5019  0.9660 -1.6603
22753SOL    HW270798   4.016   7.029   2.163  0.1942  0.8144 -0.7051
22754SOL     OW70799   8.466   5.511   5.269 -0.5884  0.2010 -0.5447
22754SOL    HW170800   8.426   5.598   5.262  0.9849  0.9965  0.2190
22754SOL    HW270801   8.397   5.457   5.308 -0.9684  1.5559  0.7287
22755SOL     OW70802   6.989   5.042   1.430 -0.3527 -0.0061 -0.3438
22755SOL    HW170803   7.067   5.027   1.378 -0.8452 -0.6448 -0.9106
22755SOL    HW270804   6.990   4.972   1.496 -0.5421 -0.1387 -0.4780
22756SOL     OW70805   4.310   6.957   2.154 -0.8708 -0.7906  0.7490
22756SOL    HW170806   4.399   6.970   2.186  0.6057 -1.4890 -2.7484
22756SOL    HW270807   4.298   6.862   2.156 -0.9161 -0.8135 -0.2726
22757SOL     OW70808   8.224   2.721   8.081 -0.1977 -0.0212 -0.0794
22757SOL    HW170809   8.312   2.752   8.102  0.2590 -0.6702 -0.9789
22757SOL    HW270810   8.198   2.772   8.005  0.1024 -1.0191 -0.8698
22758SOL     OW70811   5.716   0.170   2.003 -0.1291 -0.4681  0.7476
22758SOL    HW170812   5.752   0.107   2.066  0.0777  0.4432  1.5492
22758SOL    HW270813   5.779   0.242   2.002 -0.6271 -0.0336  0.2253
22759SOL     OW70814   9.710   2.461   8.513 -0.5756  0.2866 -0.1892
22759SOL    HW170815   9.802   2.439   8.524 -1.4892 -2.9383  1.9431
22759SOL    HW270816   9.701   2.548   8.552  1.4710  0.4169  0.0475
22760SOL     OW70817   4.730   5.726   9.931  0.4549  0.3135  0.0253
22760SOL    HW170818   4.813   5.758   9.967 -0.7062  0.6065  2.5945
22760SOL    HW270819   4.713   5.645   9.979 -0.7639  0.3078 -0.4122
22761SOL     OW70820  10.198   6.766   9.549  0.3200  0.4936 -0.2857
22761SOL    HW170821  10.124   6.795   9.601 -0.4201 -1.8260 -0.0191
22761SOL    HW270822  10.191   6.816   9.467  0.6695  3.0760  1.1992
22762SOL     OW70823   8.026   8.789   4.180 -0.1893  0.0267 -0.2225
22762SOL    HW170824   8.038   8.794   4.085 -0.3895 -0.0102 -0.2509
22762SOL    HW270825   8.057   8.873   4.214  1.4322 -0.5908 -0.1515
22763SOL     OW70826   5.514   9.539   1.594  0.0086 -0.4830  0.1574
22763SOL    HW170827   5.523   9.551   1.689 -1.4508 -0.7124  0.3469
22763SOL    HW270828   5.437   9.592   1.571  2.1543  2.0275 -1.4217
22764SOL     OW70829   1.646   7.474   2.310  0.1458  0.1407 -0.2756
22764SOL    HW170830   1.723   7.440   2.355  0.6406  0.5561 -0.8107
22764SOL    HW270831   1.679   7.544   2.254 -0.6176  0.3215 -0.5106
22765SOL     OW70832   1.188   7.970   6.575  0.0569 -0.3079  0.3414
22765SOL    HW170833   1.175   8.046   6.517  1.5679  1.5861  2.4081
22765SOL    HW270834   1.193   7.895   6.515 -1.2711  1.2223 -1.7680
22766SOL     OW70835   7.485   1.168   0.083 -0.0278  0.4374 -0.2152
22766SOL    HW170836   7.507   1.091   0.135  1.9992 -0.6746 -2.5919
22766SOL    HW270837   7.546   1.236   0.112  1.6546 -0.4260 -1.6402
22767SOL     OW70838   9.928   7.719   1.813 -0.9944 -0.0238 -0.0061
22767SOL    HW170839   9.871   7.732   1.889 -0.0485 -0.3652  0.7751
22767SOL    HW270840   9.893   7.641   1.770 -3.5197  2.0132 -1.7850
22768SOL     OW70841   6.072   3.668   9.654 -0.0044 -0.7450 -0.1008
22768SOL    HW170842   6.047   3.747   9.606 -0.3169 -0.6433  0.2292
22768SOL    HW270843   6.032   3.679   9.740  0.4417 -0.9914  0.1385
22769SOL     OW70844   9.810   6.591   2.716  0.5751  0.0759  0.3037
22769SOL    HW170845   9.835   6.507   2.755 -0.9834 -0.6951 -0.3254
22769SOL    HW270846   9.851   6.590   2.629  3.1617  1.3372  1.4596
22770SOL     OW70847   3.973   9.054   4.862  0.0138  0.0172  0.1173
22770SOL    HW170848   4.026   9.126   4.827  1.8988 -1.8432 -0.9715
22770SOL    HW270849   3.888   9.063   4.819  0.6835  0.7853 -1.0602
22771SOL     OW70850   2.907   9.821   7.843  0.4013  0.0447 -0.4372
22771SOL    HW170851   2.896   9.839   7.936  1.0501  1.8204 -0.6791
22771SOL    HW270852   2.829   9.859   7.803  0.2512 -0.4832 -0.6447
22772SOL     OW70853   7.782   6.635   1.644 -0.2808  0.3467  0.2772
22772SOL    HW170854   7.691   6.627   1.673 -0.5779 -0.9255 -0.9651
22772SOL    HW270855   7.776   6.679   1.559  0.3984  1.7526  0.9351
22773SOL     OW70856   4.295  10.143   8.353  0.3874 -0.2152 -0.2662
22773SOL    HW170857   4.270  10.058   8.316 -0.0239 -0.7069  1.1412
22773SOL    HW270858   4.252  10.207   8.296 -3.8997 -1.0068  1.9107
22774SOL     OW70859   3.867   7.759   2.778 -0.3507  0.3044  0.6738
22774SOL    HW170860   3.869   7.773   2.684 -0.5562 -3.8666 -0.0324
22774SOL    HW270861   3.956   7.732   2.800 -0.7369 -0.4091  1.3827
22775SOL     OW70862   3.858   2.757   3.210 -0.3300 -0.0452 -0.2206
22775SOL    HW170863   3.768   2.790   3.203  0.3831  2.5407  1.8054
22775SOL    HW270864   3.905   2.800   3.139 -0.3094  0.0937 -0.1249
22776SOL     OW70865   7.632   0.891   5.868 -0.0079 -0.8158 -0.1957
22776SOL    HW170866   7.717   0.864   5.902 -0.0341  0.4846  0.9549
22776SOL    HW270867   7.589   0.932   5.943 -0.8738  0.2586 -1.2743
22777SOL     OW70868   3.760   8.157   4.858  0.2312 -0.0404  0.5241
22777SOL    HW170869   3.699   8.084   4.858  0.0210  0.1332  0.2446
22777SOL    HW270870   3.760   8.188   4.949 -0.4132  0.2199  0.4430
22778SOL     OW70871   3.146   7.636   9.660  0.2463  0.0317 -0.2023
22778SOL    HW170872   3.077   7.654   9.597  1.4041 -1.1800 -1.8623
22778SOL    HW270873   3.227   7.665   9.617  0.8052  1.5123  1.7428
22779SOL     OW70874   5.790   3.319   3.029 -0.3144 -0.2979 -0.5252
22779SOL    HW170875   5.877   3.317   3.069 -0.2219 -2.4766 -0.7820
22779SOL    HW270876   5.804   3.361   2.944  0.3469  0.0054 -0.2681
22780SOL     OW70877   8.414   9.673   6.518 -0.3926 -0.1131 -0.0629
22780SOL    HW170878   8.399   9.593   6.468  3.2068 -0.1381 -1.2528
22780SOL    HW270879   8.378   9.742   6.464  0.1700 -0.5191 -0.9632
22781SOL     OW70880   2.759   9.544   9.200 -0.0846 -0.0523 -0.3218
22781SOL    HW170881   2.752   9.545   9.295  1.2412  1.4068 -0.1976
22781SOL    HW270882   2.769   9.636   9.176  1.2929 -0.5252 -1.7065
22782SOL     OW70883   3.550   6.319   2.314 -0.0861 -0.1338 -0.1981
22782SOL    HW170884   3.625   6.298   2.259 -0.5196 -0.3663 -0.7106
22782SOL    HW270885   3.503   6.387   2.265 -0.6017 -0.5088 -0.2275
22783SOL     OW70886   2.724   2.946   2.639  0.0805 -0.3336 -0.1495
22783SOL    HW170887   2.656   2.963   2.574 -1.4303 -1.6915  1.0571
22783SOL    HW270888   2.737   3.030   2.682 -3.1380 -0.7637  1.7796
22784SOL     OW70889   0.015   9.688   4.329  0.3770 -0.8099  0.2109
22784SOL    HW170890  -0.061   9.745   4.341 -1.0145 -2.6974  0.4901
22784SOL    HW270891   0.026   9.682   4.234  1.7336  1.4360  0.1733
22785SOL     OW70892   8.429   6.728   3.090 -0.5361  0.2706  0.2915
22785SOL    HW170893   8.463   6.817   3.093  1.1838 -0.4126  1.3923
22785SOL    HW270894   8.336   6.737   3.110 -0.6540  1.9528 -0.9535
22786SOL     OW70895   2.796   9.206   0.097  0.4193  0.5613 -0.0584
22786SOL    HW170896   2.716   9.163   0.127  0.7081 -0.7484 -1.1232
22786SOL    HW270897   2.804   9.179   0.005 -0.0182  3.8416 -1.1129
22787SOL     OW70898   4.166   2.116   5.680 -0.2087  0.0793  0.1888
22787SOL    HW170899   4.191   2.133   5.771  0.5753  2.5266 -0.4328
22787SOL    HW270900   4.228   2.167   5.629 -2.0004  0.4807 -1.6503
22788SOL     OW70901  10.146   7.008   8.414  0.3327  0.0903  0.1073
22788SOL    HW170902  10.206   6.982   8.344  0.1157  1.4909 -0.6237
22788SOL    HW270903  10.129   6.928   8.462 -0.7928 -1.2517 -2.4165
22789SOL     OW70904   5.234   6.065   2.841 -0.0643 -0.3331 -0.2654
22789SOL    HW170905   5.178   5.997   2.879  0.1502  0.3029  1.2121
22789SOL    HW270906   5.211   6.144   2.888  0.4380  0.4204 -1.2643
22790SOL     OW70907   5.975   8.516   2.818 -0.0912 -0.5107 -0.9378
22790SOL    HW170908   6.046   8.523   2.755 -0.2917  1.7155 -0.9647
22790SOL    HW270909   5.896   8.540   2.769 -0.2765  1.0421  0.0687
22791SOL     OW70910   2.318   6.992   9.584 -0.0557 -0.0847 -0.5369
22791SOL    HW170911   2.368   6.936   9.643  0.2435  1.6236  0.8959
22791SOL    HW270912   2.227   6.983   9.612  0.0113  0.2552 -0.2053
22792SOL     OW70913   1.152   8.540   8.855 -0.1019  0.3982 -0.7324
22792SOL    HW170914   1.063   8.525   8.886  0.1826 -1.6323 -0.7745
22792SOL    HW270915   1.145   8.615   8.797 -1.3509  1.7371  1.0926
22793SOL     OW70916   2.362   1.635   5.672  0.5958  0.2884 -0.2974
22793SOL    HW170917   2.276   1.610   5.707  1.6251 -1.1028  1.3387
22793SOL    HW270918   2.355   1.729   5.655 -1.2054  0.2131 -0.0669
22794SOL     OW70919   3.598   0.921   1.678  0.5825 -0.2655 -0.2271
22794SOL    HW170920   3.514   0.965   1.664 -0.9575 -2.4129  1.9890
22794SOL    HW270921   3.605   0.912   1.773  2.5111 -1.7026 -0.4819
22795SOL     OW70922   9.855   0.910   2.988  0.1659 -0.3059  0.0026
22795SOL    HW170923   9.845   0.816   3.002 -0.2884  0.0576  2.2677
22795SOL    HW270924   9.937   0.917   2.938  0.3420 -1.8675  0.0260
22796SOL     OW70925   3.740   2.816   4.136  0.2399 -0.0760 -0.0679
22796SOL    HW170926   3.766   2.730   4.169 -2.1390 -0.1724  1.7485
22796SOL    HW270927   3.690   2.797   4.057 -0.6312 -0.4481  0.5509
22797SOL     OW70928   2.660   7.956   2.424  0.2471  0.1641 -0.0043
22797SOL    HW170929   2.751   7.952   2.397  0.5676 -0.8649  1.1767
22797SOL    HW270930   2.654   7.894   2.497 -1.4959 -0.1115 -0.3650
22798SOL     OW70931   5.844   0.036   9.904  0.4054 -0.0163  0.2053
22798SOL    HW170932   5.853   0.092   9.827  1.7006 -1.2938 -0.5996
22798SOL    HW270933   5.823   0.097   9.975  0.9416  1.3933 -0.8041
22799SOL     OW70934   5.463   9.853   1.702 -0.3822  0.6723 -0.2082
22799SOL    HW170935   5.425   9.772   1.735  1.3202 -0.1079 -0.0942
22799SOL    HW270936   5.394   9.919   1.713 -1.1162 -0.3533  1.4505
22800SOL     OW70937   8.198   2.586   8.574  0.0058 -0.3447 -0.4913
22800SOL    HW170938   8.224   2.593   8.666 -0.7478 -1.6458 -0.1654
22800SOL    HW270939   8.103   2.587   8.575 -0.0161 -0.8861 -1.2073
22801SOL     OW70940   9.889   9.084   7.962 -0.0278  0.1598 -0.1285
22801SOL    HW170941   9.902   9.063   8.055  0.4353 -1.0059 -0.4512
22801SOL    HW270942   9.830   9.016   7.931 -2.1796  1.9725 -0.1127
22802SOL     OW70943   2.551   8.910   4.261 -0.4182  0.2461 -0.4953
22802SOL    HW170944   2.558   8.901   4.356  0.0354 -1.3708 -0.6685
22802SOL    HW270945   2.461   8.884   4.241  0.0656 -1.3348 -0.6994
22803SOL     OW70946   5.273   8.621   0.714  0.1437 -0.6365  0.6847
22803SOL    HW170947   5.341   8.610   0.646  0.1095  1.2626  0.3167
22803SOL    HW270948   5.272   8.537   0.760  1.2752 -1.4205 -0.6642
22804SOL     OW70949   8.905   6.847   6.025  0.2539  0.4792  0.0090
22804SOL    HW170950   8.978   6.852   6.087 -0.4087  3.9041  0.6139
22804SOL    HW270951   8.827   6.848   6.080 -0.3169 -0.7561 -0.7438
22805SOL     OW70952   3.701   2.360   0.340 -0.0612  0.2628 -0.4194
22805SOL    HW170953   3.674   2.440   0.384  2.0745  0.9187 -0.2188
22805SOL    HW270954   3.620   2.318   0.312 -1.2647  1.6878  0.8961
22806SOL     OW70955   3.073   0.014   6.206  0.3977  0.0718 -0.7282
22806SOL    HW170956   2.991   0.008   6.256  0.3671 -0.6222 -0.8548
22806SOL    HW270957   3.067   0.098   6.160 -0.2800 -0.0040 -0.7895
22807SOL     OW70958   7.140   3.476   1.961  0.1094 -0.0121 -0.1735
22807SOL    HW170959   7.079   3.530   1.909 -1.0577 -0.1944  0.9767
22807SOL    HW270960   7.204   3.445   1.897  0.1631  1.8157 -1.0636
22808SOL     OW70961   7.342   1.836   8.781 -0.6507  0.0006  0.1537
22808SOL    HW170962   7.272   1.876   8.832 -1.7630 -0.5529 -0.9130
22808SOL    HW270963   7.406   1.907   8.769 -1.1137  0.5627  0.9641
22809SOL     OW70964   3.438   4.808   0.419 -0.3309  0.0396  0.4871
22809SOL    HW170965   3.451   4.718   0.450 -0.2077 -0.3307 -0.6058
22809SOL    HW270966   3.356   4.805   0.371 -0.7565  0.7174  1.1647
22810SOL     OW70967   5.948   6.482   1.651  0.4164  0.1925 -0.4142
22810SOL    HW170968   5.970   6.575   1.642  1.1011 -0.0182 -1.0145
22810SOL    HW270969   5.922   6.472   1.742 -1.1349  1.2722 -0.7183
22811SOL     OW70970   3.049   5.506   7.211  0.0532  0.0988  0.3045
22811SOL    HW170971   3.131   5.457   7.202  0.6871  1.5202 -2.0305
22811SOL    HW270972   3.076   5.595   7.233 -0.6801  1.1056 -2.5657
22812SOL     OW70973   1.257   5.548   5.337  0.0927  0.1417 -0.2205
22812SOL    HW170974   1.341   5.504   5.346 -0.0438  0.3867  2.9127
22812SOL    HW270975   1.193   5.477   5.333 -0.0274 -0.1029  3.7150
22813SOL     OW70976   2.159   4.610   5.828  0.7290 -0.7820 -0.0300
22813SOL    HW170977   2.212   4.618   5.749 -0.3711  1.3967 -0.5820
22813SOL    HW270978   2.101   4.536   5.810  1.6167 -1.3517 -0.5784
22814SOL     OW70979   8.529   5.544   7.666 -0.0613 -0.4419  0.6247
22814SOL    HW170980   8.443   5.517   7.698  0.1682 -2.5248 -0.3937
22814SOL    HW270981   8.526   5.639   7.666 -2.2698 -0.4859  0.8749
22815SOL     OW70982   2.971   1.183   5.194 -0.4760  0.0756  0.4855
22815SOL    HW170983   2.930   1.233   5.124 -3.3581 -2.2164  0.4495
22815SOL    HW270984   3.063   1.175   5.167 -1.2908  0.1348 -2.4975
22816SOL     OW70985   0.904   3.820   8.502 -0.3555 -0.4429  0.3047
22816SOL    HW170986   0.864   3.756   8.444 -0.7895 -0.1004  0.2236
22816SOL    HW270987   0.995   3.791   8.510 -0.4826 -0.9172  0.0593
22817SOL     OW70988   4.352   0.783   8.509 -0.2292  0.2310  0.0582
22817SOL    HW170989   4.433   0.735   8.494  1.2831  2.8619 -0.4266
22817SOL    HW270990   4.310   0.786   8.423  1.7147  3.3208 -0.8500
22818SOL     OW70991   0.531   3.637   2.328 -0.4552 -0.5276  0.3911
22818SOL    HW170992   0.531   3.588   2.246  1.7622 -0.7244  0.4712
22818SOL    HW270993   0.490   3.720   2.306  2.4724  0.4894 -1.6527
22819SOL     OW70994   5.966   5.013   0.496 -0.0921  0.3667  0.0926
22819SOL    HW170995   6.059   4.992   0.506 -0.0492  0.1924 -0.6361
22819SOL    HW270996   5.934   5.024   0.586 -0.0947 -2.6960  0.5294
22820SOL     OW70997   9.132   1.411   7.505  0.4295 -0.1998 -0.4098
22820SOL    HW170998   9.047   1.446   7.532  0.8083  1.5907 -1.5009
22820SOL    HW270999   9.113   1.361   7.425  0.4403  0.3660 -0.7646
22821SOL     OW71000   8.485   8.660   8.836 -0.1490 -0.0273 -0.2155
22821SOL    HW171001   8.499   8.568   8.857  0.2069 -0.4022 -2.0301
22821SOL    HW271002   8.436   8.659   8.753  0.7228  1.4123 -0.7786
22822SOL     OW71003   9.239   5.088   0.772 -0.2842  0.5046 -0.0033
22822SOL    HW171004   9.241   5.011   0.715 -0.8111  1.4079 -1.2475
22822SOL    HW271005   9.146   5.108   0.782 -0.2074  0.2137  1.3755
22823SOL     OW71006   6.592   7.722  10.054  0.1662 -0.0071 -0.2251
22823SOL    HW171007   6.616   7.682  10.138 -1.2030 -0.1272  0.1202
22823SOL    HW271008   6.586   7.649   9.993  2.1022  0.1814 -0.6692
22824SOL     OW71009   6.450   6.852   2.359  0.0375 -0.4341  0.0177
22824SOL    HW171010   6.543   6.874   2.366 -0.2243  0.5870  0.3674
22824SOL    HW271011   6.439   6.826   2.268  0.0293  2.5289 -0.8803
22825SOL     OW71012   1.847   6.710   0.409  0.3419  0.1568 -0.2378
22825SOL    HW171013   1.803   6.727   0.492 -0.1474 -0.5417 -0.3505
22825SOL    HW271014   1.818   6.622   0.383  3.0489 -1.0007  0.4957
22826SOL     OW71015   5.492   6.760   2.921 -0.0190  0.1827 -0.2257
22826SOL    HW171016   5.437   6.817   2.974  0.1946  0.6087 -0.4576
22826SOL    HW271017   5.495   6.677   2.969  0.8428  0.8249  0.8468
22827SOL     OW71018   7.733   3.532   5.996  0.1088 -0.5526  0.7541
22827SOL    HW171019   7.718   3.471   6.068 -0.9062  0.5906  1.5397
22827SOL    HW271020   7.824   3.517   5.970  0.4262 -1.1334  2.1275
22828SOL     OW71021   4.257   8.586   1.620 -0.2721  0.0378  0.3929
22828SOL    HW171022   4.193   8.548   1.560  0.5341 -0.5340 -0.1077
22828SOL    HW271023   4.336   8.599   1.567 -0.4677  2.2721  0.5780
22829SOL     OW71024   0.620   0.734   9.804 -0.1416  0.3756 -0.0432
22829SOL    HW171025   0.638   0.813   9.855 -0.5690 -0.2515  1.0791
22829SOL    HW271026   0.577   0.766   9.725 -2.4594  1.0728  1.4611
22830SOL     OW71027   7.666   4.776   2.155  0.1369 -0.1977 -0.0236
22830SOL    HW171028   7.697   4.744   2.240  1.6234  0.3362 -0.3353
22830SOL    HW271029   7.674   4.871   2.161 -0.6861 -0.0975 -0.4178
22831SOL     OW71030   5.782   9.631   4.672  0.7256 -0.0978  0.1731
22831SOL    HW171031   5.858   9.580   4.644  0.2198 -0.1866 -1.0637
22831SOL    HW271032   5.730   9.644   4.593  0.1267  1.1330  0.7377
22832SOL     OW71033   1.859   1.179   8.946  0.2904 -0.0620  0.6512
22832SOL    HW171034   1.892   1.233   9.018  1.2883 -0.2848  0.3686
22832SOL    HW271035   1.871   1.089   8.977  2.0188 -0.1959 -0.3357
22833SOL     OW71036   9.211   2.862   5.766 -0.3479 -0.6932 -0.4990
22833SOL    HW171037   9.221   2.832   5.857  1.0249 -2.0119 -1.0585
22833SOL    HW271038   9.137   2.923   5.769 -1.3380 -1.9179  1.2183
22834SOL     OW71039   7.528   5.168   1.749  0.3603  0.1212 -0.2864
22834SOL    HW171040   7.574   5.218   1.681  1.2869 -0.8299 -0.3658
22834SOL    HW271041   7.454   5.223   1.772  0.1556  0.5737 -1.9202
22835SOL     OW71042   6.255   2.176   4.248 -0.1012  0.1406  0.0235
22835SOL    HW171043   6.285   2.237   4.316  0.4816 -0.4306  0.2906
22835SOL    HW271044   6.314   2.192   4.175  0.4131 -0.4795  0.2918
22836SOL     OW71045   5.939   6.969   0.309  0.8457 -0.1206  0.0571
22836SOL    HW171046   5.913   6.957   0.217  0.3054  1.0557  0.0363
22836SOL    HW271047   5.912   6.888   0.353 -1.3041  0.3474 -0.3226
22837SOL     OW71048   6.780   4.287   4.852  0.2877 -0.4625 -0.0373
22837SOL    HW171049   6.786   4.216   4.915  1.3305 -1.8656 -1.6623
22837SOL    HW271050   6.782   4.367   4.905  1.1811 -1.6008  1.6844
22838SOL     OW71051   0.021   8.843   8.703 -0.0313 -0.5327  0.0823
22838SOL    HW171052   0.087   8.776   8.721  0.2775 -0.8778 -2.1481
22838SOL    HW271053  -0.060   8.793   8.690  0.4217 -0.6218 -2.6878
22839SOL     OW71054   3.008   5.711   2.678  0.2993 -0.4940  0.0666
22839SOL    HW171055   2.979   5.654   2.607 -0.9734 -0.5512  0.6193
22839SOL    HW271056   3.103   5.717   2.668  0.3653 -2.2308 -0.3315
22840SOL     OW71057   2.366   4.957   6.257 -0.1758 -0.3020 -0.3679
22840SOL    HW171058   2.355   5.023   6.188 -0.0985  0.4176  0.2996
22840SOL    HW271059   2.344   5.003   6.337  2.9464 -0.1846  0.4811
22841SOL     OW71060   7.202   9.223   2.509  0.7094  0.2688  0.1558
22841SOL    HW171061   7.147   9.213   2.431  1.5796  0.6220 -0.5095
22841SOL    HW271062   7.162   9.166   2.575 -0.0705  0.0230 -0.5299
22842SOL     OW71063   2.225   2.019   7.963 -0.4085  0.1407 -0.0070
22842SOL    HW171064   2.297   2.003   7.902 -1.3270  1.3190 -1.4290
22842SOL    HW271065   2.264   2.071   8.033  0.6364 -1.1404  0.3748
22843SOL     OW71066   7.082   2.269   1.391 -0.5463 -0.0175 -0.4278
22843SOL    HW171067   7.085   2.259   1.296  2.6312 -0.2933 -0.3400
22843SOL    HW271068   7.077   2.363   1.406 -0.2042  0.0692 -0.8630
22844SOL     OW71069   8.897   9.565   1.613  0.2199 -0.4256 -0.5750
22844SOL    HW171070   8.980   9.585   1.656  0.6786  2.7082 -2.7273
22844SOL    HW271071   8.905   9.474   1.586  1.0344 -1.6064  3.3573
22845SOL     OW71072   5.938   6.932   1.067 -0.1134 -0.6341  0.2902
22845SOL    HW171073   5.891   6.943   0.984  1.6221  0.3335 -0.6049
22845SOL    HW271074   5.942   6.837   1.079  0.9447 -0.8610 -1.5491
22846SOL     OW71075   0.758   5.630   4.971 -0.2689 -0.1745 -0.7212
22846SOL    HW171076   0.817   5.605   4.900 -1.1972 -1.3850 -1.0813
22846SOL    HW271077   0.699   5.555   4.981 -0.4193  0.1506  1.0527
22847SOL     OW71078   8.402   2.089   9.530 -0.3668  0.2570  0.1105
22847SOL    HW171079   8.384   2.006   9.486 -0.9152 -0.5416  1.8203
22847SOL    HW271080   8.428   2.148   9.459  0.4696 -1.4849 -1.0704
22848SOL     OW71081   2.368   0.795   7.552  0.5282 -0.4519  0.2340
22848SOL    HW171082   2.278   0.765   7.536  0.1481 -0.5499  2.4605
22848SOL    HW271083   2.423   0.726   7.516 -0.2235  0.6323 -3.2070
22849SOL     OW71084   9.098   0.117   4.423  0.3567  0.0538 -0.0982
22849SOL    HW171085   9.053   0.187   4.470 -0.0902  0.4331 -1.0930
22849SOL    HW271086   9.161   0.083   4.487  0.4163  1.1930  0.4671
22850SOL     OW71087   4.682   0.251   3.022  0.5279  0.2113  0.0217
22850SOL    HW171088   4.664   0.160   3.047 -1.4871  0.3073 -0.9628
22850SOL    HW271089   4.615   0.302   3.068 -0.3970  0.8491 -1.9662
22851SOL     OW71090   0.044   0.312   6.906 -0.2454  0.1541 -0.5104
22851SOL    HW171091   0.061   0.218   6.913 -1.3123  0.0174  0.2848
22851SOL    HW271092  -0.048   0.319   6.883 -0.4354  1.0310  0.4682
22852SOL     OW71093   6.068   7.295   7.302  0.7563 -0.5417  0.3630
22852SOL    HW171094   6.063   7.262   7.392  0.2708 -0.1704  0.4740
22852SOL    HW271095   5.992   7.257   7.259 -0.7258  1.7514  0.9272
22853SOL     OW71096   2.637   5.093   6.189  0.1551  0.7139 -0.1901
22853SOL    HW171097   2.667   5.094   6.280 -1.0837  0.7332  0.2262
22853SOL    HW271098   2.560   5.037   6.189 -1.2744  2.6293 -0.7489
22854SOL     OW71099   5.067   9.614   8.830  0.6299  0.1324  0.0737
22854SOL    HW171100   5.095   9.692   8.878  0.0754  1.2370 -1.3431
22854SOL    HW271101   5.103   9.625   8.743  1.3427 -1.6858  0.1260
22855SOL     OW71102   5.512   5.145   8.404  0.4741 -0.4169  0.1596
22855SOL    HW171103   5.476   5.067   8.362 -0.0762 -0.2414  0.2934
22855SOL    HW271104   5.552   5.195   8.333  2.5475 -1.7570  0.3746
22856SOL     OW71105   2.525   4.952   5.112 -0.0483  0.1384  0.6934
22856SOL    HW171106   2.465   4.943   5.186 -0.2969 -2.1942  0.2494
22856SOL    HW271107   2.603   4.993   5.149 -0.8941  0.7298  1.8465
22857SOL     OW71108   8.609   4.713   6.082 -0.0044  0.0917  0.7865
22857SOL    HW171109   8.634   4.783   6.143  0.6499  0.7844 -0.2587
22857SOL    HW271110   8.668   4.641   6.105  1.7214  1.0835 -0.4245
22858SOL     OW71111   0.193   7.538   4.836 -0.2763 -0.1831 -0.2072
22858SOL    HW171112   0.141   7.616   4.856 -0.4144 -0.3956  0.2508
22858SOL    HW271113   0.194   7.488   4.917 -2.7841 -2.1910 -1.3466
22859SOL     OW71114   0.618   5.509   3.650 -0.6191 -0.2234  0.2339
22859SOL    HW171115   0.621   5.595   3.693 -2.9186  0.2392 -0.4686
22859SOL    HW271116   0.653   5.449   3.715  1.9854  1.3654  0.3686
22860SOL     OW71117   2.222   9.758  10.105 -0.4020 -0.5027 -0.5191
22860SOL    HW171118   2.293   9.706  10.142  0.4862 -0.5450 -2.1779
22860SOL    HW271119   2.213   9.832  10.165 -0.9626 -2.0129  1.2767
22861SOL     OW71120   3.067   3.389   6.446  0.6692  0.0135 -0.3411
22861SOL    HW171121   3.028   3.304   6.468  0.3236 -0.3249 -2.2064
22861SOL    HW271122   3.160   3.370   6.430  0.4550 -0.1452 -1.4392
22862SOL     OW71123   6.460   7.045   0.699  0.1009 -0.3099 -0.1568
22862SOL    HW171124   6.550   7.075   0.685  0.4644 -1.5563 -0.5144
22862SOL    HW271125   6.423   7.039   0.611  0.4713 -2.2440 -0.1964
22863SOL     OW71126   1.101   2.040   5.479 -0.2375  0.0189  0.3701
22863SOL    HW171127   1.169   2.107   5.485  0.0381 -0.4968  5.0756
22863SOL    HW271128   1.019   2.089   5.474  0.0758  0.7436  2.0774
22864SOL     OW71129   3.148   7.661   8.139 -0.2163  0.5414  0.1601
22864SOL    HW171130   3.177   7.570   8.145 -2.4438 -0.3127 -1.2234
22864SOL    HW271131   3.195   7.696   8.063 -0.3110  0.1538 -0.0788
22865SOL     OW71132   1.313   2.063   7.728  0.3492 -0.0062  0.1938
22865SOL    HW171133   1.278   1.974   7.733  1.7966 -0.4626  5.3190
22865SOL    HW271134   1.235   2.118   7.719 -0.7095 -1.6344 -1.0274
22866SOL     OW71135   9.668   1.767   9.910 -0.5011 -0.1378 -0.1353
22866SOL    HW171136   9.628   1.800   9.830 -0.5221 -1.1531 -0.5461
22866SOL    HW271137   9.760   1.752   9.888 -0.2822  0.5160  0.3116
22867SOL     OW71138   7.500   5.313   6.498 -0.3983 -0.1360 -0.4608
22867SOL    HW171139   7.584   5.357   6.509 -0.5138 -0.1000  0.3408
22867SOL    HW271140   7.435   5.378   6.527 -0.6510 -0.4142 -0.3984
22868SOL     OW71141   5.975   8.990   1.457  0.4491 -0.0350 -0.2781
22868SOL    HW171142   6.031   8.935   1.511  2.6468  2.0521 -0.3376
22868SOL    HW271143   5.901   9.013   1.514  0.2897 -1.7295  0.2314
22869SOL     OW71144   0.142   3.325   0.761 -0.2451 -0.0033 -0.3607
22869SOL    HW171145   0.051   3.310   0.737 -0.4392 -0.0091  0.3932
22869SOL    HW271146   0.156   3.418   0.743 -0.8789  0.3838  1.1227
22870SOL     OW71147   4.120   9.558   1.354 -0.2394  0.5253 -0.0957
22870SOL    HW171148   4.170   9.601   1.423  0.0057 -1.0364  0.7005
22870SOL    HW271149   4.185   9.516   1.299 -0.6932 -2.8570  1.8376
22871SOL     OW71150   8.277   5.086   7.168  0.1418 -0.3663  0.2582
22871SOL    HW171151   8.214   5.147   7.205  1.9157  1.5628  0.1711
22871SOL    HW271152   8.229   5.004   7.159 -2.3808  1.1074  0.0276
22872SOL     OW71153   6.549   2.890   1.435 -0.3216  0.5437 -0.1170
22872SOL    HW171154   6.639   2.923   1.440 -0.2873  0.2277  1.9310
22872SOL    HW271155   6.534   2.848   1.520 -1.5369 -1.6858 -1.3757
22873SOL     OW71156   9.942   1.751   8.625 -0.6111  0.2970 -0.5218
22873SOL    HW171157   9.925   1.740   8.718  0.8766  0.5154 -0.2003
22873SOL    HW271158   9.884   1.822   8.598 -1.2910  0.0061  0.1572
22874SOL     OW71159   5.053   6.659   4.730  0.4438 -0.3400  0.2411
22874SOL    HW171160   5.126   6.679   4.672 -0.5226  0.4416 -0.7236
22874SOL    HW271161   5.092   6.611   4.802  2.1856  1.5970  0.6169
22875SOL     OW71162   2.398   5.497   1.782 -0.9953  0.1359 -0.1139
22875SOL    HW171163   2.459   5.464   1.847  0.1227 -1.8246 -2.0630
22875SOL    HW271164   2.331   5.429   1.775 -1.1434  0.3540 -0.9450
22876SOL     OW71165   7.450   3.975   9.613 -0.6294  0.4893  0.5630
22876SOL    HW171166   7.496   4.051   9.646 -2.5749  1.8412  0.2563
22876SOL    HW271167   7.462   3.978   9.518 -0.4109  0.2197  0.5822
22877SOL     OW71168   3.894   1.563   0.444  0.5419  0.2138  0.5608
22877SOL    HW171169   3.888   1.544   0.350  1.3058  2.9446 -0.0794
22877SOL    HW271170   3.950   1.493   0.479 -2.5428 -2.8449 -0.3360
22878SOL     OW71171   9.059   5.020  10.118  0.0481 -0.4510  0.5881
22878SOL    HW171172   8.965   5.006  10.115  0.3328 -2.5952  0.5551
22878SOL    HW271173   9.084   5.039  10.028 -0.3199 -0.2028  0.5405
22879SOL     OW71174   9.894   6.198   3.270  0.3895  0.1425 -0.0864
22879SOL    HW171175   9.802   6.197   3.241  0.4079 -0.7510 -0.1086
22879SOL    HW271176   9.891   6.167   3.360  0.8180 -1.2160 -0.5301
22880SOL     OW71177   8.610   9.049   3.612  0.2951 -0.3179 -0.0115
22880SOL    HW171178   8.631   9.063   3.704  0.4871 -1.7920  0.1818
22880SOL    HW271179   8.616   9.136   3.572 -0.6842  0.4768  1.5375
22881SOL     OW71180   3.287   3.905   4.935 -0.4459  0.0559 -0.2089
22881SOL    HW171181   3.238   3.894   5.016  1.1010  0.5859  0.8215
22881SOL    HW271182   3.379   3.893   4.960  0.1233  1.1000 -1.7057
22882SOL     OW71183   7.254   6.033   5.683 -0.2089 -0.0020  0.4934
22882SOL    HW171184   7.306   6.011   5.605 -1.1688 -1.8603  0.3586
22882SOL    HW271185   7.186   6.091   5.650  1.8870  2.7051  0.7190
22883SOL     OW71186   2.580   8.548   6.246  0.0653  0.1821 -0.1681
22883SOL    HW171187   2.597   8.594   6.328 -0.7380  0.6549 -0.2625
22883SOL    HW271188   2.599   8.456   6.266  1.5091  0.5248  0.0665
22884SOL     OW71189   4.526   8.631   5.220  0.1873 -0.2836  0.3623
22884SOL    HW171190   4.554   8.547   5.258  1.2038 -1.2237 -2.2842
22884SOL    HW271191   4.505   8.609   5.129  0.3514  2.3325 -0.3374
22885SOL     OW71192   9.491   2.707   0.728  0.6623 -0.1368  0.6017
22885SOL    HW171193   9.585   2.688   0.728  0.8882  0.9312  0.5289
22885SOL    HW271194   9.450   2.624   0.707  1.6854 -0.2473 -1.0407
22886SOL     OW71195   2.697   6.238   1.357 -0.6686 -0.0280 -0.5561
22886SOL    HW171196   2.685   6.328   1.389  0.2695 -0.2445  0.4083
22886SOL    HW271197   2.610   6.213   1.325 -1.0222  1.1015 -0.5210
22887SOL     OW71198   0.142   6.160   0.144  0.4407  0.1945 -0.3048
22887SOL    HW171199   0.046   6.164   0.140  0.4934  1.2933 -0.7233
22887SOL    HW271200   0.166   6.219   0.215  0.7939 -0.3412  0.0238
22888SOL     OW71201   3.566  10.022   5.321  0.0217 -0.8874 -0.2421
22888SOL    HW171202   3.580  10.028   5.415  0.8819  1.6482 -0.4924
22888SOL    HW271203   3.474   9.997   5.312 -1.3031  3.1083  1.2744
22889SOL     OW71204   9.264   1.643   5.066 -0.4095  0.1270  0.0926
22889SOL    HW171205   9.262   1.727   5.021 -0.0439 -1.1449 -2.4151
22889SOL    HW271206   9.203   1.588   5.017  1.5460 -1.9092 -0.1537
22890SOL     OW71207   6.624   3.557   8.242  0.4675 -0.4557  0.0185
22890SOL    HW171208   6.644   3.479   8.189 -0.1731  0.2302 -1.2734
22890SOL    HW271209   6.706   3.577   8.287  0.6982 -1.7486  0.2050
22891SOL     OW71210   9.095   3.981   2.054  0.5001  0.2491  0.2085
22891SOL    HW171211   9.101   3.924   1.977  2.2894  0.4398  0.1868
22891SOL    HW271212   9.110   3.922   2.128 -1.5360  0.0071  0.4533
22892SOL     OW71213   6.985   1.908   0.842  0.3548  0.3984 -0.1329
22892SOL    HW171214   6.972   1.836   0.904 -0.0208  1.2738  0.8264
22892SOL    HW271215   7.075   1.936   0.855  0.1261  0.9142  0.4010
22893SOL     OW71216   8.884   5.923   6.235  0.4348 -0.6132  0.1680
22893SOL    HW171217   8.836   5.900   6.156  1.0974  0.8370 -0.6836
22893SOL    HW271218   8.973   5.893   6.219  0.3163 -1.3154  0.8277
22894SOL     OW71219   5.059   6.361   8.391 -0.6316 -0.2494  0.4883
22894SOL    HW171220   5.147   6.371   8.356 -0.3733  0.4804  1.3388
22894SOL    HW271221   5.042   6.441   8.440 -2.6334  0.6099 -1.5014
22895SOL     OW71222   9.921   8.317   2.334  0.1046  0.0132  0.0941
22895SOL    HW171223   9.934   8.352   2.422 -0.2829  1.1138 -0.2763
22895SOL    HW271224   9.966   8.379   2.277 -1.8763  0.7488 -0.7086
22896SOL     OW71225   4.028   8.257   8.114 -0.3018  0.2832 -0.4982
22896SOL    HW171226   4.105   8.212   8.077 -0.9016  0.5481 -2.0961
22896SOL    HW271227   4.051   8.271   8.206  0.5134 -1.9788 -0.3061
22897SOL     OW71228   6.835   2.270   1.646  0.1335 -0.0769 -0.1355
22897SOL    HW171229   6.808   2.331   1.577  1.1306  1.2954  0.6483
22897SOL    HW271230   6.926   2.292   1.662  0.4415 -1.6653  0.3137
22898SOL     OW71231   9.572   0.358   0.925  0.1448  0.2709 -0.1134
22898SOL    HW171232   9.477   0.359   0.937  0.3475  1.3158  1.6169
22898SOL    HW271233   9.591   0.444   0.885  0.5116  0.6749  0.9183
22899SOL     OW71234   1.457   0.754   2.605  0.3933  0.2542 -0.0046
22899SOL    HW171235   1.443   0.659   2.600  1.0507  0.0995  0.9900
22899SOL    HW271236   1.478   0.780   2.516 -1.4474 -0.2674 -0.6229
22900SOL     OW71237   2.797   1.329   0.770 -0.0917  0.0452  0.4998
22900SOL    HW171238   2.796   1.246   0.723 -0.1792 -0.9061  2.1374
22900SOL    HW271239   2.886   1.333   0.807 -0.2737  0.3897  0.8990
22901SOL     OW71240   4.255   3.328   7.843 -0.7353 -0.4746 -0.0670
22901SOL    HW171241   4.279   3.391   7.776 -1.8858  1.5498  1.3590
22901SOL    HW271242   4.159   3.322   7.838 -1.1750  2.0569  3.3125
22902SOL     OW71243   4.202   1.455   6.817  0.7798  0.4367 -0.0373
22902SOL    HW171244   4.243   1.381   6.773 -0.1985 -0.4722  0.5568
22902SOL    HW271245   4.240   1.457   6.904  1.0068  0.8074 -0.1422
22903SOL     OW71246   5.056   6.191   0.632 -0.4461  0.0292 -0.3207
22903SOL    HW171247   5.031   6.122   0.571  0.0744 -0.0502 -0.4399
22903SOL    HW271248   5.042   6.153   0.718 -0.0499 -0.2672 -0.3844
22904SOL     OW71249   0.615   9.820   3.689  0.5460  0.2786 -0.6333
22904SOL    HW171250   0.606   9.903   3.642  2.5126  0.7664 -0.1999
22904SOL    HW271251   0.673   9.840   3.762  0.4657 -1.3271 -0.1049
22905SOL     OW71252   6.709   6.819   7.298  0.0785  0.0691 -0.3692
22905SOL    HW171253   6.706   6.773   7.214 -3.0254 -1.1646  0.3385
22905SOL    HW271254   6.669   6.904   7.279 -1.8386 -0.6973  0.0846
22906SOL     OW71255   5.429   4.929   5.324 -0.4218 -0.6046  0.1236
22906SOL    HW171256   5.460   4.869   5.256 -0.8949  0.3797 -0.9831
22906SOL    HW271257   5.349   4.967   5.288 -0.0701  0.7758  0.7590
22907SOL     OW71258   9.110  10.006   5.588 -0.5200  0.3461 -0.1711
22907SOL    HW171259   9.148  10.079   5.636  1.0366 -1.1015  0.8669
22907SOL    HW271260   9.043  10.045   5.532  0.5394  2.5887  0.1051
22908SOL     OW71261   7.375   3.188   1.982  0.6449  0.8595 -0.1886
22908SOL    HW171262   7.347   3.153   1.898 -0.5268  2.1852 -0.3537
22908SOL    HW271263   7.448   3.246   1.961  0.8086  0.6460 -0.2118
22909SOL     OW71264   0.996   2.906   8.889 -0.2252  0.5391  0.2738
22909SOL    HW171265   0.969   2.950   8.969 -2.6167 -1.5485  0.6751
22909SOL    HW271266   1.015   2.816   8.915 -0.8153 -0.1084 -1.4271
22910SOL     OW71267   3.855   7.554   7.160  0.1939  0.2389  0.1621
22910SOL    HW171268   3.796   7.509   7.219 -0.2033  0.1391 -0.3103
22910SOL    HW271269   3.886   7.486   7.099 -0.2037  0.5498 -0.3873
22911SOL     OW71270   7.131   5.277   2.915 -0.0404  0.7292 -0.5837
22911SOL    HW171271   7.214   5.231   2.914  0.9130  2.4085 -0.4026
22911SOL    HW271272   7.130   5.327   2.833 -1.5775 -0.4824 -1.3360
22912SOL     OW71273   8.862   4.990   3.336 -1.4747  0.1112 -0.2823
22912SOL    HW171274   8.955   5.010   3.324 -0.4712 -2.5814  2.3084
22912SOL    HW271275   8.835   5.046   3.409 -0.7367 -2.0494  1.7130
22913SOL     OW71276   5.004   8.547   9.722  0.1088 -0.0603 -0.2698
22913SOL    HW171277   4.963   8.470   9.759 -1.2993  0.4191 -0.8166
22913SOL    HW271278   5.046   8.516   9.641 -0.0173 -0.3470 -0.2212
22914SOL     OW71279   4.345   1.145   9.568 -0.6334 -0.2638 -0.3040
22914SOL    HW171280   4.379   1.235   9.563 -0.9804  0.1221  3.0356
22914SOL    HW271281   4.257   1.151   9.533 -0.4314  0.5696 -0.6915
22915SOL     OW71282   0.752   4.962   3.376 -0.7759  0.0250 -0.2136
22915SOL    HW171283   0.738   5.032   3.440  1.1601  1.0796 -0.8908
22915SOL    HW271284   0.760   5.008   3.292 -1.3984 -1.1834 -0.9451
22916SOL     OW71285   8.371   9.573   0.623  0.7532 -0.2461 -0.1421
22916SOL    HW171286   8.427   9.571   0.700  0.4992  0.0264  0.0523
22916SOL    HW271287   8.290   9.529   0.650  1.1098 -1.2148 -0.6162
22917SOL     OW71288   8.055   5.123   5.731  0.1014  0.2239 -0.2702
22917SOL    HW171289   8.037   5.034   5.698 -0.7592  0.6349 -0.9370
22917SOL    HW271290   8.148   5.123   5.750  0.4315 -0.3207 -1.8448
22918SOL     OW71291   5.098   2.788   7.267 -0.2291  0.1343  0.5354
22918SOL    HW171292   5.192   2.785   7.248 -0.1261  1.4443  0.8038
22918SOL    HW271293   5.091   2.754   7.356  0.1733  1.5001  1.1000
22919SOL     OW71294   2.713   0.841   2.308  0.0076  0.3690 -0.0728
22919SOL    HW171295   2.771   0.799   2.244 -0.1346 -1.0094  0.6860
22919SOL    HW271296   2.626   0.807   2.288 -0.5697  2.4106 -1.1924
22920SOL     OW71297   8.249   8.260   2.941  0.1271 -0.1426 -0.1357
22920SOL    HW171298   8.212   8.348   2.947  0.2874  0.1312 -2.7890
22920SOL    HW271299   8.220   8.217   3.021 -1.3996  1.7809  0.3830
22921SOL     OW71300   2.392   8.523   8.184  0.0581  0.0763  0.1715
22921SOL    HW171301   2.381   8.616   8.167  0.3570  0.3570  1.4286
22921SOL    HW271302   2.438   8.490   8.107  1.0037  1.1993  0.2303
22922SOL     OW71303   1.802   2.437   6.199  0.1550  0.3642 -0.1725
22922SOL    HW171304   1.789   2.496   6.125 -1.3297 -0.7089 -0.7864
22922SOL    HW271305   1.854   2.365   6.163 -0.6840 -0.2262 -0.2193
22923SOL     OW71306   5.578   9.169   2.505 -0.2875 -1.1671 -0.5241
22923SOL    HW171307   5.517   9.116   2.454 -2.4837 -0.2919  1.0965
22923SOL    HW271308   5.531   9.187   2.587  0.5180  2.9563 -0.8771
22924SOL     OW71309   0.364   3.016   1.771 -0.1109  0.0653 -0.6891
22924SOL    HW171310   0.440   3.072   1.789 -0.2417  0.3933 -1.1339
22924SOL    HW271311   0.331   3.047   1.687 -0.4608 -0.3857 -0.7216
22925SOL     OW71312   4.395   1.527   2.329 -0.7839 -0.3579  0.4812
22925SOL    HW171313   4.343   1.564   2.400 -0.9585  0.2734  0.0349
22925SOL    HW271314   4.452   1.463   2.371 -0.1659  0.7421  1.3438
22926SOL     OW71315   2.061   6.531   5.488 -0.1081 -0.3411 -0.1180
22926SOL    HW171316   2.082   6.594   5.419  2.3374 -2.0473 -1.0286
22926SOL    HW271317   2.146   6.512   5.529 -1.5096  0.7181  3.4786
22927SOL     OW71318   5.591   0.710   1.525 -0.0175  0.1258  0.0901
22927SOL    HW171319   5.604   0.719   1.431  0.3320 -0.9957  0.0191
22927SOL    HW271320   5.570   0.798   1.556  2.0692  0.9135 -0.7003
22928SOL     OW71321   4.121   5.640   0.033  0.0705 -0.0761  0.2691
22928SOL    HW171322   4.158   5.553   0.041  0.1986 -0.3066 -2.3266
22928SOL    HW271323   4.088   5.661   0.120  2.9882 -1.3536  1.7388
22929SOL     OW71324  10.042   2.976   9.409 -0.3336  0.8516  0.5224
22929SOL    HW171325  10.137   2.967   9.417 -0.6070 -0.0836  2.8723
22929SOL    HW271326  10.011   2.887   9.394 -0.9940  0.9095  1.5252
22930SOL     OW71327   5.091   1.197   4.134 -0.0022 -0.0185  0.4216
22930SOL    HW171328   5.047   1.276   4.103 -1.6628 -0.4395  1.5954
22930SOL    HW271329   5.136   1.163   4.058 -2.2131  0.1437 -1.0115
22931SOL     OW71330   1.955   8.683   5.024 -0.0071  0.1495  0.2601
22931SOL    HW171331   1.999   8.618   5.079  1.0695  1.0525  0.4907
22931SOL    HW271332   2.005   8.681   4.942  0.7700  1.5248  0.6925
22932SOL     OW71333   9.163   6.456   3.989 -0.0047 -0.8429 -0.2516
22932SOL    HW171334   9.102   6.523   4.019  1.2717 -0.1386  0.8629
22932SOL    HW271335   9.109   6.390   3.946 -1.3189  0.6736 -0.9357
22933SOL     OW71336   1.819  10.155   9.680  0.0107  0.0507  0.0383
22933SOL    HW171337   1.824  10.086   9.746 -1.9997  0.3008  0.5019
22933SOL    HW271338   1.865  10.229   9.719 -0.5521 -0.0282  0.8634
22934SOL     OW71339   4.192   1.357   0.107  0.1509  0.0033 -0.1517
22934SOL    HW171340   4.122   1.293   0.100  1.1431 -0.9744 -1.4173
22934SOL    HW271341   4.165   1.429   0.050  0.3701 -0.5529 -0.9541
22935SOL     OW71342   4.585   8.145   7.624 -0.0505 -0.2804 -0.0548
22935SOL    HW171343   4.526   8.219   7.610 -0.3206  0.3385  3.7273
22935SOL    HW271344   4.667   8.171   7.582 -1.2647  0.5322 -1.9777
22936SOL     OW71345   9.455   6.924   7.772  0.1534 -0.0076  0.2053
22936SOL    HW171346   9.427   6.966   7.691  2.2647  1.6780  0.2909
22936SOL    HW271347   9.470   6.996   7.832  2.7093 -0.9375  0.7445
22937SOL     OW71348   4.498   6.161   4.928 -0.5424 -0.0912  0.3841
22937SOL    HW171349   4.430   6.141   4.992 -0.4200 -1.3754  0.1360
22937SOL    HW271350   4.555   6.084   4.929 -0.3746 -0.0111 -1.0417
22938SOL     OW71351   3.060   9.374   9.706 -0.0261  0.0212 -0.7165
22938SOL    HW171352   2.988   9.436   9.697 -0.5694 -0.1424  1.9604
22938SOL    HW271353   3.131   9.426   9.744  0.5004 -0.3465 -1.1964
22939SOL     OW71354   3.927   7.726   1.228  0.6601  0.3883 -0.2548
22939SOL    HW171355   3.842   7.741   1.187  1.2184  0.1053 -1.5735
22939SOL    HW271356   3.945   7.805   1.278 -0.7669  0.0877  0.7595
22940SOL     OW71357   4.984   2.646   0.664 -0.4416  0.3079  0.0760
22940SOL    HW171358   4.922   2.703   0.710 -0.2144  0.7741 -0.1868
22940SOL    HW271359   5.065   2.652   0.716  0.0434  1.4212 -0.7810
22941SOL     OW71360   2.692   3.334   7.210  0.5609  0.4968  0.2594
22941SOL    HW171361   2.599   3.319   7.226  0.3825 -0.0215 -1.1782
22941SOL    HW271362   2.729   3.351   7.297 -0.5491 -1.0992  1.0753
22942SOL     OW71363   5.902   8.012   3.672 -0.7603 -0.2048 -0.5188
22942SOL    HW171364   5.915   7.928   3.629 -1.3115 -0.5372 -0.0345
22942SOL    HW271365   5.980   8.063   3.649  0.1637 -1.2720  0.1955
22943SOL     OW71366   3.669   3.950   5.608  0.3403 -0.3896 -0.1730
22943SOL    HW171367   3.661   3.936   5.514 -0.7527 -1.5942  0.0750
22943SOL    HW271368   3.678   4.045   5.617 -0.8903 -0.1291 -1.4198
22944SOL     OW71369   4.440   2.387   3.398 -0.2891 -0.4523 -0.1363
22944SOL    HW171370   4.509   2.329   3.431  0.4492  0.4585 -0.0665
22944SOL    HW271371   4.429   2.362   3.307  1.9424  1.1054 -0.8695
22945SOL     OW71372   8.377   2.602   2.325  0.1088  0.2845  0.4262
22945SOL    HW171373   8.331   2.646   2.254 -1.9090  0.9165  2.0476
22945SOL    HW271374   8.368   2.508   2.305  0.5343  0.4890 -0.7237
22946SOL     OW71375   8.297   9.676   6.121  0.3784 -0.0513 -0.7378
22946SOL    HW171376   8.376   9.695   6.070  1.5913 -1.2654  0.6210
22946SOL    HW271377   8.278   9.584   6.103  1.6271 -0.8953  1.9856
22947SOL     OW71378   2.878   9.772   8.132 -0.2840 -0.0423  0.4284
22947SOL    HW171379   2.862   9.778   8.226 -0.2548  0.7742  0.3878
22947SOL    HW271380   2.970   9.748   8.125 -0.4259 -0.6376  0.6174
22948SOL     OW71381   2.667   9.376   4.805 -0.0392 -0.0590 -0.5748
22948SOL    HW171382   2.689   9.404   4.716  0.3991 -0.1891 -0.5134
22948SOL    HW271383   2.590   9.427   4.829 -1.0259 -1.0884 -1.5702
22949SOL     OW71384   0.747   6.317   4.489  0.4871 -0.4957 -0.7835
22949SOL    HW171385   0.707   6.243   4.533  0.2290  0.1383  0.0706
22949SOL    HW271386   0.801   6.278   4.421 -1.9455 -1.3486 -2.2885
22950SOL     OW71387   1.497   0.540   0.797  0.0416 -0.2610 -0.2341
22950SOL    HW171388   1.475   0.584   0.715 -3.9875 -0.6805  0.5325
22950SOL    HW271389   1.506   0.448   0.772  2.6553  0.1246 -0.8238
22951SOL     OW71390   9.328   0.729   8.989  0.3452 -0.4078 -0.3596
22951SOL    HW171391   9.362   0.660   8.931  0.2041 -1.0694  0.3419
22951SOL    HW271392   9.386   0.728   9.065 -1.9337 -2.4234  1.4495
22952SOL     OW71393   2.038   7.742   1.966  0.6087 -0.3124  0.1564
22952SOL    HW171394   2.035   7.700   2.052  0.4271  0.3623  0.4767
22952SOL    HW271395   1.994   7.680   1.908  0.1114 -0.4577  0.6794
22953SOL     OW71396   1.600   4.643   9.876  0.1909 -0.0105 -0.3248
22953SOL    HW171397   1.674   4.703   9.867  0.5659 -0.4779 -0.3285
22953SOL    HW271398   1.526   4.691   9.838  0.3085  0.7950  0.4442
22954SOL     OW71399   8.447   2.379   8.978 -0.4922 -0.2301  0.3601
22954SOL    HW171400   8.425   2.326   8.901  0.0873 -0.6830  0.4976
22954SOL    HW271401   8.379   2.358   9.041 -0.5088 -0.4899  0.2583
22955SOL     OW71402   4.166   0.396   7.344  0.4757 -0.3385 -0.2621
22955SOL    HW171403   4.150   0.314   7.389 -2.6649 -0.7171 -1.9509
22955SOL    HW271404   4.098   0.455   7.376  1.1907  0.8592 -0.9066
22956SOL     OW71405   9.423   0.283   5.740  0.0285  0.5534 -0.5655
22956SOL    HW171406   9.475   0.292   5.660  0.7922  0.2953 -0.1098
22956SOL    HW271407   9.459   0.205   5.783 -1.7118 -0.4844 -0.9556
22957SOL     OW71408   5.715   2.261   8.519 -0.4601  0.4045  0.1895
22957SOL    HW171409   5.643   2.265   8.456  0.4339 -0.1275 -0.8964
22957SOL    HW271410   5.674   2.234   8.601 -1.7109  1.5701 -0.0398
22958SOL     OW71411   2.224   6.783   9.981 -0.0926 -0.2807 -0.4923
22958SOL    HW171412   2.168   6.848  10.025 -1.4528  0.0088 -2.5696
22958SOL    HW271413   2.170   6.704   9.978  1.7036 -1.6771  2.3660
22959SOL     OW71414   4.967   1.154  10.037 -0.6873 -0.1493  0.3867
22959SOL    HW171415   4.962   1.058  10.041 -0.0039 -0.1554  1.2416
22959SOL    HW271416   5.059   1.174  10.054 -0.8878  0.6693  0.5297
22960SOL     OW71417   7.024   4.826   7.187  0.4310 -0.5346  0.4974
22960SOL    HW171418   7.002   4.864   7.272 -0.6089 -0.6610  0.2875
22960SOL    HW271419   6.943   4.831   7.136  0.7372 -1.5137 -0.1040
22961SOL     OW71420   7.413   7.949   0.410  0.5056 -0.4748 -0.4230
22961SOL    HW171421   7.447   8.010   0.475  0.2249 -0.0988 -0.6255
22961SOL    HW271422   7.452   7.864   0.433 -1.3801 -0.8270  1.6254
22962SOL     OW71423   6.074   7.736   4.374  0.1071  0.0772  0.8874
22962SOL    HW171424   6.089   7.801   4.306 -0.6090 -1.1939 -0.5062
22962SOL    HW271425   5.979   7.733   4.385  0.1434 -0.5692  1.0893
22963SOL     OW71426   3.554   7.951   7.502  0.1392 -0.4153 -0.1303
22963SOL    HW171427   3.603   7.889   7.449  1.1393  0.2614 -0.0092
22963SOL    HW271428   3.619   7.992   7.558 -0.4657  0.9272 -0.3889
22964SOL     OW71429   8.113   2.735   5.902 -0.6154 -0.0269 -0.5014
22964SOL    HW171430   8.161   2.669   5.952  0.8413  1.0473 -0.4372
22964SOL    HW271431   8.036   2.755   5.955  0.2839  0.2053  0.7491
22965SOL     OW71432   8.458   7.551   4.870  0.3168 -0.1827  0.4047
22965SOL    HW171433   8.459   7.499   4.950  0.0484 -1.4206 -0.3923
22965SOL    HW271434   8.550   7.554   4.842  0.3252 -0.2756  0.4215
22966SOL     OW71435   5.982   5.809   5.527  0.0189 -0.5755  0.8895
22966SOL    HW171436   6.075   5.789   5.514  0.4751  1.0245  1.5995
22966SOL    HW271437   5.939   5.772   5.450  1.5547  0.7280 -0.6429
22967SOL     OW71438   4.563   7.798   7.203  0.3220 -0.4316 -0.6595
22967SOL    HW171439   4.531   7.734   7.139 -0.1632 -0.3592 -0.4935
22967SOL    HW271440   4.523   7.881   7.175  1.1203 -0.1585 -1.0049
22968SOL     OW71441   8.966   7.633  10.137 -0.6503 -0.0385  0.4340
22968SOL    HW171442   8.955   7.717  10.183 -0.3208  1.1095 -1.5297
22968SOL    HW271443   8.878   7.609  10.110 -0.4204  1.0371 -1.3189
22969SOL     OW71444   0.369   9.245   8.211  0.0737  0.4875  0.0661
22969SOL    HW171445   0.366   9.160   8.257 -2.7410  0.7196  0.3702
22969SOL    HW271446   0.362   9.310   8.281  0.9543  0.9717 -0.2851
22970SOL     OW71447   1.160   8.106   6.867  0.3467 -0.1002  0.1218
22970SOL    HW171448   1.149   8.127   6.774  0.5424 -3.9180 -0.8400
22970SOL    HW271449   1.253   8.121   6.885  0.2554  0.8837 -0.2085
22971SOL     OW71450   1.640   3.958   0.348 -0.0782  0.0050 -0.4250
22971SOL    HW171451   1.568   3.896   0.334  0.3939 -0.5113 -0.5993
22971SOL    HW271452   1.691   3.920   0.419  0.7125 -0.2639 -1.1249
22972SOL     OW71453   0.652   2.904   1.063 -0.2579 -0.8707  0.2229
22972SOL    HW171454   0.635   2.942   1.149 -1.0366 -1.3230  0.2698
22972SOL    HW271455   0.568   2.868   1.035  0.3883 -2.2481  0.0176
22973SOL     OW71456   7.166   2.924   5.925  0.2828 -0.6400  0.2804
22973SOL    HW171457   7.120   2.854   5.972 -0.5685 -0.6649 -0.5703
22973SOL    HW271458   7.137   3.004   5.970  0.9162 -0.7905  0.9727
22974SOL     OW71459   0.446   2.063   7.995 -0.0172  0.5787 -0.1375
22974SOL    HW171460   0.460   1.970   8.014  0.0820  0.8447  1.1359
22974SOL    HW271461   0.354   2.068   7.968 -0.4253  0.3170  1.1766
22975SOL     OW71462   1.162   5.895   3.717 -0.6547  0.4049  0.5170
22975SOL    HW171463   1.207   5.956   3.659 -0.5245 -0.2087 -0.0324
22975SOL    HW271464   1.232   5.860   3.772 -0.2290 -1.5134 -1.1956
22976SOL     OW71465   6.157   6.394   8.146 -0.3376 -0.8286  0.2766
22976SOL    HW171466   6.098   6.435   8.209  0.4650  0.5096  0.1568
22976SOL    HW271467   6.159   6.455   8.072 -0.5292 -1.9328 -0.6549
22977SOL     OW71468   1.732   4.250   7.694 -0.5149  0.0749  0.1243
22977SOL    HW171469   1.748   4.194   7.770  0.6638 -0.6313 -0.6251
22977SOL    HW271470   1.641   4.231   7.670 -0.2415 -1.2753  0.0899
22978SOL     OW71471   0.226   7.809   3.587 -0.4241  0.3215 -0.4634
22978SOL    HW171472   0.185   7.733   3.627  0.1811  0.3716  0.2715
22978SOL    HW271473   0.268   7.775   3.507 -0.3521 -0.0705 -0.2597
22979SOL     OW71474   0.295   4.776   1.779  0.5006 -0.1489 -0.5143
22979SOL    HW171475   0.340   4.861   1.773  0.4836  0.0392  1.4364
22979SOL    HW271476   0.219   4.785   1.722  0.7563  0.9794 -0.7002
22980SOL     OW71477   3.328   4.858   4.238  0.4867  0.4974  0.2389
22980SOL    HW171478   3.300   4.785   4.184 -0.8221  0.0604  1.4804
22980SOL    HW271479   3.375   4.916   4.178  0.9991 -1.0522 -0.8835
22981SOL     OW71480   6.194   6.074   9.609  0.0023  0.2235 -0.2651
22981SOL    HW171481   6.264   6.140   9.612  0.1191  0.1378 -1.0691
22981SOL    HW271482   6.195   6.042   9.519  0.2113 -1.1812  0.2350
22982SOL     OW71483   2.646   9.243   4.096  0.0227 -0.0303 -0.3719
22982SOL    HW171484   2.556   9.274   4.088  0.8513  2.6425  0.2775
22982SOL    HW271485   2.694   9.289   4.027  1.2084 -0.1596  0.3490
22983SOL     OW71486   3.067   9.829   7.082  0.0922  0.3533 -0.2007
22983SOL    HW171487   3.151   9.786   7.068 -0.0227  0.6902 -1.9995
22983SOL    HW271488   3.005   9.758   7.096  0.5926  0.0938  0.7568
22984SOL     OW71489   0.342   1.704  10.020  0.2972 -0.1165 -0.2939
22984SOL    HW171490   0.382   1.640   9.961 -2.1048 -1.8176 -0.1240
22984SOL    HW271491   0.370   1.676  10.108  0.2078 -0.2485 -0.3065
22985SOL     OW71492   2.927   8.705   7.696 -0.3499 -0.2195 -0.0490
22985SOL    HW171493   2.840   8.668   7.711 -0.8378  0.1804 -1.7499
22985SOL    HW271494   2.965   8.714   7.784 -2.6932  1.1969  0.8746
22986SOL     OW71495   5.267   3.227   5.029  0.2148 -0.0508  0.5570
22986SOL    HW171496   5.282   3.152   5.086 -0.5195 -1.6035 -1.2619
22986SOL    HW271497   5.349   3.237   4.980 -0.5552 -1.2321 -0.9891
22987SOL     OW71498   6.964   7.510   8.898  0.1907  0.4011 -0.0490
22987SOL    HW171499   7.009   7.586   8.863 -0.9971  1.2756  0.2915
22987SOL    HW271500   7.032   7.461   8.945  1.0471  1.0300 -0.6298
22988SOL     OW71501  10.111   7.148  10.149  0.4154 -0.2650 -0.1190
22988SOL    HW171502  10.078   7.082  10.210  0.4446 -0.1521  0.0203
22988SOL    HW271503  10.045   7.152  10.080  0.5813 -0.6816 -0.3041
22989SOL     OW71504   9.194  10.123   3.151  0.3346 -0.1088  0.2601
22989SOL    HW171505   9.142  10.077   3.085  1.2230 -1.4415  0.4746
22989SOL    HW271506   9.258  10.174   3.101 -0.1730  0.3235  0.0477
22990SOL     OW71507   5.727   3.126   6.899  0.2046 -0.3791 -0.3501
22990SOL    HW171508   5.644   3.086   6.925  0.1039 -0.2510 -0.4757
22990SOL    HW271509   5.779   3.126   6.979  0.7634 -2.1264 -0.6986
22991SOL     OW71510   9.974   0.435   5.374  0.3539 -0.2231  0.2580
22991SOL    HW171511  10.012   0.348   5.387  0.0954 -0.4822 -0.6437
22991SOL    HW271512   9.972   0.474   5.461 -0.0216 -1.3255  0.7570
22992SOL     OW71513   4.627   9.339  10.200  0.6979 -0.1424  0.0879
22992SOL    HW171514   4.675   9.308  10.123  0.2409 -0.7116  0.0305
22992SOL    HW271515   4.651   9.277  10.270  0.5466 -0.0527  0.2202
22993SOL     OW71516   0.281   6.531   9.428 -0.0379  0.3237  0.0062
22993SOL    HW171517   0.286   6.545   9.522  0.0044 -2.4187  0.4738
22993SOL    HW271518   0.371   6.539   9.396  0.0946  0.2595  0.3694
22994SOL     OW71519   8.487   8.375   0.996  0.2555 -0.3331  0.1155
22994SOL    HW171520   8.396   8.396   1.014  0.7567  2.6682 -0.5296
22994SOL    HW271521   8.534   8.405   1.075  0.9253  0.4217 -0.5566
22995SOL     OW71522   2.650   9.234   4.440  0.2494 -0.0617 -0.0349
22995SOL    HW171523   2.683   9.175   4.508  2.1393 -0.3075 -1.1438
22995SOL    HW271524   2.676   9.322   4.470 -0.5760  0.0216  0.4742
22996SOL     OW71525   5.262   1.799   8.279  0.3825  0.4885 -0.4427
22996SOL    HW171526   5.343   1.753   8.257  0.2260  0.5104 -1.0699
22996SOL    HW271527   5.200   1.729   8.301  0.1819  0.4107 -1.2669
22997SOL     OW71528   3.607   6.921   2.059 -0.0144 -0.5361 -0.6234
22997SOL    HW171529   3.516   6.947   2.040 -0.1735  0.1269  1.0100
22997SOL    HW271530   3.612   6.918   2.154  1.4290 -1.5138 -0.7243
22998SOL     OW71531   4.326   5.700   2.872  0.4465  0.2736  0.4244
22998SOL    HW171532   4.301   5.610   2.893  1.6949 -0.2521 -0.3067
22998SOL    HW271533   4.283   5.719   2.788 -0.6065  0.7082  1.0490
22999SOL     OW71534   1.871   9.423   4.637  0.1882  0.2993 -0.1393
22999SOL    HW171535   1.840   9.492   4.578  0.0461 -1.0990 -1.7287
22999SOL    HW271536   1.889   9.468   4.720  0.2780  2.2668 -1.2168
23000SOL     OW71537   1.432   3.859   3.913  0.2835  0.3680  0.6249
23000SOL    HW171538   1.480   3.936   3.885  0.6416  0.2395  0.8733
23000SOL    HW271539   1.497   3.789   3.913 -0.0329  0.0721  0.4196
23001SOL     OW71540   8.422   4.674   7.288 -0.1518  0.0552  0.4816
23001SOL    HW171541   8.483   4.604   7.311  1.0205  1.3511  1.3735
23001SOL    HW271542   8.477   4.742   7.249 -1.1636  0.8513  0.4076
23002SOL     OW71543   2.810   5.340   4.051  0.1127 -0.8415 -0.2220
23002SOL    HW171544   2.873   5.268   4.042  0.8651 -0.1558 -0.4763
23002SOL    HW271545   2.725   5.297   4.051  0.4588 -1.5986 -2.3082
23003SOL     OW71546   0.565   6.094   4.958  0.1186 -0.1588  0.2123
23003SOL    HW171547   0.510   6.140   4.895 -1.1658 -2.2928 -0.2693
23003SOL    HW271548   0.594   6.016   4.912  0.8460 -0.7179  1.5858
23004SOL     OW71549   2.475   3.468   4.673  0.3098  0.5993  0.1428
23004SOL    HW171550   2.469   3.380   4.638  2.7120  0.6106 -0.4097
23004SOL    HW271551   2.459   3.525   4.598 -3.1124  0.6741  0.8801
23005SOL     OW71552   9.183   7.906  10.029 -0.1791  0.1291  0.0084
23005SOL    HW171553   9.243   7.974  10.000 -0.1074  1.3353  2.8241
23005SOL    HW271554   9.234   7.825  10.024  1.0899  0.8781  0.6245
23006SOL     OW71555   5.290   4.752   1.232  0.2946 -0.0168 -0.2613
23006SOL    HW171556   5.362   4.690   1.222  1.1703  0.6550  1.5621
23006SOL    HW271557   5.213   4.697   1.245  0.5739 -0.7319 -1.5605
23007SOL     OW71558   5.275   9.339   8.742  0.5172  0.0440 -0.7758
23007SOL    HW171559   5.293   9.363   8.651 -1.5352 -0.2773 -1.3035
23007SOL    HW271560   5.214   9.265   8.736 -0.2375  0.5015  0.8576
23008SOL     OW71561   5.942   5.247   0.093  0.2790  0.1375  0.0821
23008SOL    HW171562   5.893   5.189   0.151 -1.8342  1.4638 -0.3287
23008SOL    HW271563   5.930   5.334   0.132 -1.8222  1.1749 -2.7146
23009SOL     OW71564   7.471   1.622   1.830 -0.3422  0.7757  0.1047
23009SOL    HW171565   7.408   1.679   1.874 -0.6465 -0.2223  0.9665
23009SOL    HW271566   7.482   1.548   1.889 -0.5991 -0.4869 -1.3930
23010SOL     OW71567   6.712   1.313   9.689  0.1187 -0.1161  0.3476
23010SOL    HW171568   6.722   1.309   9.784  3.1331 -3.2459  0.0039
23010SOL    HW271569   6.795   1.348   9.657 -0.8851  0.9554 -1.1666
23011SOL     OW71570   5.789   3.398   1.029  0.0292 -0.3270 -0.2641
23011SOL    HW171571   5.809   3.372   0.939  0.2191 -2.2418  0.3043
23011SOL    HW271572   5.693   3.396   1.034 -0.0054  0.4031 -0.5928
23012SOL     OW71573   2.691   4.303   8.738  0.2267 -0.0316 -0.1380
23012SOL    HW171574   2.728   4.287   8.651 -1.4570 -1.3343 -0.6510
23012SOL    HW271575   2.711   4.224   8.788  1.6410  0.9304  0.8410
23013SOL     OW71576   0.991   2.512   0.720  0.0272 -0.6562  0.3360
23013SOL    HW171577   1.000   2.492   0.813  0.2277  0.5748  0.5959
23013SOL    HW271578   1.028   2.600   0.711 -0.6806 -0.4601 -0.7733
23014SOL     OW71579   1.294   7.451   0.892  0.2503  0.3432 -0.2336
23014SOL    HW171580   1.357   7.500   0.840  2.3094 -1.1027  0.8474
23014SOL    HW271581   1.241   7.403   0.828  0.0821  1.7471 -1.1546
23015SOL     OW71582   0.034   2.997   8.575  0.5359  0.3572  0.3064
23015SOL    HW171583  -0.004   3.056   8.510 -0.8042  0.9811  1.6212
23015SOL    HW271584   0.050   2.915   8.527 -1.4318  0.4592 -0.5608
23016SOL     OW71585   0.757   7.447   8.733 -0.3161  0.6987  0.1245
23016SOL    HW171586   0.735   7.516   8.670 -2.0979  0.6687  0.6670
23016SOL    HW271587   0.799   7.493   8.805 -1.4727  1.2386  0.4695
23017SOL     OW71588   6.618   7.142   4.322 -0.4892  0.1194 -0.4849
23017SOL    HW171589   6.541   7.169   4.272 -0.4315 -2.3158 -1.9965
23017SOL    HW271590   6.590   7.063   4.368  0.5993  0.1914  0.3283
23018SOL     OW71591   1.750   2.335   1.668  0.5751 -0.3700  0.1211
23018SOL    HW171592   1.769   2.415   1.619 -1.0165  0.3774  0.6902
23018SOL    HW271593   1.668   2.303   1.631  1.9089 -2.5332 -1.0622
23019SOL     OW71594   2.702   7.743   3.870 -0.1404  0.1446 -0.1487
23019SOL    HW171595   2.663   7.691   3.940 -2.5908 -0.6159 -1.9935
23019SOL    HW271596   2.742   7.678   3.812 -0.3520  0.5708 -0.7757
23020SOL     OW71597   1.740   1.584  10.089  0.7180 -0.2753  0.0106
23020SOL    HW171598   1.784   1.518  10.036  1.2156  0.0290  0.0476
23020SOL    HW271599   1.702   1.644  10.025  2.5972  0.9394  0.0003
23021SOL     OW71600   7.200   7.158   9.550  0.5078  0.2159 -0.6155
23021SOL    HW171601   7.157   7.112   9.478 -0.0484  0.9310 -0.7362
23021SOL    HW271602   7.146   7.236   9.565  1.9865  1.3486 -1.0634
23022SOL     OW71603   7.912   9.274   5.152  0.1141 -0.0857 -0.2743
23022SOL    HW171604   8.005   9.294   5.153 -0.1416  1.1481  0.9110
23022SOL    HW271605   7.907   9.179   5.163  1.1869  0.0644  1.8076
23023SOL     OW71606   8.824   2.366   2.533 -0.4870 -0.1429  0.3111
23023SOL    HW171607   8.745   2.312   2.539 -0.5787  0.2198  2.5893
23023SOL    HW271608   8.791   2.453   2.511 -0.8083  0.2219  2.2130
23024SOL     OW71609   0.019   9.503   2.015 -0.2880  0.0116  0.2309
23024SOL    HW171610   0.002   9.560   2.090 -1.7121 -0.3168  0.1804
23024SOL    HW271611   0.043   9.564   1.945 -1.2149  0.5233  0.3389
23025SOL     OW71612   2.650   9.965   8.416 -0.1696 -0.4654 -0.9517
23025SOL    HW171613   2.613  10.003   8.337 -0.9091  1.8165  0.4588
23025SOL    HW271614   2.590   9.893   8.437 -1.6615  0.7729 -0.8501
23026SOL     OW71615   6.459   5.842   9.776 -0.1829  0.2153 -0.1516
23026SOL    HW171616   6.477   5.874   9.864  0.1518 -0.1267 -0.0946
23026SOL    HW271617   6.423   5.917   9.730 -0.1503  0.4552  0.2134
23027SOL     OW71618   1.496   5.834   2.799 -0.7416  0.2667 -0.1855
23027SOL    HW171619   1.511   5.748   2.837  1.2128  0.8868  0.5015
23027SOL    HW271620   1.508   5.821   2.705 -1.8002 -0.4694 -0.2316
23028SOL     OW71621   3.139   7.282   2.262  0.1297 -0.2532 -0.1245
23028SOL    HW171622   3.073   7.337   2.302  1.7388  1.3619  0.3882
23028SOL    HW271623   3.161   7.217   2.329 -2.3842 -2.0989 -1.0352
23029SOL     OW71624   0.138   7.374   9.199  0.8480  0.2048  1.0142
23029SOL    HW171625   0.062   7.363   9.141  0.3613  0.1309  1.6487
23029SOL    HW271626   0.165   7.465   9.188  0.6561  0.2352  0.7946
23030SOL     OW71627   8.038   2.260   6.538  0.6569  0.1145 -0.3221
23030SOL    HW171628   7.948   2.237   6.559  1.4620 -0.6918  2.4845
23030SOL    HW271629   8.057   2.211   6.458 -0.6607 -1.5530  0.3422
23031SOL     OW71630   9.178   2.245   4.220  0.4501  0.0212 -0.1288
23031SOL    HW171631   9.099   2.232   4.168  0.1177 -1.7276  0.7715
23031SOL    HW271632   9.229   2.165   4.207 -0.1415 -0.9445  3.0732
23032SOL     OW71633   6.269   5.443   0.266  0.6552 -0.5120  0.1507
23032SOL    HW171634   6.363   5.441   0.285  0.3299 -0.3780  1.8397
23032SOL    HW271635   6.251   5.533   0.240  0.5070  0.2002  2.5644
23033SOL     OW71636   3.541   2.014   7.577  0.0789 -0.9855  0.9359
23033SOL    HW171637   3.597   2.009   7.499 -0.6940 -0.4917  0.3363
23033SOL    HW271638   3.596   2.055   7.643 -1.4450  5.6187 -1.4931
23034SOL     OW71639  10.179   6.610   3.314 -0.7589 -0.0715  0.8216
23034SOL    HW171640  10.178   6.543   3.383 -0.2436 -2.3413 -1.3092
23034SOL    HW271641  10.139   6.567   3.239  0.3876  1.7479 -0.8620
23035SOL     OW71642   0.950   6.212   7.829 -0.0594  0.5882  0.0205
23035SOL    HW171643   0.889   6.142   7.854  1.0280 -0.2182  0.4909
23035SOL    HW271644   0.967   6.197   7.736  1.5296 -0.8583  0.5271
23036SOL     OW71645   8.525   0.880   0.218 -0.1720  0.0129 -0.3890
23036SOL    HW171646   8.501   0.887   0.310  0.3432 -1.8038 -0.0951
23036SOL    HW271647   8.444   0.901   0.170 -1.0756 -1.2850  0.5216
23037SOL     OW71648   6.383   9.757   2.239  0.4726  0.3322  0.5155
23037SOL    HW171649   6.337   9.676   2.260  2.0663 -0.3022  1.6625
23037SOL    HW271650   6.327   9.801   2.176 -0.4866 -1.5937  0.0007
23038SOL     OW71651   9.906   2.552   7.819 -0.0922  0.5234 -0.4419
23038SOL    HW171652   9.871   2.480   7.871  0.6030 -0.3842 -1.2146
23038SOL    HW271653   9.927   2.620   7.884 -1.7709  0.4768  0.1740
23039SOL     OW71654   4.976   5.024   0.659  0.1200  0.1796  0.1324
23039SOL    HW171655   5.010   5.110   0.636 -1.2778  0.3369 -1.4515
23039SOL    HW271656   4.943   5.033   0.749  0.5634  1.1155  0.1985
23040SOL     OW71657   8.593   8.670   7.740 -0.2659  0.0613 -0.3009
23040SOL    HW171658   8.550   8.626   7.814 -1.2347 -1.2848 -1.6465
23040SOL    HW271659   8.593   8.763   7.765 -2.3011 -0.1254  0.5625
23041SOL     OW71660   2.319   7.798   6.663  0.1634  0.0312  0.2916
23041SOL    HW171661   2.401   7.835   6.631  1.0715 -1.6281  0.6644
23041SOL    HW271662   2.302   7.845   6.745 -0.0968  1.4739 -0.5729
23042SOL     OW71663   4.205   9.146   1.841 -0.2626 -0.3932  0.1577
23042SOL    HW171664   4.245   9.230   1.861 -0.7673 -0.1788  0.2614
23042SOL    HW271665   4.148   9.128   1.915  0.0171 -0.9380  0.2462
23043SOL     OW71666   2.467   1.588   3.204  0.3046  0.4487 -0.4222
23043SOL    HW171667   2.485   1.519   3.140  1.1512 -0.6333  0.9613
23043SOL    HW271668   2.546   1.641   3.206  0.2105  0.5895 -0.3912
23044SOL     OW71669   8.730   8.608   7.498  0.6245 -1.0863 -0.5835
23044SOL    HW171670   8.772   8.527   7.528 -0.5187 -1.9407 -1.2460
23044SOL    HW271671   8.661   8.625   7.562  0.1851 -1.2234 -1.0141
23045SOL     OW71672   7.844   0.479   2.444  0.2439 -0.8234 -0.3685
23045SOL    HW171673   7.916   0.533   2.478  0.0667 -0.8677  0.0892
23045SOL    HW271674   7.765   0.519   2.481  0.1023 -1.3212 -0.1311
23046SOL     OW71675   3.807   7.208   6.511  0.5461 -0.1193  0.6559
23046SOL    HW171676   3.863   7.142   6.470  0.7220  1.2862 -1.4132
23046SOL    HW271677   3.867   7.278   6.536 -0.0059  0.4707  0.3251
23047SOL     OW71678   7.603   2.330   5.210  0.3996  0.1678  0.3575
23047SOL    HW171679   7.643   2.403   5.256 -0.2463  0.3212  0.6696
23047SOL    HW271680   7.531   2.368   5.161 -0.8676 -0.4833  1.6906
23048SOL     OW71681   9.594   9.753   4.134 -0.7292 -0.0287  0.0851
23048SOL    HW171682   9.595   9.839   4.175 -0.5642  0.5453 -1.1036
23048SOL    HW271683   9.666   9.755   4.071 -1.1671 -0.7704 -0.4575
23049SOL     OW71684   1.635   5.279   0.143 -0.0417  0.3964 -0.2426
23049SOL    HW171685   1.653   5.187   0.166  0.1041  0.4452 -0.1561
23049SOL    HW271686   1.624   5.278   0.048 -0.5138  0.2122 -0.1849
23050SOL     OW71687   9.868   9.173   3.732 -0.3512  0.3890  0.4016
23050SOL    HW171688   9.922   9.173   3.811 -1.1823  1.0952  0.9792
23050SOL    HW271689   9.866   9.264   3.704 -0.4852  0.2229 -0.1422
23051SOL     OW71690   4.259   7.930   2.812 -0.1464 -0.1025  0.1322
23051SOL    HW171691   4.216   7.894   2.889 -2.1889  1.3746 -0.2804
23051SOL    HW271692   4.255   7.860   2.747 -1.4198 -0.2144  0.3104
23052SOL     OW71693   5.419   8.632   1.738  0.0502 -0.2619 -1.2682
23052SOL    HW171694   5.508   8.600   1.724  0.6952  0.9033  0.0510
23052SOL    HW271695   5.415   8.713   1.688 -0.4425 -0.5805 -1.7448
23053SOL     OW71696   5.439   0.097   5.510 -0.5092 -0.1584  0.0401
23053SOL    HW171697   5.506   0.030   5.495 -2.0096 -1.7517  0.2350
23053SOL    HW271698   5.419   0.130   5.422  1.0163  0.8428  0.0483
23054SOL     OW71699   2.613   7.016  10.193 -0.1719  0.3978  0.1513
23054SOL    HW171700   2.613   6.980  10.104 -0.4988  0.4871  0.1151
23054SOL    HW271701   2.656   7.101  10.185  0.5048  0.0704  0.2171
23055SOL     OW71702   5.837   0.737   5.824 -0.3628  0.4902  0.4159
23055SOL    HW171703   5.852   0.649   5.791 -0.8597  0.0160  1.4374
23055SOL    HW271704   5.888   0.743   5.904 -2.7665  0.0334  2.0485
23056SOL     OW71705   2.655   1.751   4.512 -0.7302 -0.0734  0.0168
23056SOL    HW171706   2.721   1.811   4.547  0.2246 -2.3782  2.3376
23056SOL    HW271707   2.695   1.716   4.432  0.4172 -0.5984  0.8030
23057SOL     OW71708   8.244   0.115   5.736 -0.9939 -0.0222  0.1620
23057SOL    HW171709   8.299   0.173   5.683  2.3245 -1.3017  2.0474
23057SOL    HW271710   8.248   0.152   5.824  0.5003 -2.5987  1.2180
23058SOL     OW71711   9.904   6.341   2.789 -0.3603 -0.3488  0.0694
23058SOL    HW171712   9.957   6.305   2.860  1.0695 -0.0168 -0.8201
23058SOL    HW271713   9.933   6.295   2.711 -0.6006  0.6114 -0.6034
23059SOL     OW71714   5.257   8.452   5.176  0.0080  0.0781  0.1449
23059SOL    HW171715   5.257   8.357   5.176  1.3756  0.0671  0.4657
23059SOL    HW271716   5.348   8.476   5.164 -0.3457  1.3507 -0.0717
23060SOL     OW71717   8.087   9.544   5.091 -0.0747 -0.3641 -0.3554
23060SOL    HW171718   8.031   9.552   5.014 -2.2470 -1.5970  1.0406
23060SOL    HW271719   8.176   9.555   5.057 -1.0993  1.2940 -2.6857
23061SOL     OW71720   4.235   8.938   5.870  0.0866  0.3423 -0.0252
23061SOL    HW171721   4.282   8.954   5.788 -0.6012 -0.0044 -0.4943
23061SOL    HW271722   4.245   8.844   5.886  0.0005  0.3623  0.1518
23062SOL     OW71723   1.935   8.362   8.739  0.0430 -0.2661  0.3100
23062SOL    HW171724   1.997   8.423   8.700 -0.4240 -0.5318 -0.8824
23062SOL    HW271725   1.849   8.402   8.724 -0.2453 -1.0929 -0.2711
23063SOL     OW71726   1.834   2.080   3.540 -0.2403 -0.0321  0.5792
23063SOL    HW171727   1.815   2.014   3.474 -2.3735  0.0099  1.1215
23063SOL    HW271728   1.776   2.153   3.519 -0.2855  0.3506  1.9565
23064SOL     OW71729   9.422   5.815   4.025 -0.2824  0.0873 -0.1664
23064SOL    HW171730   9.461   5.887   3.975 -1.7542  1.0777  0.0782
23064SOL    HW271731   9.494   5.754   4.040  1.1131  1.7512  0.0532
23065SOL     OW71732   7.851   2.465   7.918 -0.2661 -0.0518 -0.8710
23065SOL    HW171733   7.817   2.418   7.841 -1.4102 -2.9910  1.3405
23065SOL    HW271734   7.946   2.460   7.909 -0.3881 -0.6805 -1.9128
23066SOL     OW71735   7.456   3.298   7.177 -0.1273 -0.0106 -0.5050
23066SOL    HW171736   7.532   3.317   7.232  0.9320 -0.3391 -1.8291
23066SOL    HW271737   7.419   3.217   7.214  0.6723 -0.3187 -0.3752
23067SOL     OW71738   2.926  10.189   2.671  0.3088 -0.1279  0.3239
23067SOL    HW171739   2.954  10.280   2.665 -0.4819  0.1027  0.0302
23067SOL    HW271740   2.999  10.144   2.712  1.3585  0.3387 -0.9914
23068SOL     OW71741   5.098   4.411   3.046  0.0327 -0.0124  0.0323
23068SOL    HW171742   5.026   4.474   3.046  0.3475  0.3581 -0.8733
23068SOL    HW271743   5.177   4.464   3.051  0.2620 -0.3860  0.3866
23069SOL     OW71744   9.876   5.661   5.166  0.2593  0.4339  0.7986
23069SOL    HW171745   9.959   5.695   5.133  0.5550  0.6169  1.7089
23069SOL    HW271746   9.886   5.566   5.161  0.5153  0.4553  0.8713
23070SOL     OW71747  10.052   2.878   9.904  0.3903  0.1853 -0.1082
23070SOL    HW171748   9.999   2.843   9.832 -0.1854 -0.9084  0.8205
23070SOL    HW271749   9.991   2.933   9.954  0.0676 -1.1693  1.0289
23071SOL     OW71750   8.515   7.127   5.456  0.2542  0.2207 -0.3356
23071SOL    HW171751   8.484   7.218   5.458 -0.0225  0.1191  0.2372
23071SOL    HW271752   8.453   7.080   5.512 -0.3988 -0.5825 -1.7154
23072SOL     OW71753   5.805   8.402   6.443  0.0961  0.3861  0.5066
23072SOL    HW171754   5.792   8.325   6.387  1.4885 -0.4452  1.2899
23072SOL    HW271755   5.723   8.409   6.493 -0.7312  0.4857 -0.8404
23073SOL     OW71756   0.488   3.924   8.065 -0.3766  0.0424  0.6128
23073SOL    HW171757   0.563   3.922   8.006  0.6743  0.0936  1.9381
23073SOL    HW271758   0.416   3.891   8.012  0.4230  0.6179 -0.8760
23074SOL     OW71759   2.963   7.119   3.484 -0.7323  1.0515 -0.5696
23074SOL    HW171760   2.968   7.050   3.417  1.3296  1.3901 -0.7807
23074SOL    HW271761   3.039   7.174   3.468 -0.2780  1.2257  1.9716
23075SOL     OW71762   1.267   8.558   8.329 -0.2469 -0.5402 -0.3950
23075SOL    HW171763   1.248   8.506   8.251 -0.2230  0.1504 -0.8599
23075SOL    HW271764   1.347   8.519   8.365 -0.4426 -1.0685 -0.5243
23076SOL     OW71765   4.988   7.085   0.963 -0.0279  0.3713  0.6098
23076SOL    HW171766   5.031   7.024   0.903  1.7408  0.0731  2.1260
23076SOL    HW271767   4.949   7.029   1.030 -0.2195  0.7888  0.8501
23077SOL     OW71768   7.016   0.738   1.740  0.4943  0.1417 -0.0401
23077SOL    HW171769   7.107   0.739   1.713  0.6640 -1.5428  0.4169
23077SOL    HW271770   7.017   0.703   1.829 -0.6272 -0.4176 -0.2287
23078SOL     OW71771   8.540   6.166   9.064 -0.2293 -0.1796 -0.1013
23078SOL    HW171772   8.589   6.091   9.030  0.5154  0.2121  0.1041
23078SOL    HW271773   8.464   6.127   9.107 -0.4193 -0.7599 -0.9420
23079SOL     OW71774   8.627  10.019   8.915 -0.2161 -0.0420 -0.0404
23079SOL    HW171775   8.681  10.093   8.943 -0.2895  0.2481 -0.6516
23079SOL    HW271776   8.595  10.044   8.828  0.0980 -0.9642 -0.4365
23080SOL     OW71777   2.396   6.470   3.408  0.1529  0.2875 -0.1385
23080SOL    HW171778   2.487   6.443   3.397  0.3830  1.0460 -0.0882
23080SOL    HW271779   2.400   6.550   3.461 -0.6023 -0.2823  0.8233
23081SOL     OW71780   1.071   8.785   6.132 -0.5445  0.0733 -0.0333
23081SOL    HW171781   1.104   8.718   6.192 -2.7907 -1.3030 -0.2673
23081SOL    HW271782   1.051   8.860   6.188 -0.8307 -0.5253  0.6761
23082SOL     OW71783   9.654   3.230   3.015  0.0726  0.1237  0.6920
23082SOL    HW171784   9.679   3.179   3.092 -3.8284  0.7121  2.5176
23082SOL    HW271785   9.603   3.303   3.051 -1.1465  0.8908 -2.4169
23083SOL     OW71786   4.005   8.272   4.867 -0.3978  0.2374 -0.3531
23083SOL    HW171787   4.005   8.323   4.787 -1.2020  0.4538 -0.2172
23083SOL    HW271788   3.928   8.216   4.860 -0.3752  0.1329  0.1881
23084SOL     OW71789   4.015   1.600   2.277 -0.1729 -0.2389  0.2246
23084SOL    HW171790   4.075   1.674   2.275 -0.4830  0.0225  0.5097
23084SOL    HW271791   4.044   1.543   2.206  1.7175 -1.1414  1.6900
23085SOL     OW71792   7.916   2.262   0.815 -0.0602 -0.4725 -0.0710
23085SOL    HW171793   7.864   2.281   0.893 -1.9386 -0.5778 -1.2639
23085SOL    HW271794   7.943   2.171   0.826 -1.2336 -0.8219 -0.0481
23086SOL     OW71795   4.556   2.931   2.676 -0.5985 -0.2334 -0.7509
23086SOL    HW171796   4.462   2.940   2.667 -0.5106  0.6346 -0.8046
23086SOL    HW271797   4.571   2.922   2.770 -0.3741  3.9241 -0.3301
23087SOL     OW71798   1.556   0.259   2.456  0.2499  0.1883 -0.2276
23087SOL    HW171799   1.604   0.219   2.528  1.1779 -1.3060 -1.6279
23087SOL    HW271800   1.473   0.211   2.453 -0.0185  0.6226  0.1851
23088SOL     OW71801   7.683   1.693   0.239 -0.9564  0.8011  0.0323
23088SOL    HW171802   7.595   1.667   0.210 -1.5872  2.1970  0.6546
23088SOL    HW271803   7.687   1.668   0.331 -0.3868 -0.0321 -0.2149
23089SOL     OW71804   7.962   1.272   9.793  0.2115  0.4300  0.1467
23089SOL    HW171805   8.032   1.255   9.730  0.8439  0.3059  0.8762
23089SOL    HW271806   7.961   1.196   9.850 -0.0145  0.7662  0.6006
23090SOL     OW71807   4.185   3.683   0.966 -0.0926 -0.4461 -0.2118
23090SOL    HW171808   4.214   3.767   0.930 -0.8691  0.0822  0.3646
23090SOL    HW271809   4.162   3.703   1.057 -0.1579 -1.3091 -0.0365
23091SOL     OW71810   8.240   3.457   3.888 -0.7419  0.2660 -0.0739
23091SOL    HW171811   8.273   3.368   3.882  0.1207  0.5297  0.6837
23091SOL    HW271812   8.179   3.455   3.962  0.6962  0.7263  1.1529
23092SOL     OW71813   6.937   1.671   2.305  0.1402  0.8582  0.2725
23092SOL    HW171814   6.942   1.762   2.276  2.8495 -0.0258 -2.2676
23092SOL    HW271815   6.984   1.622   2.238  0.0098 -2.2528  2.3645
23093SOL     OW71816   3.694   8.803   5.792 -0.1483  0.3519  0.7072
23093SOL    HW171817   3.683   8.881   5.737 -0.7689  0.1152  0.4858
23093SOL    HW271818   3.634   8.739   5.755  3.0730 -1.5337 -1.4545
23094SOL     OW71819   1.782   4.290   6.039  0.7310 -0.2510  0.4593
23094SOL    HW171820   1.836   4.210   6.039  1.3808  0.1838  0.4844
23094SOL    HW271821   1.711   4.270   6.099  1.3391 -0.5187  1.1041
23095SOL     OW71822   4.721   4.668   1.346  0.4807  0.0206  0.1301
23095SOL    HW171823   4.748   4.593   1.400 -0.0848 -0.1855  0.1253
23095SOL    HW271824   4.640   4.698   1.387  0.0157 -0.1747 -0.6515
23096SOL     OW71825   0.290   7.073   2.652 -0.3581  0.0258  0.4006
23096SOL    HW171826   0.250   7.042   2.570  0.7634 -0.0594 -0.1352
23096SOL    HW271827   0.379   7.099   2.626  0.4941 -1.3519  1.8490
23097SOL     OW71828   2.223   8.105   6.617 -0.2944  0.1868  0.6579
23097SOL    HW171829   2.136   8.138   6.596 -0.5411 -0.1218  1.1696
23097SOL    HW271830   2.283   8.156   6.563 -0.9131 -0.6692 -0.8607
23098SOL     OW71831   5.608   8.138   5.979 -0.4452  0.1680 -0.0435
23098SOL    HW171832   5.643   8.064   5.930 -0.0605 -0.4715  1.1772
23098SOL    HW271833   5.526   8.106   6.016 -0.8291  0.7063 -0.4187
23099SOL     OW71834   9.842   0.952   6.341 -0.4652  0.3493 -0.8493
23099SOL    HW171835   9.890   0.937   6.259 -0.2637  3.3207 -1.3228
23099SOL    HW271836   9.750   0.956   6.314 -0.5029  0.1850 -0.7474
23100SOL     OW71837   6.448   8.166   1.763 -0.1369  0.5319  0.1087
23100SOL    HW171838   6.410   8.177   1.850  2.6072  2.6329  1.0823
23100SOL    HW271839   6.488   8.079   1.765  0.3601  0.7835  1.1296
23101SOL     OW71840   2.510   4.066   4.732  0.6631  0.4946 -0.1239
23101SOL    HW171841   2.431   4.012   4.737  1.3321 -0.4702  0.1641
23101SOL    HW271842   2.509   4.116   4.813  0.3957  0.4057 -0.0703
23102SOL     OW71843   0.045   2.736   0.338  0.0656 -0.6008 -0.5271
23102SOL    HW171844   0.128   2.734   0.292  0.1302 -1.7730 -0.3626
23102SOL    HW271845  -0.018   2.768   0.274  0.9221  1.9381 -0.1829
23103SOL     OW71846   7.988   3.892   2.956 -0.0400  0.0798  0.3832
23103SOL    HW171847   7.913   3.852   2.912  0.6299  0.6295 -1.3059
23103SOL    HW271848   8.064   3.860   2.907  0.6470  1.7110  0.3572
23104SOL     OW71849   1.107   3.966   2.330  0.0704 -0.6479 -0.2699
23104SOL    HW171850   1.124   4.051   2.289 -0.8868 -0.9456 -1.3085
23104SOL    HW271851   1.012   3.956   2.326 -0.0310 -0.8153  1.7966
23105SOL     OW71852   5.132   9.431   1.532  0.3114  0.7171 -0.4684
23105SOL    HW171853   5.219   9.396   1.510  0.7985  1.7360 -0.1870
23105SOL    HW271854   5.091   9.447   1.447  0.4359  0.3210 -0.6039
23106SOL     OW71855   1.977   2.629   3.542 -0.0087 -0.7455  0.2524
23106SOL    HW171856   1.989   2.649   3.635  0.2864  3.1846 -0.5487
23106SOL    HW271857   1.887   2.597   3.536 -0.9957  1.6635  1.5444
23107SOL     OW71858   8.429   4.410   4.951  0.0417 -0.2058  0.1601
23107SOL    HW171859   8.446   4.411   5.046 -4.3557 -1.8119  1.0771
23107SOL    HW271860   8.341   4.447   4.943 -0.3750 -1.8162 -3.1439
23108SOL     OW71861   6.090   1.644   7.065  0.2917  0.2150 -0.0022
23108SOL    HW171862   6.147   1.683   6.999  0.0406 -1.3124 -1.1650
23108SOL    HW271863   6.149   1.619   7.136  1.0374 -0.9851 -1.0215
23109SOL     OW71864   2.895   8.104   5.018  0.0494 -0.3852 -0.6135
23109SOL    HW171865   2.928   8.050   4.946 -0.1837 -1.0524 -0.2228
23109SOL    HW271866   2.944   8.074   5.095 -1.1306 -1.0792 -0.1138
23110SOL     OW71867  10.074   0.279   7.958  0.3976 -0.3551  0.1133
23110SOL    HW171868  10.142   0.229   8.003  0.4888  0.8722  1.4000
23110SOL    HW271869  10.113   0.365   7.944 -1.2441  0.7000  1.8267
23111SOL     OW71870   8.854   5.877   5.712  0.0461 -1.0405 -0.1394
23111SOL    HW171871   8.929   5.870   5.653 -0.0484  0.0007 -0.4018
23111SOL    HW271872   8.813   5.960   5.687 -0.8277 -1.3032  0.4277
23112SOL     OW71873   6.857   7.039  10.193  0.2570  0.2945 -0.4498
23112SOL    HW171874   6.918   7.084  10.251  0.3299  1.3338 -1.3252
23112SOL    HW271875   6.869   7.081  10.107 -0.9441 -0.1772 -0.8646
23113SOL     OW71876   0.785   0.295   7.861 -0.0063 -0.3143 -0.8036
23113SOL    HW171877   0.745   0.233   7.921  1.1895 -1.1127 -0.8072
23113SOL    HW271878   0.845   0.242   7.809 -0.7515  0.4371 -2.4460
23114SOL     OW71879   6.910   5.097   2.577  0.5466  0.8970  0.1709
23114SOL    HW171880   6.912   5.002   2.580  0.7149  0.9385  2.2661
23114SOL    HW271881   6.820   5.119   2.550  0.3302  0.1672  0.2916
23115SOL     OW71882   6.008   2.089   3.433  0.1451  0.1021 -0.0613
23115SOL    HW171883   6.066   2.034   3.486  1.4724 -0.1327 -1.7169
23115SOL    HW271884   6.004   2.045   3.348 -1.8196  0.5622 -0.2327
23116SOL     OW71885   4.351   6.603   6.030  0.1790 -0.3998  0.1542
23116SOL    HW171886   4.293   6.673   5.998  1.2566 -0.1298 -1.2707
23116SOL    HW271887   4.365   6.624   6.123  1.8440  2.2987 -0.6309
23117SOL     OW71888   0.612   5.214   1.029  0.4307 -0.0955 -0.1806
23117SOL    HW171889   0.554   5.256   0.966 -0.6988 -1.3306  0.0251
23117SOL    HW271890   0.573   5.233   1.114  0.4387 -0.7436 -0.0301
23118SOL     OW71891   8.117   6.668   9.333  0.6221  0.2194 -0.1534
23118SOL    HW171892   8.102   6.692   9.424  0.7739  1.6533 -0.4881
23118SOL    HW271893   8.207   6.696   9.315  0.6536 -0.2074 -0.6886
23119SOL     OW71894   7.507   2.599   3.386  0.0525 -0.6033 -0.4299
23119SOL    HW171895   7.525   2.693   3.385 -0.1057 -0.5350  1.4305
23119SOL    HW271896   7.592   2.558   3.402 -0.1408 -0.6634  0.5245
23120SOL     OW71897   0.690   0.791   5.726  0.2152  0.4500 -0.2723
23120SOL    HW171898   0.683   0.854   5.654  0.1216  0.1327 -0.5384
23120SOL    HW271899   0.728   0.842   5.798  0.8769  0.6128 -0.7337
23121SOL     OW71900   3.602   6.020   3.448  0.2738  0.4038 -0.5309
23121SOL    HW171901   3.519   5.995   3.487 -0.0729 -0.0501 -1.5327
23121SOL    HW271902   3.584   6.102   3.401  1.2476  2.2281  2.1856
23122SOL     OW71903   9.459   1.625   3.513  0.8462 -0.3853 -0.3800
23122SOL    HW171904   9.488   1.715   3.530 -0.3602 -0.2708  1.1859
23122SOL    HW271905   9.511   1.572   3.572  1.1835 -0.6731 -0.9310
23123SOL     OW71906   2.384   4.420   8.687 -1.0233 -0.6597 -0.1060
23123SOL    HW171907   2.324   4.346   8.697 -0.0956 -1.9131 -3.1408
23123SOL    HW271908   2.409   4.443   8.777 -1.7331 -3.7209  0.9414
23124SOL     OW71909   9.677   4.406   5.532  0.3600 -0.4193 -0.2358
23124SOL    HW171910   9.741   4.360   5.586  1.7767  0.3392 -1.2268
23124SOL    HW271911   9.618   4.448   5.595  1.6227 -0.0517  0.7191
23125SOL     OW71912   4.464   6.030   0.866  0.1549  0.7995 -0.1029
23125SOL    HW171913   4.504   6.053   0.950  2.2905 -1.6281 -0.4040
23125SOL    HW271914   4.533   6.049   0.801 -0.0084 -1.1553 -0.8817
23126SOL     OW71915   0.210   3.172   3.494  0.0702  0.1066  0.2090
23126SOL    HW171916   0.203   3.104   3.428  1.0687  2.0203 -1.9232
23126SOL    HW271917   0.263   3.133   3.564 -0.0962 -1.5748 -0.5932
23127SOL     OW71918   0.511   1.929   4.492 -0.9351  0.1606 -0.1502
23127SOL    HW171919   0.518   2.016   4.452  1.2634  0.8156  1.5664
23127SOL    HW271920   0.517   1.946   4.586  0.6735 -1.9543  0.1398
23128SOL     OW71921   0.241   1.787   4.417 -0.2875 -0.2675 -0.3028
23128SOL    HW171922   0.332   1.790   4.388 -0.1040  1.0133  0.3584
23128SOL    HW271923   0.220   1.878   4.441 -1.8122 -0.5019 -0.6831
23129SOL     OW71924   0.350   4.297   2.733  0.1379  0.3878 -0.6169
23129SOL    HW171925   0.354   4.209   2.769 -0.0131  0.5743 -0.1403
23129SOL    HW271926   0.257   4.311   2.713 -0.0948  1.0916  0.9479
23130SOL     OW71927   0.753   3.709   8.715 -0.4254  0.1154 -0.2759
23130SOL    HW171928   0.747   3.754   8.631  0.9002 -2.2632 -1.7089
23130SOL    HW271929   0.841   3.672   8.716 -0.4240  0.1099  2.1807
23131SOL     OW71930   4.549   2.458   2.384  0.1790  0.1182 -0.3872
23131SOL    HW171931   4.538   2.407   2.304 -1.3883  0.5290 -0.4401
23131SOL    HW271932   4.474   2.517   2.386  0.4820  0.4783  1.1130
23132SOL     OW71933   0.450   1.628   4.091 -0.1068  0.2070 -0.8670
23132SOL    HW171934   0.498   1.701   4.132  0.8144 -1.1779  0.6194
23132SOL    HW271935   0.398   1.591   4.162 -1.2878 -0.0179 -1.8364
23133SOL     OW71936   3.852   7.294   2.464  0.7127  0.2911 -0.1502
23133SOL    HW171937   3.784   7.263   2.524 -1.2307  1.2134 -1.8109
23133SOL    HW271938   3.883   7.216   2.420 -0.7787  0.0820 -0.8787
23134SOL     OW71939   1.325   4.808   0.947 -0.3850 -0.2770  0.4727
23134SOL    HW171940   1.405   4.860   0.937  0.2133 -1.1025  0.9767
23134SOL    HW271941   1.255   4.873   0.945  0.1858  0.3070 -1.5758
23135SOL     OW71942   0.969   4.948   6.632  0.4500  0.0906  0.0400
23135SOL    HW171943   0.985   5.021   6.692  0.8651 -0.4080  0.5388
23135SOL    HW271944   0.948   4.874   6.689 -0.8924  0.0483 -0.5060
23136SOL     OW71945   5.346   2.461   7.112 -0.2370 -0.1019 -0.1393
23136SOL    HW171946   5.309   2.412   7.185 -0.3581  0.1016 -0.0623
23136SOL    HW271947   5.336   2.553   7.138 -2.9532  0.1042 -1.6582
23137SOL     OW71948   8.353   7.137   7.455 -0.3041 -0.0201 -0.0024
23137SOL    HW171949   8.434   7.087   7.462  0.1297  0.6985  0.0695
23137SOL    HW271950   8.342   7.176   7.542 -1.1480 -0.7571  0.2363
23138SOL     OW71951   1.772   0.237   3.115  0.8689 -0.0182 -0.3275
23138SOL    HW171952   1.800   0.260   3.026 -0.3262  1.3162 -0.3823
23138SOL    HW271953   1.714   0.309   3.141 -0.2974 -1.3320  0.8029
23139SOL     OW71954   0.542   5.394   1.645  0.5217  0.0263 -0.2213
23139SOL    HW171955   0.618   5.442   1.612  1.3637  0.3703  2.1529
23139SOL    HW271956   0.490   5.460   1.690  1.5530 -1.1830  2.8505
23140SOL     OW71957   3.918   4.540   3.543 -0.5732  0.1437 -0.5549
23140SOL    HW171958   3.832   4.572   3.571 -0.4128  2.0967 -2.2044
23140SOL    HW271959   3.980   4.588   3.598 -0.4590  0.1506 -0.6896
23141SOL     OW71960   6.307   5.150   0.286  0.0042 -0.0332 -0.3539
23141SOL    HW171961   6.354   5.137   0.368 -0.6122  0.7636  0.1299
23141SOL    HW271962   6.254   5.228   0.300 -1.8592 -1.2065 -0.7043
23142SOL     OW71963   6.816   4.489   0.181  0.3424 -0.0363  0.5595
23142SOL    HW171964   6.763   4.467   0.257  0.9771  0.5094  1.1618
23142SOL    HW271965   6.754   4.520   0.116 -0.1467 -0.0267  1.0330
23143SOL     OW71966   5.272   2.387   8.918 -0.2521 -0.0889  0.6478
23143SOL    HW171967   5.220   2.468   8.914  0.1703  0.1424 -0.3677
23143SOL    HW271968   5.361   2.415   8.897  0.0363 -0.7036  1.0442
23144SOL     OW71969   7.742   8.233   7.557 -0.2713  0.4177 -0.1213
23144SOL    HW171970   7.777   8.260   7.643 -0.9237  0.3769  0.1595
23144SOL    HW271971   7.650   8.212   7.574 -0.0772 -0.8277 -0.5841
23145SOL     OW71972   4.351   8.366   5.790 -0.2598  0.4581 -0.3847
23145SOL    HW171973   4.427   8.421   5.769 -0.9041  1.0498 -1.1699
23145SOL    HW271974   4.339   8.377   5.885  1.8814 -1.2414  0.1306
23146SOL     OW71975   8.889   0.259   5.473 -0.7005 -0.0484 -0.8994
23146SOL    HW171976   8.936   0.200   5.414  1.3346 -0.4859  1.0830
23146SOL    HW271977   8.926   0.346   5.455  1.0504 -0.4247  0.8067
23147SOL     OW71978   1.855   6.295   6.977  0.5503  0.3999 -0.0811
23147SOL    HW171979   1.845   6.345   6.895  0.2333  2.4474  1.1725
23147SOL    HW271980   1.946   6.308   7.003  0.0241  1.7990  1.1472
23148SOL     OW71981   1.764   5.179   9.525 -0.8945 -0.6636  0.4886
23148SOL    HW171982   1.731   5.253   9.576 -0.7193  0.1538 -0.5746
23148SOL    HW271983   1.854   5.203   9.504 -0.5640 -1.5619  0.8512
23149SOL     OW71984   7.328   4.653   2.657 -0.3143  0.3961 -0.1228
23149SOL    HW171985   7.383   4.714   2.608  2.0538 -0.3353  1.5486
23149SOL    HW271986   7.384   4.622   2.728 -3.0801  0.0616  1.9909
23150SOL     OW71987   2.902   7.462   8.779  0.3091  0.3903 -0.3202
23150SOL    HW171988   2.929   7.394   8.841 -0.0937  0.0070 -0.5653
23150SOL    HW271989   2.966   7.456   8.708 -0.7481 -0.9190 -1.1897
23151SOL     OW71990   0.687   5.443   6.508 -0.0922  0.2580  0.0734
23151SOL    HW171991   0.781   5.425   6.514  0.2842  2.4109  0.9837
23151SOL    HW271992   0.646   5.358   6.521  1.7020 -0.4791  1.1294
23152SOL     OW71993   3.031   9.327   0.189  0.1185  0.2305 -0.3993
23152SOL    HW171994   2.947   9.299   0.154 -0.4178  0.2394  0.8669
23152SOL    HW271995   3.069   9.247   0.226 -0.4083  0.6916  1.1829
23153SOL     OW71996   4.198   7.031   7.106 -0.4579 -0.2891 -0.4358
23153SOL    HW171997   4.181   6.961   7.044 -2.1948  0.1456 -0.4599
23153SOL    HW271998   4.255   7.092   7.059 -0.6742 -0.6281 -1.1320
23154SOL     OW71999   0.878   8.220   4.647 -0.5092  0.3558 -0.3037
23154SOL    HW172000   0.929   8.200   4.568 -1.2040 -1.1797 -0.3852
23154SOL    HW272001   0.788   8.227   4.615 -0.4173  2.8698 -0.1349
23155SOL     OW72002   9.899   3.063  10.023 -0.0704 -0.0908  0.4079
23155SOL    HW172003   9.819   3.012  10.040 -1.1607  1.1621 -0.8033
23155SOL    HW272004   9.908   3.120  10.100 -0.9553  0.5037  0.0814
23156SOL     OW72005   4.243   7.377   7.760 -0.1200  0.1162 -0.1047
23156SOL    HW172006   4.321   7.407   7.712 -0.1028 -1.5076 -1.1042
23156SOL    HW272007   4.265   7.391   7.852  1.0732  0.3423 -0.4177
23157SOL     OW72008   6.142   0.635   3.208 -0.0858 -0.0087  0.1246
23157SOL    HW172009   6.226   0.591   3.195  1.3411  2.5924  0.2408
23157SOL    HW272010   6.084   0.597   3.142  1.9624  0.0794 -1.7786
23158SOL     OW72011   1.357   4.784   6.950 -0.2232  0.0263 -0.1159
23158SOL    HW172012   1.403   4.715   6.997  0.6482  1.2227  0.8186
23158SOL    HW272013   1.272   4.790   6.993 -0.1033 -0.1044  0.1418
23159SOL     OW72014   1.081   1.376   7.704  0.4250  0.1827  0.2869
23159SOL    HW172015   1.165   1.371   7.750 -0.5561  0.7318  2.1944
23159SOL    HW272016   1.095   1.442   7.636  1.3956  0.6409  0.9142
23160SOL     OW72017   6.945   7.290   3.035  0.0354 -0.3566  0.0421
23160SOL    HW172018   7.009   7.292   2.965 -0.3201  0.7945 -0.2558
23160SOL    HW272019   6.982   7.344   3.104 -0.3367 -0.1733  0.1033
23161SOL     OW72020   3.408   8.163   0.089  0.0685 -0.2164 -0.4979
23161SOL    HW172021   3.412   8.169   0.185  1.2512 -0.9200 -0.4923
23161SOL    HW272022   3.390   8.253   0.061  0.5384  0.1532  0.3514
23162SOL     OW72023   3.373   9.747   0.013  0.2076 -0.4782 -0.2906
23162SOL    HW172024   3.419   9.753  -0.071 -2.2381 -0.1505 -1.6841
23162SOL    HW272025   3.420   9.806   0.071  1.4960 -0.1279 -1.6580
23163SOL     OW72026   9.590   2.446   2.022 -0.4574  0.2965  0.3590
23163SOL    HW172027   9.676   2.410   2.002 -0.1874 -0.0691  2.1452
23163SOL    HW272028   9.599   2.540   2.007 -0.0101  0.1421 -0.3522
23164SOL     OW72029   6.295   5.501   5.766 -0.1780  1.0461 -0.6007
23164SOL    HW172030   6.314   5.593   5.785 -0.0176  0.7476  0.8065
23164SOL    HW272031   6.281   5.462   5.853 -1.2720 -0.0291 -1.2448
23165SOL     OW72032   1.498   2.971   4.177 -0.5386 -0.3794  0.2061
23165SOL    HW172033   1.513   3.065   4.164 -0.7103 -0.4687 -0.6714
23165SOL    HW272034   1.583   2.931   4.161 -0.7857 -0.5047 -0.8544
23166SOL     OW72035   2.930   5.493   7.604 -0.3696 -0.4233  0.5281
23166SOL    HW172036   2.974   5.447   7.675 -0.1570  1.0344  1.3606
23166SOL    HW272037   2.840   5.505   7.635 -0.6116 -0.8971  0.0185
23167SOL     OW72038   2.386   5.203   1.850 -0.2223 -0.1165  0.7410
23167SOL    HW172039   2.303   5.249   1.836 -0.1010 -0.3747 -0.9731
23167SOL    HW272040   2.428   5.251   1.921 -0.5687  1.8288 -0.3076
23168SOL     OW72041   2.446   0.998   4.054  0.2433  0.2848  0.0986
23168SOL    HW172042   2.501   1.076   4.058  1.6309 -0.6632  0.1360
23168SOL    HW272043   2.364   1.023   4.097 -0.2368  2.4170 -2.0282
23169SOL     OW72044   6.537   8.902   6.439  0.2611 -0.0220  0.0130
23169SOL    HW172045   6.514   8.993   6.459  0.6215  0.3232 -1.0791
23169SOL    HW272046   6.628   8.893   6.467 -0.1885 -0.4319  1.3385
23170SOL     OW72047   6.605   1.993   5.791  0.1604  0.5616 -0.0087
23170SOL    HW172048   6.624   1.905   5.821  1.0457  0.7585  0.0094
23170SOL    HW272049   6.601   1.987   5.696  2.6061  0.9505 -0.1665
23171SOL     OW72050   1.556   7.343   1.989 -0.3548  0.0074  0.4819
23171SOL    HW172051   1.509   7.279   1.936  0.0322 -0.4342  0.6680
23171SOL    HW272052   1.601   7.399   1.925 -2.9058  1.8396  0.2142
23172SOL     OW72053   1.846   4.005   5.400  0.0108 -0.2137 -0.0652
23172SOL    HW172054   1.787   3.943   5.357  0.7617 -0.5226 -0.6656
23172SOL    HW272055   1.796   4.087   5.404 -0.6282 -0.5998 -0.1448
23173SOL     OW72056   6.189   7.052   8.038 -0.3779  0.0660  0.3376
23173SOL    HW172057   6.180   7.001   7.958 -1.0370 -2.0224  1.7116
23173SOL    HW272058   6.283   7.053   8.056 -0.3387 -0.4383  0.1592
23174SOL     OW72059   1.884   7.198   0.796 -0.0507 -1.0522 -0.2041
23174SOL    HW172060   1.901   7.186   0.703 -0.3867 -1.1738 -0.2490
23174SOL    HW272061   1.970   7.189   0.837  0.4880  1.2500 -0.7369
23175SOL     OW72062   2.380   0.312   8.399  1.0204 -0.5660  0.0454
23175SOL    HW172063   2.373   0.270   8.313 -1.0628  1.2067 -0.6971
23175SOL    HW272064   2.449   0.378   8.388 -0.3654  0.7796 -0.7846
23176SOL     OW72065   4.561   3.369   1.136  0.1741 -0.0283 -0.1220
23176SOL    HW172066   4.546   3.408   1.222  0.9499  0.1832 -0.0702
23176SOL    HW272067   4.495   3.408   1.079 -1.2284 -1.1920  0.6640
23177SOL     OW72068   1.548   4.921   4.651 -0.1405  0.2827  0.4170
23177SOL    HW172069   1.515   4.921   4.561 -2.8294 -0.6409  1.3628
23177SOL    HW272070   1.626   4.976   4.647  1.1514 -1.5918 -2.9662
23178SOL     OW72071   9.465   4.259   4.666 -0.0276  0.2642 -0.2398
23178SOL    HW172072   9.510   4.203   4.602  0.2515 -0.5234  0.6361
23178SOL    HW272073   9.454   4.203   4.743  1.5578  1.8448  1.1822
23179SOL     OW72074   5.281   6.799   4.720  0.2886 -0.0345 -0.1853
23179SOL    HW172075   5.352   6.813   4.657 -0.0631  0.2136 -0.5307
23179SOL    HW272076   5.226   6.877   4.712 -0.3757 -0.5164 -0.3979
23180SOL     OW72077   2.095   3.702   2.122  0.5750 -0.3446 -0.4697
23180SOL    HW172078   2.019   3.670   2.073  0.6108 -2.0759  0.5483
23180SOL    HW272079   2.057   3.744   2.199  0.6371 -1.9163  0.4469
23181SOL     OW72080   5.883  10.046   4.929 -0.5948  0.2388  0.4352
23181SOL    HW172081   5.968  10.026   4.967  0.3145  1.4973 -0.9080
23181SOL    HW272082   5.875   9.986   4.855 -0.9551  0.0226  0.6441
23182SOL     OW72083   6.921   6.842   7.721  0.4779 -0.2962  0.3770
23182SOL    HW172084   6.963   6.917   7.763 -0.9587 -0.8053  2.8590
23182SOL    HW272085   6.868   6.803   7.791 -0.0033 -2.7070 -1.2881
23183SOL     OW72086   4.563   4.939   3.315 -0.1615  0.0834  0.3276
23183SOL    HW172087   4.572   4.862   3.372 -1.5469 -0.4296 -0.1234
23183SOL    HW272088   4.644   4.942   3.265  0.3612 -0.4419  1.1279
23184SOL     OW72089   3.643   5.063   1.950  0.8565  0.2147  0.3656
23184SOL    HW172090   3.564   5.030   1.994 -1.1616  1.9552 -1.8317
23184SOL    HW272091   3.689   5.113   2.017 -1.8625  2.3217  0.7371
23185SOL     OW72092   5.557   2.287   4.585  0.2828  0.5625  0.0483
23185SOL    HW172093   5.627   2.245   4.534 -1.3119 -3.2184  0.7931
23185SOL    HW272094   5.596   2.303   4.670  0.5709 -0.6789  0.1681
23186SOL     OW72095   7.527   6.658   8.791 -0.0690 -0.2390 -0.3419
23186SOL    HW172096   7.543   6.700   8.706 -1.7846 -1.7312 -1.4598
23186SOL    HW272097   7.612   6.625   8.818  0.5695  0.6049 -1.2932
23187SOL     OW72098   5.389   8.651   3.683 -0.0939  0.0125 -0.3557
23187SOL    HW172099   5.321   8.719   3.681  0.3583  0.4410 -1.4280
23187SOL    HW272100   5.352   8.581   3.737  0.0823  1.8095  2.1775
23188SOL     OW72101   8.821   5.683   7.004  0.5137  0.1246 -0.8505
23188SOL    HW172102   8.759   5.756   7.003  0.2332 -0.0018  1.8121
23188SOL    HW272103   8.907   5.725   7.011  0.2852  0.2552  1.8435
23189SOL     OW72104   2.208   3.566   8.853  0.2418 -0.0544 -0.4049
23189SOL    HW172105   2.160   3.549   8.773 -0.2305 -1.6987  0.2085
23189SOL    HW272106   2.293   3.600   8.823  0.0884 -0.6891 -1.5921
23190SOL     OW72107   0.933   3.840   1.204 -0.1352 -0.2509 -0.3432
23190SOL    HW172108   0.842   3.870   1.200 -0.0567  0.2699  1.5077
23190SOL    HW272109   0.927   3.746   1.189 -0.9099 -0.1129 -0.9515
23191SOL     OW72110   3.211   9.613   8.356 -0.2927  0.2155 -0.2707
23191SOL    HW172111   3.241   9.686   8.410 -0.4452 -0.3505  0.5830
23191SOL    HW272112   3.209   9.538   8.416 -3.0781  0.1542 -0.3769
23192SOL     OW72113   4.955   1.972   3.494  0.2906 -0.2304 -0.4701
23192SOL    HW172114   4.940   1.878   3.495  0.3018 -0.2299 -0.1223
23192SOL    HW272115   4.886   2.008   3.549  1.3101 -0.1949  0.8109
23193SOL     OW72116   2.699   0.238   8.430  0.0656 -0.0523 -0.1353
23193SOL    HW172117   2.750   0.198   8.360 -1.0959 -0.2653 -0.8696
23193SOL    HW272118   2.667   0.320   8.393 -1.4551 -0.6755 -0.2537
23194SOL     OW72119   3.005   6.560   7.608 -0.1227 -0.2862 -0.1344
23194SOL    HW172120   2.948   6.625   7.649  0.7726 -0.2441  1.0731
23194SOL    HW272121   3.037   6.507   7.680  0.4445 -1.0509 -0.9330
23195SOL     OW72122   4.859   9.609   9.334 -0.1958 -0.0532 -0.6199
23195SOL    HW172123   4.919   9.570   9.271  0.4998 -1.4156  0.8529
23195SOL    HW272124   4.773   9.576   9.308 -0.0084 -0.0450 -1.2652
23196SOL     OW72125   6.664   6.718   7.050 -0.4264  0.2186 -0.5991
23196SOL    HW172126   6.674   6.648   6.986 -0.7119 -0.4129  0.0443
23196SOL    HW272127   6.582   6.762   7.025 -1.7613 -1.4613  0.6851
23197SOL     OW72128  10.093   3.833   4.194 -0.0678 -0.2418  0.6488
23197SOL    HW172129  10.068   3.839   4.286 -0.0770 -1.1246  0.7056
23197SOL    HW272130  10.137   3.916   4.176 -0.0981 -0.0480  1.4328
23198SOL     OW72131   6.084   8.558   7.494 -0.0192 -0.7611 -0.0844
23198SOL    HW172132   6.139   8.563   7.416  1.3922 -1.7074  0.8350
23198SOL    HW272133   6.020   8.489   7.473 -0.3641 -0.2131 -0.8428
23199SOL     OW72134   2.398   3.412   4.935  0.1861 -0.5092  0.3809
23199SOL    HW172135   2.453   3.449   5.004  0.6697  0.8578 -0.7197
23199SOL    HW272136   2.443   3.433   4.854 -1.5688 -0.0099 -0.5017
23200SOL     OW72137   2.794   8.623   1.609 -0.0274 -0.1260  0.4277
23200SOL    HW172138   2.878   8.632   1.653 -0.0169 -0.9669  0.5783
23200SOL    HW272139   2.748   8.554   1.658  0.1379 -1.3642 -1.1209
23201SOL     OW72140   9.620   9.409   0.389  0.0001  0.2517 -0.2576
23201SOL    HW172141   9.624   9.319   0.422  0.1646  0.4805  0.3476
23201SOL    HW272142   9.540   9.411   0.336  0.7746 -0.6522 -1.4719
23202SOL     OW72143   2.786   6.157   3.166  0.6021  0.2966 -0.6130
23202SOL    HW172144   2.806   6.166   3.073 -0.9212  0.6190 -0.9262
23202SOL    HW272145   2.856   6.102   3.201  1.4547  0.5866 -1.8483
23203SOL     OW72146   3.245   6.413   4.706 -0.1150  0.3474 -0.1463
23203SOL    HW172147   3.253   6.339   4.645  2.0179  1.2015 -0.9604
23203SOL    HW272148   3.285   6.486   4.659  0.5458  1.2949  1.8591
23204SOL     OW72149   4.846   8.622   2.702  0.2935 -0.5008  0.0355
23204SOL    HW172150   4.921   8.564   2.711 -0.4544 -1.6147 -0.8686
23204SOL    HW272151   4.793   8.605   2.781  1.2617  0.7070  0.9627
23205SOL     OW72152   2.044   5.419   0.896  0.0829  0.2009  0.0197
23205SOL    HW172153   2.079   5.406   0.984  0.1174 -2.3390 -0.3207
23205SOL    HW272154   2.110   5.472   0.851  1.1299 -0.3641  0.8630
23206SOL     OW72155   4.116   1.055   0.377 -0.2014 -0.1110  0.2144
23206SOL    HW172156   4.023   1.039   0.359 -0.3594  0.5143  0.4648
23206SOL    HW272157   4.161   0.989   0.325 -0.7993 -0.6936  0.4178
23207SOL     OW72158   9.989   1.016   8.909  0.1200  0.8336  0.2681
23207SOL    HW172159  10.017   0.952   8.974 -0.5836  0.6978  0.4493
23207SOL    HW272160   9.990   1.100   8.956 -1.6954  0.5430  0.8585
23208SOL     OW72161   9.338   4.441   5.489  0.2759  0.4359  0.6396
23208SOL    HW172162   9.377   4.506   5.431  0.8949 -0.6046 -0.1129
23208SOL    HW272163   9.329   4.363   5.435  0.7916 -0.5241  1.9224
23209SOL     OW72164   1.667   5.672   6.167 -0.1193 -0.2550 -0.2783
23209SOL    HW172165   1.602   5.730   6.126  1.1465  1.7512  0.4593
23209SOL    HW272166   1.716   5.636   6.093 -0.6511 -0.0668 -0.7315
23210SOL     OW72167   7.001   4.382   7.844 -0.0130  0.3356  0.1299
23210SOL    HW172168   7.055   4.438   7.899 -0.6215 -0.7457  1.9070
23210SOL    HW272169   7.061   4.343   7.781  1.0601  0.1354  1.2628
23211SOL     OW72170   1.012   0.954   1.708  0.5004 -0.2973 -0.0992
23211SOL    HW172171   1.037   0.890   1.776 -0.1938  1.4972  1.9111
23211SOL    HW272172   0.929   0.990   1.740  0.8991  1.6174 -1.1969
23212SOL     OW72173   8.933   3.703   5.201 -0.4712  0.4420 -0.1158
23212SOL    HW172174   8.886   3.748   5.270 -1.4106 -3.2225  1.7309
23212SOL    HW272175   9.023   3.696   5.233 -0.7416 -0.6101  0.4223
23213SOL     OW72176   9.437   6.175   5.417  0.1794  0.0131 -0.3375
23213SOL    HW172177   9.465   6.266   5.408 -0.4740  0.6029  2.8396
23213SOL    HW272178   9.412   6.167   5.509 -1.1552 -3.0023 -0.9027
23214SOL     OW72179   7.197   8.809   9.279 -0.3192  0.1095  0.3250
23214SOL    HW172180   7.117   8.785   9.232  0.4205 -0.5383 -0.6481
23214SOL    HW272181   7.201   8.749   9.353 -0.4754 -0.2030  0.0816
23215SOL     OW72182   8.497   8.698   6.064 -0.5843  0.1734  0.8077
23215SOL    HW172183   8.587   8.684   6.034 -0.6496 -1.8994  1.5109
23215SOL    HW272184   8.443   8.668   5.991 -0.7069  0.0921  0.9332
23216SOL     OW72185   8.379   0.766   8.407 -0.0532 -0.6177  0.0242
23216SOL    HW172186   8.408   0.734   8.493  1.1990 -0.9908 -0.5289
23216SOL    HW272187   8.387   0.861   8.414 -0.0951 -0.6380  0.3768
23217SOL     OW72188   3.712  10.113   5.908  0.0171 -0.6032  0.0009
23217SOL    HW172189   3.781  10.072   5.961  0.9419 -1.4905 -1.8502
23217SOL    HW272190   3.677  10.042   5.854 -1.1213  0.2208 -0.3792
23218SOL     OW72191   8.071   8.770   8.906  0.1381 -0.6695 -0.1526
23218SOL    HW172192   8.097   8.723   8.985 -0.2059  0.9269  0.9240
23218SOL    HW272193   7.976   8.755   8.901  0.4116 -2.1965 -1.2347
23219SOL     OW72194   3.850   3.133   2.344  0.4810  0.1342  0.7189
23219SOL    HW172195   3.811   3.178   2.268  1.3655 -0.1756  0.0724
23219SOL    HW272196   3.944   3.140   2.330  0.6341 -1.1358  1.0876
23220SOL     OW72197   0.941  10.137   3.069  0.1821 -0.7220 -0.3491
23220SOL    HW172198   0.950  10.146   3.164  0.6358  0.0200 -0.4533
23220SOL    HW272199   0.847  10.132   3.054  0.0090  1.1169 -0.0148
23221SOL     OW72200   1.355   1.341   9.400 -0.5172 -0.1984 -0.4195
23221SOL    HW172201   1.395   1.390   9.471  0.0426  0.1440 -0.9656
23221SOL    HW272202   1.393   1.254   9.406 -0.3435 -0.1215 -0.4067
23222SOL     OW72203   3.555   1.641   5.587  0.2982  0.3202 -0.7854
23222SOL    HW172204   3.565   1.575   5.655 -1.3678 -0.2265 -1.0289
23222SOL    HW272205   3.603   1.607   5.512  1.9770  0.8346  0.0444
23223SOL     OW72206   3.655   2.378   4.344  0.4334  0.4632  0.8761
23223SOL    HW172207   3.710   2.303   4.322  2.4569  2.1590 -0.0355
23223SOL    HW272208   3.601   2.392   4.266 -0.6595 -0.6343  1.4233
23224SOL     OW72209   4.995   3.919  10.073  0.1172  0.5335 -0.2676
23224SOL    HW172210   4.911   3.899  10.031  1.1840 -0.9803 -1.7669
23224SOL    HW272211   4.983   4.006  10.109 -2.5312 -0.1573  0.6744
23225SOL     OW72212   5.485   2.391   8.058  0.7505 -0.1832  0.4823
23225SOL    HW172213   5.503   2.321   7.996  0.9237 -1.1623  1.6163
23225SOL    HW272214   5.435   2.350   8.128 -1.3384  1.3762 -0.0487
23226SOL     OW72215   8.700   1.737   4.488 -0.2281  0.9065 -0.0984
23226SOL    HW172216   8.646   1.702   4.418 -0.5116 -0.2318  0.6734
23226SOL    HW272217   8.668   1.826   4.501 -1.3503  0.5226 -0.2127
23227SOL     OW72218   7.725   8.691   8.272 -0.5968  0.1993  0.5750
23227SOL    HW172219   7.777   8.771   8.271 -0.5531  0.1723  0.9135
23227SOL    HW272220   7.761   8.639   8.200 -1.5839  1.0887 -0.5831
23228SOL     OW72221   5.382   1.926   7.068 -0.6394  0.0346  0.1123
23228SOL    HW172222   5.456   1.970   7.111 -0.9309  0.1947  0.4552
23228SOL    HW272223   5.422   1.873   7.000 -0.2929  0.9911 -0.4504
23229SOL     OW72224   1.900   7.973  10.161 -0.1723  0.2425 -0.3311
23229SOL    HW172225   1.974   7.969  10.100  0.7266  0.1766  0.7318
23229SOL    HW272226   1.841   8.038  10.123 -0.3599 -0.8922 -2.0394
23230SOL     OW72227   2.459   2.695   6.387  0.3639  0.3943  0.3363
23230SOL    HW172228   2.374   2.668   6.422  0.9647  0.9740  2.3003
23230SOL    HW272229   2.448   2.692   6.292 -1.6651 -0.1161  0.5694
23231SOL     OW72230   1.148   4.007   3.009  0.3281  0.6489  0.3602
23231SOL    HW172231   1.112   3.927   3.048 -1.7048  1.4255  0.1359
23231SOL    HW272232   1.218   3.976   2.952 -1.2670 -1.0878 -0.6919
23232SOL     OW72233   6.195   9.680   8.761 -0.4732 -0.5222 -0.2613
23232SOL    HW172234   6.278   9.667   8.808 -0.5195  0.9097  0.2528
23232SOL    HW272235   6.180   9.775   8.765 -1.4996 -0.6185 -1.4485
23233SOL     OW72236   4.701   2.459   8.506 -0.0429  0.0512 -0.5729
23233SOL    HW172237   4.710   2.370   8.539  2.6623  1.1327  1.7703
23233SOL    HW272238   4.758   2.512   8.562 -0.0804  2.9564 -3.1371
23234SOL     OW72239   2.822   2.007   4.504  0.3582  0.2937 -0.0210
23234SOL    HW172240   2.915   2.002   4.480  0.4965 -0.2368  0.6190
23234SOL    HW272241   2.776   2.004   4.420  0.8933 -0.3149 -0.2997
23235SOL     OW72242   2.142   4.755   0.152 -0.1138  0.0364  0.1631
23235SOL    HW172243   2.175   4.842   0.175  0.3664 -0.0163 -0.3299
23235SOL    HW272244   2.051   4.755   0.183 -0.3361  0.9611 -0.4626
23236SOL     OW72245   4.415   1.605  10.063  0.4046  0.0141  0.1610
23236SOL    HW172246   4.364   1.647  10.131 -0.3833 -0.3297 -0.2135
23236SOL    HW272247   4.495   1.575  10.107  0.1866  0.3609  0.7857
23237SOL     OW72248   7.335   4.400   6.283 -0.1832  0.2149  0.5187
23237SOL    HW172249   7.383   4.448   6.215  0.5296  0.9333  1.5243
23237SOL    HW272250   7.289   4.331   6.235  1.8440 -0.4875 -0.4709
23238SOL     OW72251   8.627   0.739   4.333  0.5767 -0.1177  0.0339
23238SOL    HW172252   8.596   0.823   4.299  1.5340  0.1346 -0.2097
23238SOL    HW272253   8.594   0.674   4.271  0.0154  0.0944  0.1068
23239SOL     OW72254   8.217   6.872   8.858 -0.2961 -0.1530 -0.3258
23239SOL    HW172255   8.261   6.852   8.941 -1.3943  1.5334  0.7136
23239SOL    HW272256   8.235   6.966   8.845 -1.0705 -0.1586 -1.4211
23240SOL     OW72257   1.454   8.666   9.639 -0.2196 -0.2765 -0.0060
23240SOL    HW172258   1.447   8.683   9.545 -0.3419  1.6556  0.3389
23240SOL    HW272259   1.369   8.630   9.664 -0.4375 -0.0836 -0.4841
23241SOL     OW72260   6.183   4.444   8.339 -0.4704  0.2006  0.8488
23241SOL    HW172261   6.241   4.401   8.276 -1.5731  0.7990 -0.6138
23241SOL    HW272262   6.134   4.372   8.380  0.0908 -0.1767  0.8621
23242SOL     OW72263   4.217   6.908   1.258  0.0827 -0.1342 -0.0147
23242SOL    HW172264   4.128   6.876   1.242  0.1802 -1.1831  1.4782
23242SOL    HW272265   4.206   7.000   1.281 -0.6236 -0.2706  0.2040
23243SOL     OW72266  10.143   0.731   2.138 -0.6662 -0.4747  0.0426
23243SOL    HW172267  10.123   0.645   2.100  1.6045 -1.1746  0.3568
23243SOL    HW272268  10.165   0.786   2.063 -0.9259 -0.5138 -0.0618
23244SOL     OW72269   1.160   4.999   0.197  0.3447  0.6250 -0.0364
23244SOL    HW172270   1.149   4.936   0.267  1.0449  0.2436 -0.2689
23244SOL    HW272271   1.083   4.986   0.141  0.0413  0.5876  0.3875
23245SOL     OW72272   8.100   9.526   0.847  0.0899  0.3265 -0.0830
23245SOL    HW172273   8.171   9.585   0.873  1.2736 -0.6214 -1.0893
23245SOL    HW272274   8.139   9.439   0.850 -1.1395 -0.2391 -0.3067
23246SOL     OW72275   1.283   5.560   3.949  0.2392  0.4989 -0.6369
23246SOL    HW172276   1.283   5.631   3.885  0.5262 -0.9086 -2.2361
23246SOL    HW272277   1.361   5.577   4.003  0.8828  0.8331 -1.6538
23247SOL     OW72278   2.229   8.451   0.844  0.1620 -0.2313 -0.3157
23247SOL    HW172279   2.277   8.474   0.765  0.7946 -1.4758 -0.3146
23247SOL    HW272280   2.169   8.523   0.858  0.0810  0.0237 -1.9097
23248SOL     OW72281   7.871   5.846   6.101 -0.0975 -0.4155 -0.0266
23248SOL    HW172282   7.852   5.754   6.085  1.8361 -0.9935  0.8042
23248SOL    HW272283   7.890   5.851   6.194 -1.1523  1.0156  0.1278
23249SOL     OW72284   5.364   0.228   6.791 -0.1435 -0.4354 -0.0311
23249SOL    HW172285   5.329   0.162   6.731 -1.4416  0.0175  0.2048
23249SOL    HW272286   5.446   0.191   6.823 -0.4239 -1.5454 -0.5779
23250SOL     OW72287   8.500   8.053   1.444 -0.3970  0.0433  0.1832
23250SOL    HW172288   8.537   8.036   1.357  0.4563  0.3624  0.4834
23250SOL    HW272289   8.425   8.109   1.427  0.4264  1.0267 -0.2597
23251SOL     OW72290   9.405   9.881   2.401 -0.3313 -0.1662  0.1003
23251SOL    HW172291   9.358   9.932   2.334 -2.0666  0.7747  1.9960
23251SOL    HW272292   9.491   9.924   2.407 -0.8028  0.8569 -0.2556
23252SOL     OW72293   6.830   2.349   7.384  0.2860 -0.1009 -0.1501
23252SOL    HW172294   6.814   2.320   7.295  1.9892  2.5418 -1.3727
23252SOL    HW272295   6.913   2.308   7.408  0.9357  0.9167 -0.6122
23253SOL     OW72296   8.500   5.908   6.032 -0.8022  0.7731  0.2548
23253SOL    HW172297   8.464   5.981   6.082  0.3134  0.9876  0.7801
23253SOL    HW272298   8.595   5.925   6.031 -0.7596  0.5012 -1.5179
23254SOL     OW72299   2.525   8.643   9.401  0.4819  0.5676  0.1513
23254SOL    HW172300   2.451   8.702   9.383 -0.0992  0.1826  1.2414
23254SOL    HW272301   2.602   8.692   9.371  0.0485  2.0597  1.4156
23255SOL     OW72302   5.343   6.863   6.691 -0.4128  0.0576  0.5246
23255SOL    HW172303   5.277   6.850   6.623  0.4231  0.3491 -0.3538
23255SOL    HW272304   5.416   6.807   6.664 -0.0088  0.3139  1.0863
23256SOL     OW72305   8.053   5.358   2.585 -0.2945  0.3029  0.2925
23256SOL    HW172306   8.100   5.285   2.625  0.9676  1.1371  0.3562
23256SOL    HW272307   8.071   5.350   2.491  1.3629  1.5755  0.4823
23257SOL     OW72308   2.343   4.045   7.483  0.2964  0.7509 -0.4411
23257SOL    HW172309   2.352   4.136   7.509  1.1172  0.1578  1.3853
23257SOL    HW272310   2.391   4.038   7.400  3.6170  1.0886  1.4216
23258SOL     OW72311   0.485   1.199   4.271 -0.6144  0.1114  0.6793
23258SOL    HW172312   0.512   1.156   4.352 -0.7699  1.2107  1.3280
23258SOL    HW272313   0.404   1.155   4.246  0.2562 -1.2800  0.2700
23259SOL     OW72314   2.590   5.826   0.777 -0.1676 -0.9940  0.3266
23259SOL    HW172315   2.601   5.809   0.683 -3.1894 -0.3567 -0.1876
23259SOL    HW272316   2.496   5.822   0.792  0.0857  0.9919  2.9285
23260SOL     OW72317   9.849   3.933   9.707 -0.3022  0.5035  0.2700
23260SOL    HW172318   9.902   4.002   9.666 -0.2533  0.9486  1.0858
23260SOL    HW272319   9.904   3.855   9.701  0.7960  1.1192  1.7996
23261SOL     OW72320   8.329   5.095   5.617 -0.1935 -0.0449  0.6526
23261SOL    HW172321   8.415   5.063   5.591 -1.1897 -1.5233 -0.9343
23261SOL    HW272322   8.302   5.154   5.547 -1.5200 -1.5408 -0.1312
23262SOL     OW72323   6.241   5.964   8.915  0.0159 -0.6206 -0.4563
23262SOL    HW172324   6.288   5.885   8.943 -0.0712 -0.0807  1.2495
23262SOL    HW272325   6.151   5.934   8.902 -0.7073 -0.2241  3.1520
23263SOL     OW72326   5.667   6.349   7.957 -0.2991  0.2370 -0.1518
23263SOL    HW172327   5.714   6.277   7.998 -0.1042 -0.1564 -1.0463
23263SOL    HW272328   5.720   6.427   7.976 -0.4215  0.1179  0.6656
23264SOL     OW72329   7.120   6.520   6.097 -0.2743 -0.3389  0.2339
23264SOL    HW172330   7.151   6.562   6.017  0.4225 -0.2596  0.5506
23264SOL    HW272331   7.108   6.428   6.072  1.1243 -0.5594  0.3715
23265SOL     OW72332   5.464   9.629   7.820  0.3732 -0.1990 -0.1906
23265SOL    HW172333   5.507   9.584   7.892  3.4815 -0.2065 -1.9707
23265SOL    HW272334   5.463   9.721   7.846 -3.8050 -0.8140  2.3629
23266SOL     OW72335   2.688   6.931   8.936  0.4947 -0.0760  0.2150
23266SOL    HW172336   2.778   6.963   8.926  0.3202  0.1748 -0.6510
23266SOL    HW272337   2.669   6.888   8.852 -1.3844  2.9186 -0.9797
23267SOL     OW72338   3.902   0.372   8.143  0.0042 -0.2982  0.1904
23267SOL    HW172339   3.818   0.339   8.111 -0.0503  0.0778 -0.0522
23267SOL    HW272340   3.879   0.441   8.206  0.1276 -0.3126  0.2509
23268SOL     OW72341   6.198   7.552   7.268  0.0140  0.1663  0.0830
23268SOL    HW172342   6.130   7.489   7.293  0.8510 -0.8253 -0.1116
23268SOL    HW272343   6.178   7.572   7.176 -0.9406  1.0795  0.4825
23269SOL     OW72344   1.142   4.427   5.822  0.0322  0.6695  0.1895
23269SOL    HW172345   1.202   4.355   5.840  2.7301  2.6064 -0.7054
23269SOL    HW272346   1.113   4.412   5.732 -0.4472  0.0031  0.4507
23270SOL     OW72347   7.150   5.501   6.821  0.0521  0.5370  0.2271
23270SOL    HW172348   7.150   5.466   6.910  0.7130  4.2612  1.7710
23270SOL    HW272349   7.064   5.543   6.812  1.1425  2.8138  0.2272
23271SOL     OW72350   2.336   1.970   2.998 -0.1172  0.1675  0.1831
23271SOL    HW172351   2.256   1.945   3.044  1.6679 -2.4767  1.9913
23271SOL    HW272352   2.336   1.916   2.919 -0.6739  1.0069 -0.3948
23272SOL     OW72353   8.605   9.978   7.980  0.0605  0.0053 -0.5775
23272SOL    HW172354   8.516  10.012   7.975 -0.2551 -0.4673  1.3795
23272SOL    HW272355   8.630   9.961   7.889 -1.8604  0.0660 -1.1289
23273SOL     OW72356   3.560   0.845   3.498  0.4394 -0.5918 -0.4827
23273SOL    HW172357   3.560   0.897   3.418 -0.6108  1.0980  0.5926
23273SOL    HW272358   3.467   0.828   3.515  0.7317 -2.1776 -0.4081
23274SOL     OW72359   3.854   9.518   8.454 -0.9388 -0.0615 -0.2008
23274SOL    HW172360   3.807   9.438   8.432 -0.4943  0.1997 -2.1187
23274SOL    HW272361   3.785   9.585   8.460 -0.9558  0.0926 -1.9194
23275SOL     OW72362   8.044   4.454   5.904  0.1308 -0.3873  0.6102
23275SOL    HW172363   8.127   4.455   5.952 -1.2330 -1.1160  3.0576
23275SOL    HW272364   8.005   4.369   5.924 -0.5707 -0.6515 -1.7043
23276SOL     OW72365   9.117   7.610   7.397 -0.1358  0.2592  0.0040
23276SOL    HW172366   9.038   7.648   7.359 -0.4636 -1.6349 -1.2692
23276SOL    HW272367   9.180   7.611   7.325  0.3093 -0.2573  0.3823
23277SOL     OW72368   4.915   4.995   6.028 -0.5740  1.0428 -0.1585
23277SOL    HW172369   4.827   4.987   5.993 -0.8265 -2.1767  1.0589
23277SOL    HW272370   4.972   4.972   5.955 -0.8920 -0.1266 -0.0498
23278SOL     OW72371   0.832   1.113   6.382 -0.1967  0.6361  0.1527
23278SOL    HW172372   0.868   1.123   6.470  0.3582  0.0971 -0.0120
23278SOL    HW272373   0.875   1.181   6.331  0.7493 -0.1219 -0.0870
23279SOL     OW72374   8.804   6.251   9.974 -0.4422 -0.3118 -0.0755
23279SOL    HW172375   8.854   6.227   9.896  1.5758 -0.4595  1.2105
23279SOL    HW272376   8.795   6.169  10.023  0.0437  0.1334  0.7815
23280SOL     OW72377   6.557   7.150   4.939  0.0612  0.5343 -0.1886
23280SOL    HW172378   6.639   7.109   4.966  0.2911  1.6006  0.7708
23280SOL    HW272379   6.582   7.233   4.901 -0.5546  0.7250 -0.1894
23281SOL     OW72380   8.106   7.624   2.407 -0.0961 -0.3242 -0.2598
23281SOL    HW172381   8.072   7.652   2.322  2.0500  0.5114 -0.8789
23281SOL    HW272382   8.046   7.664   2.471 -0.1823  1.2842 -1.3147
23282SOL     OW72383   7.088   3.395   6.533  0.4381 -0.7455  0.3370
23282SOL    HW172384   7.035   3.374   6.610 -1.2217  0.1655 -0.5277
23282SOL    HW272385   7.044   3.470   6.493  1.6347 -0.8182 -1.1678
23283SOL     OW72386   0.065   4.732   2.702 -0.2047  0.5901  0.8737
23283SOL    HW172387   0.067   4.726   2.797  0.9196  0.8372  0.8700
23283SOL    HW272388   0.132   4.671   2.672 -2.0710 -1.1303  0.1491
23284SOL     OW72389   1.591   1.961   6.646 -0.1397  0.1984 -0.0694
23284SOL    HW172390   1.635   1.922   6.571  0.0122 -0.7120  0.4832
23284SOL    HW272391   1.614   2.054   6.642 -0.5080  0.2446 -1.3990
23285SOL     OW72392   8.593   7.294   4.470  0.6270  0.4288 -0.3278
23285SOL    HW172393   8.533   7.233   4.426  0.6942  0.3980 -0.3766
23285SOL    HW272394   8.668   7.301   4.411  1.1183 -0.2945  0.1978
23286SOL     OW72395   4.812   3.992   5.289 -0.5539  0.4264  0.2155
23286SOL    HW172396   4.823   4.065   5.228  0.7270  0.5309  0.5653
23286SOL    HW272397   4.896   3.984   5.334 -1.0904 -0.4325  1.1113
23287SOL     OW72398   9.489   5.008   7.963  0.0428  0.5090  0.0843
23287SOL    HW172399   9.438   5.057   7.899 -0.1515  1.0192  0.6202
23287SOL    HW272400   9.443   4.925   7.974  0.5666  0.0622 -1.0909
23288SOL     OW72401   6.733   3.113   1.241  0.0364 -0.0894  0.7278
23288SOL    HW172402   6.760   3.057   1.313  0.1213  0.8648  1.4495
23288SOL    HW272403   6.768   3.199   1.263 -1.0895  0.5168  0.2238
23289SOL     OW72404   6.088   3.611   5.931 -0.3539  0.0494  0.4388
23289SOL    HW172405   6.026   3.682   5.944  0.0139  0.4857 -0.1101
23289SOL    HW272406   6.076   3.585   5.839  0.6027  0.4682  0.1842
23290SOL     OW72407   0.652   5.819   2.995  0.0933 -0.1867 -0.4406
23290SOL    HW172408   0.629   5.775   3.077  0.2846 -0.9367 -0.7874
23290SOL    HW272409   0.608   5.769   2.927 -0.0166  0.4000 -0.8075
23291SOL     OW72410   3.910   2.016   4.547 -0.1034 -0.1905  0.8274
23291SOL    HW172411   3.924   1.940   4.491 -0.3361  0.1702  0.2795
23291SOL    HW272412   3.980   2.012   4.612  0.8580  0.0317 -0.1891
23292SOL     OW72413   7.257   1.083   8.189  0.3295 -0.0494  0.2185
23292SOL    HW172414   7.203   1.142   8.137 -3.5615 -3.0119  0.7037
23292SOL    HW272415   7.256   1.000   8.140 -1.5477 -2.2266  3.7930
23293SOL     OW72416   8.303   3.594   0.260 -0.5476 -0.3691 -0.2765
23293SOL    HW172417   8.247   3.518   0.277 -1.2967  0.4075  0.7782
23293SOL    HW272418   8.267   3.634   0.181 -3.4158  1.8588  2.0301
23294SOL     OW72419   1.512   9.278   7.494 -0.3166  0.0214 -0.0057
23294SOL    HW172420   1.535   9.253   7.584 -0.6503 -1.0277 -0.2004
23294SOL    HW272421   1.579   9.341   7.468 -0.9722  1.3287  1.4449
23295SOL     OW72422   6.749   1.500   5.140  0.0597 -0.1689 -0.3165
23295SOL    HW172423   6.681   1.446   5.179 -0.0137 -1.4147 -2.0743
23295SOL    HW272424   6.789   1.443   5.073  1.2962  1.2952 -0.8610
23296SOL     OW72425   0.384   4.432   8.918  0.5153  0.4867 -0.0034
23296SOL    HW172426   0.347   4.421   8.830 -1.7299  1.9884  0.6850
23296SOL    HW272427   0.435   4.353   8.933  0.9688  0.2290 -2.6750
23297SOL     OW72428   0.151   6.552   8.808 -0.1639 -0.2508 -0.9082
23297SOL    HW172429   0.089   6.625   8.806  0.3277  0.2044  0.5026
23297SOL    HW272430   0.098   6.476   8.834 -0.1455  0.1119  0.1706
23298SOL     OW72431   7.133   6.787   5.587  0.0744  0.3369 -0.7265
23298SOL    HW172432   7.128   6.696   5.617 -2.0138  0.7941  0.3970
23298SOL    HW272433   7.164   6.780   5.496 -0.6643 -1.5543 -0.8614
23299SOL     OW72434   7.938   9.401   2.410 -0.7023  0.4380 -0.0369
23299SOL    HW172435   8.013   9.421   2.355 -1.0622 -0.1654 -0.7539
23299SOL    HW272436   7.891   9.332   2.363 -0.6082 -0.6156  1.3799
23300SOL     OW72437   5.202   9.046   6.999  0.1485 -0.5908 -0.2202
23300SOL    HW172438   5.257   9.083   6.929 -0.4759 -1.4740 -1.1927
23300SOL    HW272439   5.113   9.063   6.970 -0.1141  0.5857  1.2204
23301SOL     OW72440   2.736   9.062   7.435 -0.0410 -0.2237 -0.2375
23301SOL    HW172441   2.735   8.975   7.396 -2.3168  0.3450 -1.5003
23301SOL    HW272442   2.806   9.058   7.501 -0.5737 -3.1728  0.1902
23302SOL     OW72443   5.440   8.272   9.184  0.1316 -0.1121  0.0873
23302SOL    HW172444   5.379   8.205   9.214  0.7706 -0.9520 -0.4890
23302SOL    HW272445   5.494   8.228   9.119 -0.1572  1.2538 -1.0944
23303SOL     OW72446   9.112   5.297   5.208 -0.0440 -0.4079  0.1685
23303SOL    HW172447   9.118   5.355   5.283 -0.7127 -0.7369  0.4793
23303SOL    HW272448   9.137   5.211   5.242 -1.1460 -0.7138  0.2021
23304SOL     OW72449   2.297   3.841   7.671 -0.5690 -0.0918  0.0051
23304SOL    HW172450   2.328   3.904   7.606 -1.1030 -0.7817 -0.9263
23304SOL    HW272451   2.310   3.755   7.629 -1.2986 -0.5141  0.6455
23305SOL     OW72452  10.060   6.106   0.128  0.4631 -0.3655  0.2100
23305SOL    HW172453  10.037   6.042   0.195 -0.7515 -2.2495 -1.9158
23305SOL    HW272454   9.976   6.131   0.090  1.1313  0.7242 -0.5519
23306SOL     OW72455   5.295  10.107   7.342 -0.0186 -0.3067  0.1896
23306SOL    HW172456   5.359  10.122   7.272 -0.3131  1.8207  0.3373
23306SOL    HW272457   5.306  10.015   7.366  0.4373 -0.9328 -2.3105
23307SOL     OW72458   9.340   2.911   0.023 -0.8809 -0.1572  0.5603
23307SOL    HW172459   9.388   2.984   0.064  1.5352 -1.0949 -0.5079
23307SOL    HW272460   9.372   2.833   0.069  1.1624 -1.1254 -2.3807
23308SOL     OW72461   8.625  10.121   9.511  0.2236  0.4150 -0.0051
23308SOL    HW172462   8.642  10.191   9.448  0.2291 -0.7538 -1.3250
23308SOL    HW272463   8.710  10.105   9.553  0.6759 -0.0854 -1.0677
23309SOL     OW72464   0.434   5.466   4.393  0.0805 -0.4184 -0.1297
23309SOL    HW172465   0.465   5.543   4.346  0.0392 -0.3425 -0.0345
23309SOL    HW272466   0.494   5.396   4.369 -0.0276 -0.4148 -0.4098
23310SOL     OW72467   5.373   8.797   9.784 -0.0666  0.1123 -0.0828
23310SOL    HW172468   5.318   8.721   9.807  1.0239 -0.6711 -0.0335
23310SOL    HW272469   5.376   8.796   9.689 -0.4248  0.3598 -0.0965
23311SOL     OW72470   1.962   1.100   2.233  0.3479 -0.2583 -0.3477
23311SOL    HW172471   1.986   1.079   2.323 -0.0518  1.5709  0.2130
23311SOL    HW272472   2.003   1.032   2.180  1.2226 -0.9139  1.1539
23312SOL     OW72473   0.607   6.897   9.829  0.5748  0.1579  0.5702
23312SOL    HW172474   0.676   6.921   9.767  2.5514 -0.7488  2.3746
23312SOL    HW272475   0.647   6.908   9.915 -1.4690 -0.6080  1.6492
23313SOL     OW72476   7.258   4.706   7.754  0.2696 -0.6188 -0.0125
23313SOL    HW172477   7.208   4.644   7.807 -0.4250  0.1009  0.1737
23313SOL    HW272478   7.250   4.789   7.800  0.9446 -0.3172 -0.4316
23314SOL     OW72479   1.448   3.127   2.116 -1.2076  0.4651 -0.2466
23314SOL    HW172480   1.454   3.222   2.106 -1.6230  0.5825  0.5910
23314SOL    HW272481   1.386   3.114   2.188  0.0269 -0.4108  0.6787
23315SOL     OW72482   1.120   1.892   9.229  0.0849 -0.7742  0.4672
23315SOL    HW172483   1.132   1.951   9.155 -0.0188 -0.2589  0.8611
23315SOL    HW272484   1.136   1.804   9.192 -0.2903 -0.5522 -0.2343
23316SOL     OW72485   1.750   3.788   1.882  0.1359 -0.1754  0.1805
23316SOL    HW172486   1.691   3.744   1.821 -0.4727 -0.0649  0.6846
23316SOL    HW272487   1.758   3.726   1.955 -2.3553  1.3742  1.8528
23317SOL     OW72488  10.099   3.221   5.739 -0.5304  0.2471  0.1091
23317SOL    HW172489  10.115   3.307   5.777 -0.8873  0.7301 -0.8238
23317SOL    HW272490  10.010   3.225   5.705  0.4347  0.5089 -2.5636
23318SOL     OW72491   3.859   1.390   8.138  0.0810 -0.0316 -0.1646
23318SOL    HW172492   3.936   1.445   8.152  0.8934 -0.6584 -1.9951
23318SOL    HW272493   3.892   1.300   8.147 -0.8217 -0.2763  0.8166
23319SOL     OW72494   2.851   1.089   3.869 -0.4510 -0.1732 -0.1306
23319SOL    HW172495   2.868   1.178   3.898  0.9144 -0.5060  0.0997
23319SOL    HW272496   2.924   1.068   3.810 -0.7313 -1.1553 -0.1408
23320SOL     OW72497   6.077   0.926   8.484  0.0885  0.5249  0.1431
23320SOL    HW172498   6.140   0.984   8.441 -1.0893  0.1183 -2.2040
23320SOL    HW272499   6.126   0.845   8.500  0.5071  0.6496 -0.5031
23321SOL     OW72500   6.980   1.559   8.878 -0.0880 -0.1489  0.2162
23321SOL    HW172501   6.899   1.510   8.893 -0.5671  0.2936 -0.8891
23321SOL    HW272502   6.959   1.619   8.806  0.9998  0.4881  0.4157
23322SOL     OW72503   5.585   5.892   8.347  0.3204 -0.1744  0.4052
23322SOL    HW172504   5.664   5.838   8.355 -0.0496 -0.7880 -0.0822
23322SOL    HW272505   5.513   5.830   8.350 -0.2436  0.5407  2.7683
23323SOL     OW72506   9.507   4.836   2.139  0.2137 -0.1862  0.0166
23323SOL    HW172507   9.560   4.764   2.105  0.8850  0.4301 -0.2541
23323SOL    HW272508   9.462   4.799   2.215 -1.4081 -1.6157 -1.5929
23324SOL     OW72509  10.039   4.243   9.203 -0.3756  0.0021 -0.1072
23324SOL    HW172510   9.966   4.229   9.143  0.6556 -0.1918 -1.3348
23324SOL    HW272511  10.041   4.164   9.258  0.2051 -0.9425 -1.4596
23325SOL     OW72512   2.300   8.863   6.595  0.4354  0.1378  0.4760
23325SOL    HW172513   2.243   8.928   6.638  3.4658  1.6876  2.3264
23325SOL    HW272514   2.258   8.847   6.511 -2.3239  1.8121  1.4466
23326SOL     OW72515   1.245   4.612   7.350 -0.0894  0.6794 -0.7996
23326SOL    HW172516   1.171   4.556   7.327 -0.5506  0.8704  0.1767
23326SOL    HW272517   1.230   4.633   7.442  1.9113 -0.4107 -0.2014
23327SOL     OW72518   7.108   2.527   8.141 -0.4159 -0.2204 -0.1158
23327SOL    HW172519   7.095   2.433   8.154 -0.6151 -0.1808 -0.0258
23327SOL    HW272520   7.020   2.565   8.151 -0.1188  0.1355  1.2583
23328SOL     OW72521   3.555   3.102   6.021  0.0052 -0.6778  0.7935
23328SOL    HW172522   3.510   3.050   6.088 -0.9316  1.1126  1.5953
23328SOL    HW272523   3.633   3.136   6.066 -0.4579  0.2617  0.9083
23329SOL     OW72524   7.779   2.330  10.113 -0.3016  0.3155 -0.3143
23329SOL    HW172525   7.797   2.393  10.043 -1.2613  0.7665 -0.1588
23329SOL    HW272526   7.842   2.351  10.182  0.6036 -0.0937 -1.0160
23330SOL     OW72527   5.355   5.875   3.244  0.0394  0.3014  0.0562
23330SOL    HW172528   5.420   5.821   3.291 -1.3996 -1.1587  0.4166
23330SOL    HW272529   5.358   5.842   3.154  2.0132  2.3655 -0.6849
23331SOL     OW72530   5.484   0.631   0.252 -0.4838 -0.0802  0.3849
23331SOL    HW172531   5.525   0.708   0.213 -1.0859  0.2694  0.4394
23331SOL    HW272532   5.547   0.601   0.319 -0.5238  0.7132  0.7799
23332SOL     OW72533   5.793   7.328   8.196 -0.0327 -0.5207  0.3433
23332SOL    HW172534   5.795   7.392   8.268  0.0449 -1.2947  1.0344
23332SOL    HW272535   5.786   7.382   8.117 -0.3869  0.3341  0.9416
23333SOL     OW72536   0.854   3.037   5.313  0.1753  0.4326 -0.3756
23333SOL    HW172537   0.783   3.054   5.375  0.8666  2.0785 -0.0244
23333SOL    HW272538   0.890   3.123   5.293  0.4504 -0.1561 -2.4954
23334SOL     OW72539   6.653   6.965   6.445 -0.1951 -0.0839 -0.2953
23334SOL    HW172540   6.745   6.985   6.463  0.0785 -0.6793 -0.9983
23334SOL    HW272541   6.614   6.954   6.531  0.6048 -0.7527 -0.0098
23335SOL     OW72542   9.466   0.256   3.131 -0.1089  0.1864 -0.1027
23335SOL    HW172543   9.424   0.183   3.086 -0.1197  0.3385 -0.3424
23335SOL    HW272544   9.441   0.333   3.080  0.1121  0.3281  0.0008
23336SOL     OW72545   0.901   9.217   5.693 -0.4373  0.2212  0.0077
23336SOL    HW172546   0.984   9.204   5.739 -0.8564  1.2040  1.0626
23336SOL    HW272547   0.926   9.252   5.608  0.3207 -1.1991 -0.3759
23337SOL     OW72548   2.204   2.318   8.972 -0.2223 -0.2030  0.0103
23337SOL    HW172549   2.224   2.225   8.968 -1.8103 -0.5463 -0.5537
23337SOL    HW272550   2.128   2.323   9.031  0.9979  0.9351  1.5064
23338SOL     OW72551   6.686   7.857   6.428  0.2925  0.3180 -0.3230
23338SOL    HW172552   6.638   7.863   6.345  1.0154  0.1427 -0.7573
23338SOL    HW272553   6.648   7.927   6.481 -0.1476  0.4658 -0.8127
23339SOL     OW72554  10.189   3.707   3.963  0.2226 -0.6114 -0.2201
23339SOL    HW172555  10.153   3.779   4.015  0.3586  0.0129 -0.9900
23339SOL    HW272556  10.114   3.651   3.944 -0.0428 -0.1860 -0.4150
23340SOL     OW72557   7.234   3.106   9.570 -0.5034  0.6569  0.4354
23340SOL    HW172558   7.248   3.076   9.480 -2.1053  0.1885  0.3157
23340SOL    HW272559   7.301   3.062   9.621 -1.2158 -1.1580 -0.1476
23341SOL     OW72560   2.145   5.584   0.270 -0.3710  0.2539  0.3071
23341SOL    HW172561   2.099   5.511   0.229 -2.6084  1.3433  0.8135
23341SOL    HW272562   2.124   5.576   0.363 -2.5753  2.8540  0.0878
23342SOL     OW72563   0.190   1.308   2.503 -0.5744  0.1968  0.2218
23342SOL    HW172564   0.247   1.324   2.578  0.8562 -1.3746 -0.5138
23342SOL    HW272565   0.200   1.386   2.449 -0.0170  0.4300  0.6545
23343SOL     OW72566  10.181   7.082   5.511  0.1941  0.2351  0.0013
23343SOL    HW172567  10.218   7.165   5.480  0.0718  0.4057  0.3112
23343SOL    HW272568  10.251   7.019   5.497  0.2798  0.3832 -0.2578
23344SOL     OW72569   3.686   3.685   1.358 -0.1974 -0.2231 -0.5656
23344SOL    HW172570   3.700   3.592   1.373 -1.1377 -0.2820 -0.0508
23344SOL    HW272571   3.627   3.713   1.428  2.4953  1.4302  1.1808
23345SOL     OW72572   0.467   6.409   2.192  0.3274 -0.5189  0.0370
23345SOL    HW172573   0.444   6.360   2.271 -3.6121  1.0433  0.0035
23345SOL    HW272574   0.429   6.359   2.120  2.7496 -1.2403 -0.7937
23346SOL     OW72575   2.262   9.817   3.916  0.0777  0.1628 -0.3809
23346SOL    HW172576   2.300   9.768   3.844 -1.3774 -0.4510 -0.7489
23346SOL    HW272577   2.334   9.870   3.950  1.6846 -2.2218  0.0500
23347SOL     OW72578   7.100   8.726   7.791 -0.4465 -0.4586 -0.1078
23347SOL    HW172579   7.178   8.672   7.787  0.9003  1.3419  1.3987
23347SOL    HW272580   7.070   8.731   7.700  2.0487  0.0380 -0.9421
23348SOL     OW72581   5.813   8.904  10.152  0.1618 -0.5588 -0.0151
23348SOL    HW172582   5.832   8.998  10.146 -1.5690 -0.1304  0.8535
23348SOL    HW272583   5.769   8.884  10.069 -2.1737  0.1008  0.9980
23349SOL     OW72584   3.408   6.936   7.980  0.0565 -0.0049 -0.0548
23349SOL    HW172585   3.451   6.850   7.975  0.2417  0.1313 -0.8033
23349SOL    HW272586   3.326   6.918   8.026  0.1371 -0.5643 -0.1159
23350SOL     OW72587   2.354   6.370   8.888 -0.0981  0.2402  0.2442
23350SOL    HW172588   2.331   6.456   8.922 -0.9678 -0.1953  0.7642
23350SOL    HW272589   2.281   6.346   8.831  0.1496 -0.1485  0.0878
23351SOL     OW72590   2.773   3.398   4.667  0.2224  0.1617 -0.5379
23351SOL    HW172591   2.725   3.472   4.705 -0.5897 -0.7715  0.2709
23351SOL    HW272592   2.825   3.363   4.739 -0.7659 -1.1643 -0.4621
23352SOL     OW72593   6.755   7.342   2.218 -0.1723 -0.1621 -0.8410
23352SOL    HW172594   6.839   7.356   2.175 -0.0599 -0.0917 -0.6017
23352SOL    HW272595   6.745   7.417   2.277  0.1540 -0.7659  0.0023
23353SOL     OW72596   6.468   5.704   1.063  0.1140  0.2972 -0.0617
23353SOL    HW172597   6.528   5.741   0.998  0.3144  0.2261  0.0812
23353SOL    HW272598   6.401   5.658   1.011  0.3779  0.0793 -0.2115
23354SOL     OW72599   0.348   5.752   5.416 -0.6622 -0.0933  0.0485
23354SOL    HW172600   0.395   5.728   5.336 -0.2101 -0.6084  0.4650
23354SOL    HW272601   0.266   5.791   5.385  0.0308  0.8007 -0.6903
23355SOL     OW72602   5.210   0.420   6.364  1.0539  0.3322 -0.2045
23355SOL    HW172603   5.166   0.454   6.442  1.9793  0.1067  0.4266
23355SOL    HW272604   5.155   0.449   6.291  0.5538  1.1409  0.4809
23356SOL     OW72605   6.449   2.504   0.794 -0.1497  0.7177  0.0282
23356SOL    HW172606   6.503   2.479   0.869 -1.4704 -1.3661  0.3346
23356SOL    HW272607   6.407   2.586   0.821 -0.4729  0.0820  1.5012
23357SOL     OW72608   9.763   5.652   5.689  0.2047 -0.3461  0.1468
23357SOL    HW172609   9.857   5.663   5.703  0.2424 -0.3748 -0.0867
23357SOL    HW272610   9.755   5.621   5.599 -0.0497 -0.0587  0.0694
23358SOL     OW72611   0.663   0.687   0.282 -0.4621 -0.8442 -0.0537
23358SOL    HW172612   0.599   0.618   0.268 -1.2805 -0.3938  1.2866
23358SOL    HW272613   0.613   0.768   0.273 -0.5283 -0.5131  2.9156
23359SOL     OW72614   4.373   7.493   4.522  0.4388 -0.1743  0.1426
23359SOL    HW172615   4.413   7.541   4.594  1.3129 -1.6872  0.6863
23359SOL    HW272616   4.355   7.560   4.456 -0.5501  1.2537  1.8256
23360SOL     OW72617   5.671   8.780   9.924  0.2572  0.0254  0.0476
23360SOL    HW172618   5.739   8.769   9.857  0.3741 -2.0845  0.4619
23360SOL    HW272619   5.593   8.805   9.876  0.6259 -0.3809 -0.7659
23361SOL     OW72620   9.753   1.716   5.577 -0.3777  0.2106 -0.8364
23361SOL    HW172621   9.846   1.703   5.598 -0.2503  1.0208 -0.8938
23361SOL    HW272622   9.734   1.805   5.606 -1.1592  0.0187 -0.7631
23362SOL     OW72623   8.628   4.768   0.819 -0.3213 -0.7400 -0.8167
23362SOL    HW172624   8.638   4.742   0.910  1.4003 -1.5039 -1.2103
23362SOL    HW272625   8.588   4.855   0.823  1.0978 -0.1443  0.6859
23363SOL     OW72626   0.109   0.263   9.805  0.3109  0.7227 -0.0699
23363SOL    HW172627   0.178   0.197   9.813 -0.1807  0.3798  1.4357
23363SOL    HW272628   0.132   0.312   9.726  0.3719 -1.6048 -1.5213
23364SOL     OW72629   4.073   4.669   1.136  0.3614 -0.0808 -0.5131
23364SOL    HW172630   4.016   4.599   1.105 -1.2397 -0.1520  2.3736
23364SOL    HW272631   4.141   4.676   1.070 -0.2728 -3.3480 -1.6116
23365SOL     OW72632   7.013   8.874   2.857 -0.2848 -0.3520 -0.0846
23365SOL    HW172633   6.946   8.807   2.874 -0.8814  0.0733 -0.7123
23365SOL    HW272634   7.065   8.837   2.786  1.1112 -1.3512  1.4037
23366SOL     OW72635   8.477   6.426   2.220  0.7151 -0.2174  0.4902
23366SOL    HW172636   8.557   6.478   2.218 -0.3658  1.4957  1.2992
23366SOL    HW272637   8.420   6.465   2.154 -0.4729  0.2673  1.7663
23367SOL     OW72638   1.361   5.248   9.974  0.1429  0.5547 -0.0177
23367SOL    HW172639   1.382   5.256  10.067  1.0681  1.2253 -0.2724
23367SOL    HW272640   1.441   5.211   9.935 -0.6969 -0.9625 -0.3496
23368SOL     OW72641   3.124   3.356   7.724  0.3331 -0.0647 -0.7460
23368SOL    HW172642   3.102   3.443   7.692  0.7814  0.4237  0.2487
23368SOL    HW272643   3.050   3.331   7.779  1.4270  0.8430  1.1789
23369SOL     OW72644   5.864   0.354   0.789 -0.4093  0.6387  0.1819
23369SOL    HW172645   5.782   0.305   0.788 -1.3967  2.1142  2.9417
23369SOL    HW272646   5.910   0.320   0.866  1.3458  0.2187 -1.0303
23370SOL     OW72647   0.659   1.040   0.568 -0.0835  0.9893 -0.0975
23370SOL    HW172648   0.733   1.023   0.626  0.5424  1.8886 -0.6078
23370SOL    HW272649   0.582   1.023   0.621  0.4883  0.7807  0.6777
23371SOL     OW72650   0.881   0.891   4.067  0.3775 -0.1812  0.1333
23371SOL    HW172651   0.823   0.833   4.116  1.5315 -0.4314  1.2237
23371SOL    HW272652   0.849   0.980   4.085 -1.2399 -0.4431 -1.3468
23372SOL     OW72653   5.494   3.011   9.388  0.4273  0.1088  0.3698
23372SOL    HW172654   5.517   3.078   9.323  0.9165  0.3712  0.8134
23372SOL    HW272655   5.488   2.930   9.337 -0.2875  0.5071 -0.1917
23373SOL     OW72656   6.763   4.848   3.676 -0.0496  0.2240  0.7329
23373SOL    HW172657   6.682   4.894   3.654  1.1028  1.6999 -0.4798
23373SOL    HW272658   6.783   4.876   3.766 -1.5604 -1.1656  1.5311
23374SOL     OW72659   7.644   1.108   7.501  0.4170 -0.5892  0.2360
23374SOL    HW172660   7.678   1.192   7.530  1.1420 -0.7799 -0.0756
23374SOL    HW272661   7.553   1.126   7.477  0.3268 -0.0693  0.9600
23375SOL     OW72662   8.337   4.456   8.607  0.1827 -0.4958  0.3333
23375SOL    HW172663   8.371   4.366   8.606  0.8062 -0.2568 -2.5863
23375SOL    HW272664   8.398   4.503   8.665 -0.7226 -2.1074  2.6967
23376SOL     OW72665   1.021   2.870   2.296  0.4186 -0.2535  0.0596
23376SOL    HW172666   1.073   2.928   2.240  0.2338 -1.5735 -1.5342
23376SOL    HW272667   0.941   2.918   2.313  2.3149  2.0393  2.9876
23377SOL     OW72668   0.121   0.109   5.248 -0.4487 -0.3552  0.0012
23377SOL    HW172669   0.166   0.070   5.172 -0.4648 -1.4318  0.5404
23377SOL    HW272670   0.182   0.096   5.321  0.3404  2.2547 -0.1561
23378SOL     OW72671   8.569   7.761   3.840 -0.5974 -0.0088 -0.0086
23378SOL    HW172672   8.595   7.689   3.898 -1.0311 -1.5755 -1.7187
23378SOL    HW272673   8.638   7.764   3.774 -0.5080  1.2620  0.1373
23379SOL     OW72674   1.623   8.193   0.984 -0.1129 -0.6955 -0.3649
23379SOL    HW172675   1.672   8.129   1.035 -1.2349 -2.8287 -1.9037
23379SOL    HW272676   1.686   8.227   0.920  0.6190  0.1469  0.7881
23380SOL     OW72677   8.456   9.517   9.959  0.0301  0.5582  0.1220
23380SOL    HW172678   8.424   9.500  10.047 -1.1302  0.6702 -0.2625
23380SOL    HW272679   8.504   9.600   9.966  0.6944  0.1192  0.8146
23381SOL     OW72680   4.871  10.046   6.614 -0.1796  0.1624 -0.0422
23381SOL    HW172681   4.778  10.039   6.595 -0.6737  1.0975  1.9235
23381SOL    HW272682   4.890  10.139   6.608  0.7046 -0.0612 -0.7694
23382SOL     OW72683   3.752   8.024   3.853 -0.4698 -0.1461 -0.4051
23382SOL    HW172684   3.680   8.073   3.813 -0.3337  1.0287  0.7720
23382SOL    HW272685   3.829   8.078   3.839 -0.5006  0.5258  1.8384
23383SOL     OW72686   7.410   2.839   7.151 -0.5574  0.2496  0.1780
23383SOL    HW172687   7.461   2.819   7.229  0.3184  1.0981 -0.1684
23383SOL    HW272688   7.458   2.798   7.079 -0.7100  0.4886 -0.0631
23384SOL     OW72689   5.609   2.740   9.496  0.0496  0.1601 -0.1269
23384SOL    HW172690   5.514   2.752   9.490  0.4181  2.7381 -1.8404
23384SOL    HW272691   5.622   2.693   9.578 -2.6169  1.1250  0.9310
23385SOL     OW72692   1.099   2.885   9.622  0.0417 -0.1299  0.2972
23385SOL    HW172693   1.015   2.842   9.637  0.4641 -1.0089  0.1559
23385SOL    HW272694   1.106   2.891   9.527 -0.0547  0.3320  0.3186
23386SOL     OW72695   8.678   5.565   9.826  0.0987  0.0076  0.3162
23386SOL    HW172696   8.596   5.614   9.829  0.6161  0.7974  1.9885
23386SOL    HW272697   8.745   5.631   9.814  0.5515 -0.5983 -0.5937
23387SOL     OW72698   6.380   5.604   3.234  0.8866 -0.2779 -0.1050
23387SOL    HW172699   6.400   5.628   3.325 -0.8512 -1.3521  0.5878
23387SOL    HW272700   6.465   5.586   3.195  1.7313  0.9860  1.0707
23388SOL     OW72701   0.172   5.674   3.255  0.3354 -0.7715 -0.2235
23388SOL    HW172702   0.089   5.696   3.212  0.4621  1.4656  0.6251
23388SOL    HW272703   0.152   5.598   3.310 -0.6128 -1.5960 -1.6673
23389SOL     OW72704   5.379   2.226   8.537  0.0064 -0.7664 -0.4977
23389SOL    HW172705   5.426   2.303   8.571  0.7238 -0.8521 -1.2794
23389SOL    HW272706   5.305   2.215   8.597  0.4525 -0.0565  0.2011
23390SOL     OW72707   8.492   0.826   6.544  0.0100  0.2240 -0.0343
23390SOL    HW172708   8.408   0.824   6.589 -0.8463  0.8945 -1.5698
23390SOL    HW272709   8.514   0.919   6.536  0.3751  0.0952 -0.5797
23391SOL     OW72710   2.825   4.618   8.066 -0.2504 -0.0491 -0.3533
23391SOL    HW172711   2.810   4.710   8.088 -1.6253 -0.4942  0.6386
23391SOL    HW272712   2.800   4.570   8.145  1.0002 -1.2428 -0.6621
23392SOL     OW72713   2.129   1.545   5.079  0.1246  0.2312 -0.3567
23392SOL    HW172714   2.168   1.632   5.094  4.6209 -2.0466  2.1001
23392SOL    HW272715   2.120   1.539   4.984  1.0361  2.8125 -0.6509
23393SOL     OW72716   4.510   0.538   2.302  0.0703  0.5786 -0.4508
23393SOL    HW172717   4.543   0.467   2.358  0.7997  0.7954 -0.6116
23393SOL    HW272718   4.434   0.499   2.257 -1.0362  0.6483  1.2953
23394SOL     OW72719   9.196  10.083   4.102 -0.5623  0.0401 -0.2199
23394SOL    HW172720   9.115  10.044   4.133 -1.6516  2.1948 -0.3077
23394SOL    HW272721   9.213  10.039   4.018 -0.2831 -2.1706  0.9479
23395SOL     OW72722   9.335   4.518   9.942 -0.0157 -0.1143 -0.3230
23395SOL    HW172723   9.331   4.557  10.029 -1.2491 -0.3629 -0.2572
23395SOL    HW272724   9.267   4.451   9.942 -0.6324  0.4725 -1.7603
23396SOL     OW72725   1.239   2.815   2.731  0.0985 -0.2526 -0.5003
23396SOL    HW172726   1.153   2.840   2.764  0.1684 -0.0521 -0.4721
23396SOL    HW272727   1.289   2.793   2.809  0.0302 -0.5025 -0.5267
23397SOL     OW72728   3.349   3.750   5.254 -0.6628 -1.1546 -0.4857
23397SOL    HW172729   3.303   3.833   5.239 -0.7660 -1.2293 -0.5891
23397SOL    HW272730   3.413   3.745   5.182  0.3462 -0.4694  0.3506
23398SOL     OW72731   8.348   8.467  10.008 -0.0836 -0.0714 -0.6221
23398SOL    HW172732   8.364   8.539   9.948 -2.1937 -0.7551 -2.0637
23398SOL    HW272733   8.384   8.390   9.964  0.0171 -0.2824 -0.1790
23399SOL     OW72734   2.721  10.112   1.062  0.2786  0.2939  0.0035
23399SOL    HW172735   2.701  10.173   0.991 -0.0381  0.4243  0.2054
23399SOL    HW272736   2.641  10.107   1.113  1.4246  2.5751  2.1268
23400SOL     OW72737   0.720   6.609   7.683  0.4167 -0.3006  0.7162
23400SOL    HW172738   0.740   6.670   7.612 -2.8801 -1.3581 -1.2317
23400SOL    HW272739   0.769   6.530   7.660  1.0934  0.1023  0.7801
23401SOL     OW72740   9.039   8.393   1.459 -0.2105 -0.2941  0.2898
23401SOL    HW172741   9.087   8.464   1.418  1.3598 -1.0485  0.7983
23401SOL    HW272742   9.057   8.401   1.552 -0.2576 -1.1929  0.3797
23402SOL     OW72743   9.585   6.681   0.115 -0.4804 -0.1246 -0.4101
23402SOL    HW172744   9.491   6.681   0.129 -0.4649  0.7471 -0.2969
23402SOL    HW272745   9.607   6.589   0.101 -1.2144 -0.4410  0.4494
23403SOL     OW72746   6.294   4.741   5.238  0.1626  0.1578 -0.1303
23403SOL    HW172747   6.365   4.781   5.187  1.1318  0.2514  1.2430
23403SOL    HW272748   6.318   4.759   5.329 -2.2786  1.2616  0.3357
23404SOL     OW72749   9.069   8.382   2.138 -0.6200 -0.3316  0.1589
23404SOL    HW172750   9.129   8.307   2.143 -0.1642  0.0876  1.0646
23404SOL    HW272751   9.050   8.404   2.229 -0.7995  0.6164 -0.1029
23405SOL     OW72752   0.494   1.260   3.951 -0.1129 -0.5911 -0.0221
23405SOL    HW172753   0.471   1.345   3.912  0.7693 -0.4799 -0.3114
23405SOL    HW272754   0.416   1.235   4.001 -0.2935  0.4988  0.2562
23406SOL     OW72755   7.554   6.348   7.739 -0.2929 -0.2734  0.1253
23406SOL    HW172756   7.589   6.343   7.828  0.9476  1.1092 -0.2357
23406SOL    HW272757   7.490   6.419   7.743  1.1405  1.1096 -0.4595
23407SOL     OW72758   4.275   5.423   3.236 -0.1363 -0.1853  0.7708
23407SOL    HW172759   4.209   5.482   3.272 -1.1398 -1.7244  1.5218
23407SOL    HW272760   4.254   5.337   3.274  1.5549 -0.9411  0.0579
23408SOL     OW72761   1.312   6.173   0.964 -0.1452  0.1014  0.2458
23408SOL    HW172762   1.263   6.230   1.023 -1.1840 -1.0688  0.5445
23408SOL    HW272763   1.249   6.105   0.938  0.7340 -0.2659 -0.9994
23409SOL     OW72764   7.817   5.872   0.435 -0.4738  0.1767  0.1825
23409SOL    HW172765   7.804   5.786   0.397 -0.7179 -0.3403  1.4160
23409SOL    HW272766   7.733   5.917   0.424 -0.3694  0.2378 -0.3864
23410SOL     OW72767   8.059   7.804   8.250 -0.5979 -0.5768 -0.3586
23410SOL    HW172768   8.143   7.758   8.260 -0.7466 -1.2728 -2.1716
23410SOL    HW272769   8.052   7.822   8.157 -2.4951 -0.5873 -0.2455
23411SOL     OW72770   9.299   6.795   9.533  0.0345 -0.0867 -0.2500
23411SOL    HW172771   9.356   6.766   9.604  0.7633  0.7326 -0.4916
23411SOL    HW272772   9.224   6.736   9.537 -1.3339  1.7474  3.0403
23412SOL     OW72773   2.028   3.422   8.202  0.0656 -0.2470  0.2404
23412SOL    HW172774   2.067   3.339   8.173  1.0255  0.8411 -1.6791
23412SOL    HW272775   2.014   3.471   8.121 -1.1524  1.1996  1.2999
23413SOL     OW72776   0.742   0.069   6.414 -0.2355  0.5768  0.0028
23413SOL    HW172777   0.767  -0.020   6.392 -1.3858  0.6295 -1.5416
23413SOL    HW272778   0.797   0.091   6.490  2.6046 -0.1803 -1.7470
23414SOL     OW72779   3.228   3.436   9.597  0.3123  0.0464 -0.0762
23414SOL    HW172780   3.144   3.439   9.643  0.5061  1.5050  0.2045
23414SOL    HW272781   3.218   3.365   9.534 -0.4047 -1.1386  1.3469
23415SOL     OW72782   4.005   5.037   9.412 -0.1535  0.5218 -0.1034
23415SOL    HW172783   3.980   4.981   9.485  1.1738 -0.2691 -0.2424
23415SOL    HW272784   3.923   5.058   9.368 -1.0828  1.8947  2.2442
23416SOL     OW72785   8.006   8.208   2.196 -0.1583 -0.0309 -0.1979
23416SOL    HW172786   7.913   8.228   2.206 -0.6890 -1.0921 -2.6178
23416SOL    HW272787   8.036   8.273   2.132  0.2037 -1.1730 -1.1988
23417SOL     OW72788   3.025   1.889   3.546 -0.1556  0.0466  0.6983
23417SOL    HW172789   2.958   1.820   3.542 -2.0376  1.8679 -0.1774
23417SOL    HW272790   3.080   1.873   3.470 -0.7680 -0.3055  0.3208
23418SOL     OW72791   1.444   8.343   8.340 -0.4110  1.0218 -0.5774
23418SOL    HW172792   1.368   8.293   8.370 -0.4871  0.5008 -1.6052
23418SOL    HW272793   1.518   8.302   8.384 -0.6846  1.2970  0.1459
23419SOL     OW72794   4.004   7.403   5.363 -0.0300  0.2433 -0.2082
23419SOL    HW172795   4.036   7.440   5.446 -1.5313  0.2393  0.3799
23419SOL    HW272796   4.049   7.454   5.295  1.8359 -0.2815  0.5845
23420SOL     OW72797   6.269   3.609   4.393  0.0135 -0.0124 -0.1744
23420SOL    HW172798   6.312   3.640   4.314 -0.4478  1.2228  0.0604
23420SOL    HW272799   6.340   3.597   4.456  0.3446 -0.7231 -0.6655
23421SOL     OW72800   2.572   6.760   3.341 -0.4509  0.5318  0.6957
23421SOL    HW172801   2.646   6.726   3.290 -0.3673  1.3797  0.2486
23421SOL    HW272802   2.592   6.735   3.431 -0.8318 -1.3904  0.2756
23422SOL     OW72803   1.784   1.834   7.909  0.1474  0.1730  0.6386
23422SOL    HW172804   1.840   1.868   7.979  3.3102 -1.1659 -1.1348
23422SOL    HW272805   1.819   1.873   7.829 -0.3033 -2.0388 -0.6984
23423SOL     OW72806   2.051   4.975   8.247  0.4127 -0.4093 -0.8120
23423SOL    HW172807   1.961   4.950   8.272  0.0314  0.6319 -1.1536
23423SOL    HW272808   2.082   5.028   8.320 -0.2089  1.4782 -1.8897
23424SOL     OW72809   3.687   9.092   4.840 -0.3325  0.0594  0.3462
23424SOL    HW172810   3.687   9.081   4.745 -0.0708  0.3633  0.3122
23424SOL    HW272811   3.618   9.033   4.871 -0.0518 -0.4525  0.0171
23425SOL     OW72812   6.692  10.061   6.527 -0.4825  0.2772 -0.0815
23425SOL    HW172813   6.679  10.052   6.622  0.3776 -1.6734 -0.1223
23425SOL    HW272814   6.623  10.120   6.499 -1.9704 -0.6748  1.4708
23426SOL     OW72815   3.014   5.709   1.516  0.6217 -0.4993 -0.6478
23426SOL    HW172816   2.943   5.645   1.524 -0.2529  0.1937 -2.4833
23426SOL    HW272817   3.045   5.700   1.426  0.0414  2.0586 -1.1682
23427SOL     OW72818   9.182   5.337   2.009  0.0253  0.7252  0.4534
23427SOL    HW172819   9.162   5.274   2.079 -0.7448 -1.3169 -1.5497
23427SOL    HW272820   9.277   5.347   2.013  0.1636 -0.6196  0.7796
23428SOL     OW72821   2.275   4.742   2.050  0.1525 -0.4995 -0.4849
23428SOL    HW172822   2.285   4.796   1.971 -2.3715  0.6222 -0.0711
23428SOL    HW272823   2.355   4.690   2.053  1.3168  1.0877 -2.5339
23429SOL     OW72824   1.450   2.764   0.668 -0.1975  0.6233 -0.1709
23429SOL    HW172825   1.537   2.782   0.632 -0.3422  0.5634 -0.5493
23429SOL    HW272826   1.429   2.676   0.637 -0.7581  0.9751 -0.7968
23430SOL     OW72827   3.398   5.224  10.026  0.2611  0.2137  0.3078
23430SOL    HW172828   3.481   5.181  10.046  0.6618  1.5607  1.6652
23430SOL    HW272829   3.365   5.253  10.111 -1.1462  0.5249 -0.3245
23431SOL     OW72830   7.878   6.432   6.761 -0.4461 -0.1857  0.2848
23431SOL    HW172831   7.863   6.517   6.720 -0.3317  0.7352  2.1377
23431SOL    HW272832   7.942   6.390   6.704 -0.5066  0.9480 -0.6499
23432SOL     OW72833   6.120   3.715   1.231  0.0688 -0.1139 -0.6200
23432SOL    HW172834   6.208   3.713   1.269 -0.8379  0.4139  1.6393
23432SOL    HW272835   6.080   3.633   1.261 -0.3090 -0.1914 -1.3441
23433SOL     OW72836   0.201   7.320   0.444  0.0358 -0.2807  0.2739
23433SOL    HW172837   0.204   7.415   0.453  0.3710 -0.4056  1.5174
23433SOL    HW272838   0.270   7.300   0.381 -0.6109  0.3717 -0.6626
23434SOL     OW72839   1.868   4.657   3.342  0.2620 -0.7084 -0.0549
23434SOL    HW172840   1.782   4.663   3.299 -0.8989  0.1262  2.2861
23434SOL    HW272841   1.897   4.748   3.351  1.2296 -0.9657 -0.5065
23435SOL     OW72842   2.293   1.788   1.927 -0.1081 -0.1377  0.8039
23435SOL    HW172843   2.260   1.801   2.016 -0.4924 -1.1408  0.8169
23435SOL    HW272844   2.370   1.844   1.922 -0.3770  0.3236  1.5961
23436SOL     OW72845   7.446   5.553   9.216 -0.0369 -0.5358 -0.7100
23436SOL    HW172846   7.451   5.561   9.120  1.7355  0.7569 -0.5303
23436SOL    HW272847   7.537   5.547   9.244 -0.5960 -2.4361  0.8103
23437SOL     OW72848   1.953   0.307   4.417 -0.1729 -0.2970 -0.2610
23437SOL    HW172849   1.931   0.217   4.391  0.8963 -1.2692  2.0691
23437SOL    HW272850   1.869   0.353   4.418 -1.1193 -1.9993  1.1699
23438SOL     OW72851   1.071   4.830   4.132  0.4860  0.0106 -0.0505
23438SOL    HW172852   1.062   4.791   4.045  0.6274 -1.5290  0.6122
23438SOL    HW272853   1.159   4.805   4.160 -1.0707 -3.1658  2.2813
23439SOL     OW72854   7.145   2.243   4.695 -0.0566  0.2645  0.0391
23439SOL    HW172855   7.069   2.187   4.682  0.0523 -0.1903  1.2859
23439SOL    HW272856   7.220   2.184   4.683  0.0711  0.3222  0.5378
23440SOL     OW72857   3.699   9.836   1.912  0.0453 -0.3673 -0.6528
23440SOL    HW172858   3.695   9.931   1.920 -2.1682 -0.2739 -2.3467
23440SOL    HW272859   3.725   9.820   1.821 -0.5438 -1.3812 -0.6520
23441SOL     OW72860   8.926   1.210   1.260 -0.1252  0.0591  0.0110
23441SOL    HW172861   8.930   1.210   1.164 -0.0290  2.2988 -0.0110
23441SOL    HW272862   8.842   1.251   1.280  0.1646  0.2201  0.8958
23442SOL     OW72863  10.044   7.560   9.863 -0.0007 -0.0363 -0.1103
23442SOL    HW172864   9.977   7.530   9.925 -0.6907  0.8009 -0.4332
23442SOL    HW272865  10.088   7.480   9.834 -0.1994 -0.5040  0.8571
23443SOL     OW72866   3.201   3.520   5.816 -0.6620  0.4611  0.0272
23443SOL    HW172867   3.156   3.602   5.796  0.6914  1.4948  1.0928
23443SOL    HW272868   3.258   3.541   5.890  0.3812 -1.2053 -0.2649
23444SOL     OW72869   2.865   0.542   9.136  0.0194  0.2706 -0.1580
23444SOL    HW172870   2.833   0.630   9.159 -0.8054 -0.2615  0.7405
23444SOL    HW272871   2.938   0.526   9.196 -1.2358 -0.5409  1.1965
23445SOL     OW72872   7.986   2.663   8.796  0.6667 -0.0999 -0.0881
23445SOL    HW172873   8.005   2.680   8.889 -0.9368  1.3184  0.0202
23445SOL    HW272874   7.912   2.602   8.798  0.5176  0.0701 -0.4168
23446SOL     OW72875  10.013   4.348   0.374 -0.0218 -0.3968  0.6682
23446SOL    HW172876   9.939   4.405   0.398  0.2345  0.7628 -1.1933
23446SOL    HW272877  10.083   4.408   0.350  0.6327 -1.4857 -0.2179
23447SOL     OW72878   3.519   3.632   7.876 -0.2783  0.0776  0.1845
23447SOL    HW172879   3.533   3.598   7.788 -0.2233  0.0619  0.1992
23447SOL    HW272880   3.605   3.666   7.902  0.3069 -1.9945  1.1155
23448SOL     OW72881   4.858   1.083   3.206 -0.3154 -0.4900 -0.0978
23448SOL    HW172882   4.855   1.000   3.158  0.0718 -1.3942  1.4165
23448SOL    HW272883   4.945   1.119   3.187 -0.2958 -0.6684 -0.3495
23449SOL     OW72884   9.213   9.243   3.409  0.1687 -0.3790 -0.2812
23449SOL    HW172885   9.214   9.147   3.414 -1.8219 -0.3711  0.4506
23449SOL    HW272886   9.291   9.265   3.358  0.7285 -2.3782 -0.3232
23450SOL     OW72887   8.240   9.130   2.046 -0.2282  0.2559 -0.8440
23450SOL    HW172888   8.272   9.115   2.134 -1.3573  0.0657 -0.4577
23450SOL    HW272889   8.270   9.219   2.025 -1.7485  1.1430  0.5608
23451SOL     OW72890   7.516   0.341   7.931 -0.3246  0.4640  0.0153
23451SOL    HW172891   7.578   0.395   7.882  0.4744 -1.2456 -0.8742
23451SOL    HW272892   7.432   0.386   7.921  0.4951  2.0337  0.0563
23452SOL     OW72893   5.471   7.348   3.359  0.5041 -0.1634  0.6772
23452SOL    HW172894   5.481   7.255   3.338  0.3640 -0.6126  2.5162
23452SOL    HW272895   5.545   7.367   3.417 -0.4071  0.4543  1.6356
23453SOL     OW72896   5.542   8.390   6.583 -0.3121  0.4370  0.4341
23453SOL    HW172897   5.502   8.331   6.647 -0.3185 -0.2790 -0.2159
23453SOL    HW272898   5.573   8.464   6.634  0.6410 -0.6237  1.4349
23454SOL     OW72899   1.878   6.052   0.733 -0.3061  0.8955  0.3229
23454SOL    HW172900   1.829   5.992   0.790 -0.1181  0.4887  0.0641
23454SOL    HW272901   1.816   6.121   0.712 -0.2152  1.3275  1.4549
23455SOL     OW72902   9.787   1.540   4.178  0.6446  0.4037  0.1664
23455SOL    HW172903   9.854   1.505   4.119  0.4391  1.5447 -0.7478
23455SOL    HW272904   9.817   1.516   4.265  1.9310  0.3734 -0.2768
23456SOL     OW72905   8.108   5.189   3.695  0.0559 -0.0139 -0.2881
23456SOL    HW172906   8.043   5.152   3.755 -0.2902 -0.5646 -0.9862
23456SOL    HW272907   8.104   5.283   3.711 -0.7599 -0.0640 -0.1618
23457SOL     OW72908   0.129  10.039   5.618  0.4082  0.1084  0.6136
23457SOL    HW172909   0.154   9.949   5.599  1.3805  0.4632  0.1736
23457SOL    HW272910   0.191  10.092   5.569 -1.1135  1.0316 -0.3675
23458SOL     OW72911   2.246   4.908   7.634 -0.1341 -0.5403 -0.0157
23458SOL    HW172912   2.332   4.948   7.644 -0.0179 -0.1144 -2.4019
23458SOL    HW272913   2.239   4.847   7.707  1.0094  1.4843  1.8144
23459SOL     OW72914   3.156   8.319   3.810  0.1826  0.1974 -0.2700
23459SOL    HW172915   3.186   8.265   3.882  2.3692  0.1148 -1.2234
23459SOL    HW272916   3.090   8.376   3.849  0.2996 -0.8205  1.4649
23460SOL     OW72917   7.371   6.305   2.113  0.3196  0.0008 -0.6008
23460SOL    HW172918   7.334   6.302   2.201  1.4785 -0.5026 -0.1100
23460SOL    HW272919   7.376   6.213   2.086  2.4730 -0.0482 -0.0950
23461SOL     OW72920   2.859   0.720   6.544  0.6354  0.3709 -0.3299
23461SOL    HW172921   2.882   0.811   6.523 -0.6947  0.5288 -1.1791
23461SOL    HW272922   2.782   0.728   6.600  1.4822 -0.1928  0.9172
23462SOL     OW72923   3.691   8.371   6.202 -0.0526 -0.2047  0.1954
23462SOL    HW172924   3.639   8.427   6.144  0.0559 -1.5904 -1.2685
23462SOL    HW272925   3.740   8.433   6.257  0.0156  1.1555 -1.3529
23463SOL     OW72926   4.582   8.936   5.950  0.2000 -0.0758 -0.1945
23463SOL    HW172927   4.657   8.964   6.001  0.5803  0.3219 -0.9581
23463SOL    HW272928   4.531   8.881   6.009  0.5570  0.4998  0.6441
23464SOL     OW72929   4.567   2.402   6.469 -0.2139  0.2158 -0.1921
23464SOL    HW172930   4.482   2.401   6.513  0.3073  1.9470  0.8726
23464SOL    HW272931   4.574   2.315   6.429 -2.4315  0.0294 -0.2164
23465SOL     OW72932   5.751   4.843   5.499 -0.1869 -0.1566 -0.2550
23465SOL    HW172933   5.724   4.845   5.591  0.5519  0.1979 -0.0454
23465SOL    HW272934   5.846   4.829   5.502 -0.5090 -2.8895 -1.0005
23466SOL     OW72935   2.733   9.369   8.780 -0.6211  0.3955 -0.0249
23466SOL    HW172936   2.740   9.439   8.715  0.2614 -0.3807 -0.7863
23466SOL    HW272937   2.824   9.343   8.797 -0.8904  0.0559  0.9392
23467SOL     OW72938   5.436   6.525   7.761 -0.0761 -0.1613 -0.1723
23467SOL    HW172939   5.478   6.514   7.846  0.5703 -2.1336 -0.7337
23467SOL    HW272940   5.507   6.515   7.698 -0.4346  1.8920 -0.9525
23468SOL     OW72941   2.856   9.737   2.198  0.3903  0.3704  0.5461
23468SOL    HW172942   2.951   9.732   2.203  0.2653 -1.7060  1.5516
23468SOL    HW272943   2.829   9.763   2.286 -0.0353 -0.6593  0.7303
23469SOL     OW72944  10.045   1.926   5.879  0.0824  0.2018 -0.0672
23469SOL    HW172945  10.077   1.987   5.945 -1.3069  2.1817 -1.1688
23469SOL    HW272946   9.953   1.913   5.901 -0.5413  1.3176 -1.8816
23470SOL     OW72947   1.869   1.406   9.963 -0.1893  1.0185  0.1953
23470SOL    HW172948   1.842   1.327   9.917 -1.1220  0.6584  1.3128
23470SOL    HW272949   1.952   1.430   9.923 -0.2291 -0.1415 -0.6223
23471SOL     OW72950   8.825  10.118   2.091  0.2558 -0.3119 -0.2582
23471SOL    HW172951   8.739  10.078   2.104  0.2660 -0.1350  0.4012
23471SOL    HW272952   8.888  10.051   2.118  0.3377 -0.5989 -1.1678
23472SOL     OW72953   9.084   8.020   7.464  0.8583  0.0777 -0.2846
23472SOL    HW172954   9.168   8.021   7.417 -0.4610  0.8058 -2.6696
23472SOL    HW272955   9.022   8.059   7.404 -1.0960  0.1641  1.7360
23473SOL     OW72956   8.580   7.004   4.998 -0.7645 -0.1011  0.0005
23473SOL    HW172957   8.561   7.052   4.917 -2.1094  0.3394  0.5725
23473SOL    HW272958   8.529   6.924   4.992 -0.7745 -0.1241  0.3588
23474SOL     OW72959   7.996   6.887   0.080 -0.1434 -0.1593  0.3367
23474SOL    HW172960   8.043   6.965   0.049 -0.6505  0.2731  0.6494
23474SOL    HW272961   7.904   6.911   0.075 -0.3238 -0.9456 -0.0981
23475SOL     OW72962   3.483   1.472   4.941  0.7205  0.2859 -0.2446
23475SOL    HW172963   3.571   1.462   4.905  0.1845 -1.1927 -1.2073
23475SOL    HW272964   3.485   1.556   4.987  2.2293  0.9234 -1.4267
23476SOL     OW72965   1.277   9.812   4.163  0.0669 -0.0783  0.6507
23476SOL    HW172966   1.192   9.773   4.148 -0.1443  0.0958  1.3605
23476SOL    HW272967   1.338   9.739   4.161 -0.3445 -0.4645  2.1377
23477SOL     OW72968   5.991   2.972  10.117  0.0453  0.2199 -0.3649
23477SOL    HW172969   5.938   2.960  10.039 -0.9500 -0.3725  0.3916
23477SOL    HW272970   6.069   2.918  10.102 -0.3215 -0.1952 -0.7714
23478SOL     OW72971   4.575   5.275   8.272 -0.3318 -0.6189 -0.0188
23478SOL    HW172972   4.611   5.358   8.241 -0.7118 -0.7949 -0.9686
23478SOL    HW272973   4.548   5.230   8.192  1.0501 -2.2088  0.3913
23479SOL     OW72974   8.381   1.553   8.077 -0.0811 -0.6621 -0.1900
23479SOL    HW172975   8.370   1.617   8.007  2.8469  0.2016  0.0560
23479SOL    HW272976   8.438   1.486   8.040 -0.7023 -1.5859  0.5094
23480SOL     OW72977   2.347   4.181  10.028 -0.2192  0.1830  0.0666
23480SOL    HW172978   2.437   4.151  10.016 -0.1540  0.3916  0.0238
23480SOL    HW272979   2.306   4.170   9.943  0.3977  2.1768 -0.5152
23481SOL     OW72980   3.620   3.502   4.523 -0.2743 -0.0454 -0.0966
23481SOL    HW172981   3.585   3.506   4.612  2.2423 -0.5424  0.9761
23481SOL    HW272982   3.652   3.590   4.505 -1.1122  0.1459 -0.6522
23482SOL     OW72983   7.823   5.606   7.766 -0.9823  0.1481 -0.5085
23482SOL    HW172984   7.917   5.626   7.759 -0.8028 -0.5632 -0.1922
23482SOL    HW272985   7.796   5.585   7.676 -0.8295  0.3226 -0.5949
23483SOL     OW72986   9.365   6.374   4.597  0.2921 -0.1929  0.0294
23483SOL    HW172987   9.310   6.451   4.589 -1.2803 -1.2284  0.5752
23483SOL    HW272988   9.311   6.302   4.563  1.3858 -1.1903  0.3622
23484SOL     OW72989   0.742   5.702   0.872 -0.4259 -0.0045  0.1532
23484SOL    HW172990   0.807   5.639   0.840  0.0656  0.2642  0.6242
23484SOL    HW272991   0.787   5.750   0.942 -1.2490 -0.0709  0.7304
23485SOL     OW72992   6.580   6.308   6.474  0.1161 -0.0786 -0.2105
23485SOL    HW172993   6.622   6.394   6.471  1.2354 -0.6675 -3.4406
23485SOL    HW272994   6.648   6.247   6.443 -1.4175 -1.7811 -0.3169
23486SOL     OW72995   6.788   6.810   5.657  0.1893 -0.6947 -0.3459
23486SOL    HW172996   6.809   6.790   5.748  0.3072  0.9901  0.0073
23486SOL    HW272997   6.756   6.727   5.621  0.5883 -1.4875  1.0892
23487SOL     OW72998   0.516   8.987   6.047  0.0340 -0.2897 -0.1113
23487SOL    HW172999   0.559   8.976   5.963 -1.1909  0.1633 -0.8189
23487SOL    HW273000   0.517   8.900   6.087 -2.0037 -1.2027 -1.9100
23488SOL     OW73001   5.399   0.887   5.337 -0.1310 -0.0547  0.2715
23488SOL    HW173002   5.329   0.822   5.328 -0.1413  0.0370 -0.2903
23488SOL    HW273003   5.371   0.942   5.411 -0.4760 -0.2370  0.2780
23489SOL     OW73004   7.062   5.497   9.147  0.6029  0.5271  0.1996
23489SOL    HW173005   7.021   5.490   9.061  2.0146  0.8781 -0.5117
23489SOL    HW273006   7.037   5.583   9.179 -0.9695 -0.0951  0.7034
23490SOL     OW73007   0.411  10.187   0.068  0.1885  0.2535 -0.3218
23490SOL    HW173008   0.323  10.188   0.106 -0.5178 -1.0907 -1.8417
23490SOL    HW273009   0.416  10.269   0.019  0.1605  0.8053  0.5871
23491SOL     OW73010   8.441   7.507   3.547  0.1432 -0.8791  0.8219
23491SOL    HW173011   8.384   7.444   3.590 -0.2747 -1.2005 -0.1700
23491SOL    HW273012   8.421   7.498   3.454 -0.2024  0.9910  0.6803
23492SOL     OW73013   3.652   8.834   6.413  0.3993  0.5334 -0.0459
23492SOL    HW173014   3.651   8.865   6.504  1.5316 -0.7263  0.4121
23492SOL    HW273015   3.678   8.911   6.362  3.2159  0.3890  1.0798
23493SOL     OW73016   6.858   4.677   9.900  0.0232 -0.2748  0.4874
23493SOL    HW173017   6.810   4.595   9.910  0.9797 -1.0205 -0.8577
23493SOL    HW273018   6.936   4.666   9.954  0.0942 -0.2041  0.3990
23494SOL     OW73019   9.911   2.314   6.555 -0.1955 -0.3702  0.0129
23494SOL    HW173020   9.890   2.291   6.465  0.3280 -0.5082 -0.0744
23494SOL    HW273021   9.851   2.262   6.608  0.2615 -1.1274 -0.2196
23495SOL     OW73022   6.250   7.776   6.087  0.2085 -0.0464  0.3664
23495SOL    HW173023   6.238   7.825   6.168  0.0806 -1.6512  1.3334
23495SOL    HW273024   6.281   7.689   6.115  0.1267 -0.6303 -1.2859
23496SOL     OW73025   0.637   0.203   9.355 -0.2048  0.4313  0.2177
23496SOL    HW173026   0.570   0.176   9.418  0.8482 -1.0728  0.7205
23496SOL    HW273027   0.719   0.195   9.402  0.4474  1.0742 -0.7875
23497SOL     OW73028   7.137   1.622   7.961 -0.0115 -0.0590  0.2826
23497SOL    HW173029   7.141   1.567   8.039 -0.4415  0.1497  0.4524
23497SOL    HW273030   7.223   1.613   7.920 -0.1906 -1.0971  0.1372
23498SOL     OW73031   8.676   6.783   0.507  0.3226 -0.1510  0.0272
23498SOL    HW173032   8.675   6.820   0.595 -0.2038 -1.4264  0.5688
23498SOL    HW273033   8.753   6.822   0.465  0.0350  1.1952  0.7217
23499SOL     OW73034   8.471   2.691   0.374  0.2289  0.2417 -0.0151
23499SOL    HW173035   8.404   2.749   0.338  0.5286  0.2788 -0.5137
23499SOL    HW273036   8.426   2.607   0.384 -0.1099  0.4698  0.3914
23500SOL     OW73037   0.317   8.740   5.338  0.6735  0.0444  0.3194
23500SOL    HW173038   0.349   8.665   5.389  1.0591 -1.5503 -2.1497
23500SOL    HW273039   0.390   8.802   5.340  0.1933  0.5784  2.7451
23501SOL     OW73040   8.174   5.423   6.582 -0.1402  0.2749  0.0629
23501SOL    HW173041   8.167   5.518   6.590  0.7228  0.3520 -0.0348
23501SOL    HW273042   8.233   5.409   6.509 -1.0706 -0.3593 -0.5774
23502SOL     OW73043   1.722   7.762   8.375 -1.0973  0.6323  0.2888
23502SOL    HW173044   1.696   7.835   8.318  0.0865  1.5836  0.9518
23502SOL    HW273045   1.807   7.733   8.340  0.6354  2.5353  2.7424
23503SOL     OW73046   3.338   7.333   1.119 -0.0976 -0.7984 -0.6783
23503SOL    HW173047   3.368   7.293   1.200  0.9375 -0.1597 -0.7398
23503SOL    HW273048   3.265   7.278   1.091 -0.7206 -0.7854  0.8849
23504SOL     OW73049   5.844   8.536   4.963  0.4265 -0.1832 -0.5535
23504SOL    HW173050   5.932   8.499   4.963  0.6229  0.2421  0.4763
23504SOL    HW273051   5.786   8.462   4.951  0.7688 -0.9795  2.3726
23505SOL     OW73052   3.913   3.626   1.958 -0.4188 -0.1070  0.1604
23505SOL    HW173053   3.905   3.716   1.927 -1.3365  0.2948  1.5363
23505SOL    HW273054   3.841   3.616   2.021 -0.1520 -1.7116  0.2203
23506SOL     OW73055   0.869   8.803   5.300  0.1419  0.2131 -0.4056
23506SOL    HW173056   0.871   8.770   5.210  0.4951 -2.2964  0.4878
23506SOL    HW273057   0.812   8.742   5.347 -0.6357  1.9205  0.9355
23507SOL     OW73058   1.917   3.079   8.056  0.0429 -0.7260  0.1979
23507SOL    HW173059   1.865   3.011   8.099  0.9835 -0.7730  1.2797
23507SOL    HW273060   1.988   3.097   8.117  0.5305  0.3123 -0.6633
23508SOL     OW73061   1.883   8.437   5.115  0.3952  0.1453 -0.0191
23508SOL    HW173062   1.943   8.468   5.183  0.4096  1.0345 -0.4303
23508SOL    HW273063   1.809   8.401   5.163  0.5838  0.4161  0.4743
23509SOL     OW73064   5.576   7.068   8.095 -0.0785 -0.2457 -0.5353
23509SOL    HW173065   5.547   6.977   8.096 -2.4576  0.4754 -0.9746
23509SOL    HW273066   5.655   7.069   8.150 -0.0915 -2.5249 -0.4286
23510SOL     OW73067   3.199   8.761   0.907 -0.3571 -0.0518  0.1432
23510SOL    HW173068   3.187   8.848   0.945  3.0435  0.1751  0.8534
23510SOL    HW273069   3.201   8.776   0.812  0.3910  0.6943  0.2676
23511SOL     OW73070   7.316   0.356   4.959  0.2316  0.2199  0.6594
23511SOL    HW173071   7.409   0.341   4.941  0.5170  1.3415  1.1370
23511SOL    HW273072   7.273   0.350   4.874  0.7448 -0.3012  0.4388
23512SOL     OW73073   5.125   9.770   3.687 -0.2876 -0.1000 -0.1368
23512SOL    HW173074   5.116   9.683   3.725  2.1948 -1.5130 -2.5817
23512SOL    HW273075   5.059   9.773   3.618 -1.8150  0.7966  1.3368
23513SOL     OW73076   0.782   9.777   5.651 -0.4405 -0.1502  0.6715
23513SOL    HW173077   0.828   9.844   5.700  0.6218 -0.3587 -0.0293
23513SOL    HW273078   0.708   9.822   5.610 -1.2943  0.0369  2.3886
23514SOL     OW73079   9.246  10.015   5.894 -0.2236  0.7907  0.7776
23514SOL    HW173080   9.309  10.041   5.826 -0.5414 -2.1015 -0.7075
23514SOL    HW273081   9.178  10.082   5.890  0.6409  1.6304 -0.5302
23515SOL     OW73082   2.386   2.044   9.041 -0.4258 -0.6174 -0.0452
23515SOL    HW173083   2.399   2.124   9.092  0.9415 -0.7358 -0.1826
23515SOL    HW273084   2.474   2.008   9.031 -1.0664 -2.3068  0.2880
23516SOL     OW73085   0.703   4.625   5.974  0.0132 -0.4830 -0.0240
23516SOL    HW173086   0.735   4.550   5.923  0.0169  0.1411 -0.9492
23516SOL    HW273087   0.766   4.635   6.045  1.1213 -0.1266 -1.0449
23517SOL     OW73088   0.198   2.653   4.993  0.3511 -0.0684  0.3087
23517SOL    HW173089   0.185   2.729   4.936 -0.4317  0.0716  0.6660
23517SOL    HW273090   0.259   2.597   4.946 -0.6989 -0.1976 -0.9095
23518SOL     OW73091   4.182   5.166   3.316  0.2753 -0.3326 -0.0767
23518SOL    HW173092   4.198   5.138   3.406  1.5163  0.1386 -0.1412
23518SOL    HW273093   4.090   5.147   3.301  0.5914 -2.5056  0.5492
23519SOL     OW73094   2.245   2.240   2.260  0.1870 -0.3411 -0.9375
23519SOL    HW173095   2.167   2.203   2.301 -0.4263  1.3903 -0.4754
23519SOL    HW273096   2.318   2.198   2.305 -0.4921  0.5501  1.0540
23520SOL     OW73097   2.697   8.382   2.047  0.5416  0.2697 -0.2433
23520SOL    HW173098   2.791   8.382   2.062  0.5003 -1.2058  0.1055
23520SOL    HW273099   2.673   8.289   2.047 -0.6852  0.5692 -1.7307
23521SOL     OW73100   2.581   2.834   2.129  0.0167  0.1524  0.5586
23521SOL    HW173101   2.671   2.864   2.139  0.0778 -0.1456  0.9269
23521SOL    HW273102   2.546   2.836   2.218 -0.2199 -0.1119  0.4692
23522SOL     OW73103   6.037   4.770   1.081  0.1864  0.2575 -0.1438
23522SOL    HW173104   5.987   4.742   1.158 -0.0666 -2.8466 -1.3747
23522SOL    HW273105   6.004   4.858   1.062 -1.0301  0.3575  2.2022
23523SOL     OW73106   0.408   3.217   6.624 -0.3435  0.1419 -0.1601
23523SOL    HW173107   0.484   3.203   6.681 -0.2428  0.4497 -0.2239
23523SOL    HW273108   0.420   3.304   6.587 -1.3600  0.7179  0.8110
23524SOL     OW73109   9.712   1.615   7.525 -0.3279  0.5777  0.3615
23524SOL    HW173110   9.784   1.618   7.587 -0.6735  0.1400  0.7878
23524SOL    HW273111   9.711   1.702   7.484  1.4245  0.0929 -0.7808
23525SOL     OW73112   6.039   1.537   2.625 -0.5207 -0.1976  0.1874
23525SOL    HW173113   5.956   1.543   2.672  0.2044  0.3883  1.4241
23525SOL    HW273114   6.075   1.626   2.630 -0.2061 -0.2370 -1.0884
23526SOL     OW73115   3.320   7.220   8.013 -0.5941  0.1938  0.3312
23526SOL    HW173116   3.353   7.130   8.013  0.5481  0.5948  0.3386
23526SOL    HW273117   3.273   7.229   8.096 -2.5910 -1.0421 -0.6416
23527SOL     OW73118   2.733   4.643  10.145  0.1737 -0.0443  0.2188
23527SOL    HW173119   2.742   4.718  10.205 -2.0997  1.0346 -0.7387
23527SOL    HW273120   2.718   4.683  10.059  1.9134 -1.5879 -0.8403
23528SOL     OW73121   9.402   0.491   8.480 -0.0335 -0.3186 -0.0959
23528SOL    HW173122   9.387   0.497   8.385 -1.7555 -1.0114  0.1053
23528SOL    HW273123   9.334   0.431   8.511  0.4222  0.0189  1.6071
23529SOL     OW73124   2.215   7.149   6.519  0.0863  0.2563 -0.1348
23529SOL    HW173125   2.164   7.206   6.577 -0.9919 -0.8094 -0.0038
23529SOL    HW273126   2.289   7.121   6.573 -0.7529 -0.5006  0.6500
23530SOL     OW73127   9.525   3.100   3.343  0.6674 -0.0054  0.0575
23530SOL    HW173128   9.474   3.181   3.347  1.9318  0.9159 -1.6436
23530SOL    HW273129   9.616   3.129   3.340  1.1494 -1.5003 -0.1380
23531SOL     OW73130   1.936   0.552   3.036  0.0942 -0.0629  0.3809
23531SOL    HW173131   1.853   0.593   3.013  0.8020  0.6222 -1.0955
23531SOL    HW273132   1.957   0.586   3.123 -1.1915 -0.2994  0.7880
23532SOL     OW73133   1.146   2.125   7.023 -0.2303  0.7542 -0.1362
23532SOL    HW173134   1.100   2.082   7.094 -2.5196  0.7654 -1.5745
23532SOL    HW273135   1.236   2.092   7.030 -1.4182 -2.6352  0.1106
23533SOL     OW73136   4.272   5.148   0.104 -0.3841  0.2854  1.1302
23533SOL    HW173137   4.248   5.147   0.011 -1.7721  1.5414  1.4592
23533SOL    HW273138   4.337   5.078   0.112 -0.6512 -0.2120 -0.6748
23534SOL     OW73139   2.609   8.375   8.459 -0.9200 -0.5390  0.2513
23534SOL    HW173140   2.630   8.421   8.378 -1.0033 -1.4357 -0.2881
23534SOL    HW273141   2.546   8.308   8.432 -1.7715 -0.1539  1.2398
23535SOL     OW73142   1.999   6.735   8.174 -0.6198 -0.6401 -0.1861
23535SOL    HW173143   1.926   6.705   8.229 -0.6148 -0.6250 -0.1704
23535SOL    HW273144   1.994   6.831   8.178  0.4497 -0.6132  1.2491
23536SOL     OW73145   8.126   1.458   9.441 -0.1329  0.2632 -0.2648
23536SOL    HW173146   8.161   1.483   9.356  1.1696  1.6384  0.6511
23536SOL    HW273147   8.190   1.395   9.476 -0.5262 -0.1030 -0.2059
23537SOL     OW73148   5.145   1.285   2.675  0.5566 -0.1072  0.1691
23537SOL    HW173149   5.167   1.301   2.583 -1.5392 -0.8541 -0.4937
23537SOL    HW273150   5.094   1.361   2.701 -3.5304 -2.3198 -0.9564
23538SOL     OW73151   1.905   2.742   5.376 -0.4826 -0.1375  0.4427
23538SOL    HW173152   1.872   2.724   5.288 -1.0707 -2.2608  1.0571
23538SOL    HW273153   1.843   2.804   5.413  0.2739  1.4739 -0.9506
23539SOL     OW73154   7.204   8.019   9.654 -0.0636  0.0702  0.2707
23539SOL    HW173155   7.148   7.948   9.684  0.7389 -0.3741  0.7382
23539SOL    HW273156   7.144   8.092   9.637 -0.9300 -0.8073 -0.5283
23540SOL     OW73157   4.058   1.402   5.123 -0.3815 -0.1765  0.5444
23540SOL    HW173158   4.120   1.424   5.054 -0.1024 -1.6729  0.3040
23540SOL    HW273159   4.057   1.479   5.180  0.3922  0.5336 -0.3927
23541SOL     OW73160   8.232   6.150   1.582  0.1080  0.5133  0.1854
23541SOL    HW173161   8.173   6.225   1.582  0.7912  1.0568 -0.7799
23541SOL    HW273162   8.312   6.182   1.541  0.7201 -0.5012  0.5660
23542SOL     OW73163   6.641  10.105   4.517  0.8939  0.6949 -0.7032
23542SOL    HW173164   6.664  10.145   4.433 -0.5553  0.1492 -1.3581
23542SOL    HW273165   6.607  10.019   4.495 -0.2182  0.8411  0.3851
23543SOL     OW73166   9.317   5.650   3.553 -0.1495  0.0352  0.1643
23543SOL    HW173167   9.315   5.555   3.542  0.6425  0.0485 -0.1120
23543SOL    HW273168   9.307   5.663   3.647  0.2704 -0.3423  0.2647
23544SOL     OW73169  10.184   7.553   8.286 -1.0872  0.3582 -0.2460
23544SOL    HW173170  10.090   7.559   8.270 -1.0994  0.4676 -0.1335
23544SOL    HW273171  10.211   7.643   8.304 -1.7005 -0.1629  3.7692
23545SOL     OW73172   0.281   2.804   1.907 -0.5473  0.1555  0.4556
23545SOL    HW173173   0.335   2.879   1.881 -0.6065  0.4827  1.2765
23545SOL    HW273174   0.205   2.808   1.849 -1.5243  1.8932  1.7971
23546SOL     OW73175   5.044   0.344   9.921 -0.2247 -0.6364  0.1645
23546SOL    HW173176   5.102   0.390   9.861 -1.0362 -2.0304 -1.7521
23546SOL    HW273177   5.098   0.326   9.998  1.5568 -0.9055 -1.1205
23547SOL     OW73178   3.423   7.052   0.435  0.5751 -0.1021  0.3892
23547SOL    HW173179   3.477   6.998   0.378  2.8353  1.6141  0.8429
23547SOL    HW273180   3.346   6.998   0.455 -0.4374 -0.6612 -4.4743
23548SOL     OW73181   3.160   0.380  10.190 -0.2409 -0.2089 -0.0309
23548SOL    HW173182   3.203   0.333  10.261  0.6195  0.2633 -0.2241
23548SOL    HW273183   3.225   0.446  10.163 -0.7092 -0.1370 -0.9890
23549SOL     OW73184   7.888   5.230   1.094  0.4619  0.0908  0.5296
23549SOL    HW173185   7.827   5.272   1.155 -1.0969 -0.9287 -0.2762
23549SOL    HW273186   7.971   5.226   1.141 -0.0869  1.5153  1.6618
23550SOL     OW73187   2.975   3.679   6.928 -0.2167 -0.6381  0.1196
23550SOL    HW173188   3.001   3.741   6.996  0.9718 -0.6760 -0.2830
23550SOL    HW273189   3.007   3.718   6.847 -2.8074  0.0753 -0.6191
23551SOL     OW73190   5.133   5.608   2.529 -0.6877  0.2514 -0.2551
23551SOL    HW173191   5.067   5.624   2.596  0.2221  1.6101  0.3421
23551SOL    HW273192   5.110   5.665   2.456  0.9711  2.2757  0.7700
23552SOL     OW73193   3.691   9.259   9.558  0.1975  0.0124  0.5688
23552SOL    HW173194   3.640   9.309   9.495  1.5236  2.2234  1.1867
23552SOL    HW273195   3.628   9.233   9.626 -0.5751  0.5150  0.0429
23553SOL     OW73196   5.496   4.820   4.009  0.2110 -0.2414 -0.7876
23553SOL    HW173197   5.570   4.872   4.040 -0.1189 -0.5024  0.4397
23553SOL    HW273198   5.480   4.755   4.078 -0.3652 -0.9941 -1.6052
23554SOL     OW73199   5.068   5.216   2.978 -0.0418  0.1517 -0.1972
23554SOL    HW173200   5.135   5.209   3.046  0.2106 -1.6659 -0.6099
23554SOL    HW273201   5.073   5.307   2.949  2.6586 -0.1026 -0.6344
23555SOL     OW73202   8.094   6.250   0.836 -0.3682  0.0497  0.3524
23555SOL    HW173203   8.026   6.205   0.786 -2.1443  0.4753  2.3112
23555SOL    HW273204   8.072   6.343   0.827 -0.0469  0.1883  1.0267
23556SOL     OW73205   2.681   7.224   8.709  0.4358  0.3786  0.0775
23556SOL    HW173206   2.616   7.161   8.679 -0.9430  2.1518 -0.7209
23556SOL    HW273207   2.639   7.310   8.699  1.3576  1.3033  3.4179
23557SOL     OW73208   9.942   5.122   1.663  0.4803  0.0694 -0.1556
23557SOL    HW173209   9.923   5.148   1.753 -0.5769 -0.1043 -0.3213
23557SOL    HW273210   9.906   5.033   1.655  1.8874 -0.4952 -0.3162
23558SOL     OW73211   1.232   8.418   3.885 -0.0227 -0.1603 -0.5697
23558SOL    HW173212   1.265   8.395   3.971 -1.1937 -0.1581 -0.1117
23558SOL    HW273213   1.207   8.510   3.892  0.2978 -0.0385 -1.0330
23559SOL     OW73214   4.857   0.937   4.230  0.6941 -0.2943 -0.3364
23559SOL    HW173215   4.878   0.937   4.137  1.1206 -0.7363 -0.2414
23559SOL    HW273216   4.761   0.941   4.233  0.5846 -2.0558 -0.8202
23560SOL     OW73217   6.585   6.819  10.189  0.3243 -0.4612 -0.1681
23560SOL    HW173218   6.493   6.811  10.216  0.5345 -1.7460  0.2232
23560SOL    HW273219   6.581   6.824  10.094 -0.2977  2.0833 -0.0288
23561SOL     OW73220   0.739   6.162   5.675 -0.0723 -0.0176  0.0683
23561SOL    HW173221   0.756   6.077   5.634 -1.0224 -1.4878  2.6219
23561SOL    HW273222   0.657   6.192   5.635 -0.5511 -1.0445  0.2599
23562SOL     OW73223   5.071   8.951   2.165  0.1585 -0.0196 -0.2959
23562SOL    HW173224   5.116   8.888   2.221  1.8444  1.6368  0.3033
23562SOL    HW273225   5.138   9.018   2.147 -1.6318  1.7079 -0.7063
23563SOL     OW73226   9.363   1.971   6.909 -0.0130  0.2744 -0.4065
23563SOL    HW173227   9.329   1.886   6.880  0.6228  0.3908 -1.5317
23563SOL    HW273228   9.433   1.949   6.971 -2.1226  0.0320  1.9704
23564SOL     OW73229   4.641   6.593   4.274 -0.3056  0.4423  0.2777
23564SOL    HW173230   4.712   6.531   4.256  0.0704  0.6050  1.1961
23564SOL    HW273231   4.638   6.648   4.196  0.9213  0.7622  0.4409
23565SOL     OW73232   3.135   8.018   9.905  0.1192  0.0383 -0.4269
23565SOL    HW173233   3.190   8.093   9.882 -1.1934  1.2078  0.2243
23565SOL    HW273234   3.119   8.027   9.998 -2.4892  0.6013 -0.8901
23566SOL     OW73235   7.492   2.173   7.138 -0.0960  0.2448 -0.0267
23566SOL    HW173236   7.414   2.209   7.180 -0.2087  0.1556 -0.1548
23566SOL    HW273237   7.565   2.220   7.177 -0.0302 -1.4817  1.9671
23567SOL     OW73238   9.001   4.587   4.705 -0.0987  0.0988 -0.1243
23567SOL    HW173239   9.077   4.537   4.733 -0.0412  0.6544  0.7166
23567SOL    HW273240   8.966   4.625   4.786  0.2105  1.9008 -0.8183
23568SOL     OW73241   7.687   7.383   9.363  0.2274 -0.1677 -0.9817
23568SOL    HW173242   7.628   7.440   9.411 -0.9731  0.0726 -2.6648
23568SOL    HW273243   7.723   7.324   9.429 -0.1823  1.1371  0.4263
23569SOL     OW73244   4.470   9.922   2.504 -0.0750 -0.1954 -0.0231
23569SOL    HW173245   4.388   9.914   2.554  0.0269  0.1474  0.2033
23569SOL    HW273246   4.472  10.013   2.476  0.1143 -0.2653 -0.2362
23570SOL     OW73247   2.855   2.433   1.478  0.0414  0.7390 -0.5293
23570SOL    HW173248   2.934   2.477   1.448  0.9462 -0.8389 -0.5188
23570SOL    HW273249   2.789   2.456   1.413  0.5231  1.9917 -0.5915
23571SOL     OW73250   9.130   0.293  10.062  0.1437 -0.5011 -0.4501
23571SOL    HW173251   9.112   0.300  10.156 -0.2153 -1.6300 -0.4344
23571SOL    HW273252   9.044   0.303  10.020  0.1054 -1.4007 -0.5911
23572SOL     OW73253   2.343   9.310   1.825  0.2442 -0.0876 -0.5857
23572SOL    HW173254   2.339   9.397   1.864  0.0737  0.1039 -1.0228
23572SOL    HW273255   2.252   9.279   1.826  0.4569 -0.7276  0.5996
23573SOL     OW73256   9.947   0.916   3.740  0.3715 -0.1283 -0.4125
23573SOL    HW173257   9.964   0.844   3.801  0.0312 -0.4786 -0.7316
23573SOL    HW273258  10.029   0.926   3.691  0.0422 -1.0562 -1.1560
23574SOL     OW73259   7.326   2.478   1.170 -0.0367 -0.3605 -0.3327
23574SOL    HW173260   7.293   2.496   1.082  2.3022  0.5031 -1.0513
23574SOL    HW273261   7.388   2.406   1.159  1.2006  0.5643  0.3969
23575SOL     OW73262   7.795   4.927   8.540 -0.0795 -0.5649 -0.2238
23575SOL    HW173263   7.725   4.985   8.510 -0.5533 -0.9851  0.0607
23575SOL    HW273264   7.850   4.915   8.462  0.2984  0.6418 -0.1643
23576SOL     OW73265   3.936  10.099   0.887  0.0066 -0.1426  0.5579
23576SOL    HW173266   3.865  10.158   0.861 -1.7524 -1.4053  2.3972
23576SOL    HW273267   3.973  10.139   0.965 -0.4840 -0.9242  1.1879
23577SOL     OW73268   1.346   3.268   0.050  0.6106 -0.3878 -0.6200
23577SOL    HW173269   1.395   3.339   0.008  1.9298 -1.9187 -1.7650
23577SOL    HW273270   1.259   3.272   0.012  0.5196  0.9354 -0.2849
23578SOL     OW73271   7.715   9.241   1.092  0.3486 -1.0634 -0.4814
23578SOL    HW173272   7.795   9.270   1.047  0.5488  0.1075  0.6127
23578SOL    HW273273   7.644   9.275   1.037  0.5531  2.5107  1.3098
23579SOL     OW73274   9.142   0.161   7.680  0.6269  0.1288 -0.1253
23579SOL    HW173275   9.072   0.106   7.644 -1.8013  2.1296  1.3067
23579SOL    HW273276   9.134   0.244   7.632  1.0518  0.8661  1.0567
23580SOL     OW73277   9.314   0.297   2.237  0.2348 -0.8570  0.8107
23580SOL    HW173278   9.361   0.380   2.251  0.5890 -1.1979  1.6732
23580SOL    HW273279   9.382   0.236   2.209 -0.2295 -0.5520 -1.0549
23581SOL     OW73280   7.070   0.117   1.998 -0.2172 -0.0749  0.1889
23581SOL    HW173281   7.156   0.119   1.955 -0.5552  2.4754 -0.4584
23581SOL    HW273282   7.041   0.026   1.989  1.2991 -0.4052 -1.8135
23582SOL     OW73283   5.604   4.739   3.543  0.0634 -0.5615  0.5567
23582SOL    HW173284   5.671   4.772   3.484  1.0122  0.9833  2.4473
23582SOL    HW273285   5.595   4.646   3.521 -0.2225  0.1706 -2.5567
23583SOL     OW73286   8.745   5.252   3.824  0.1194 -0.2998 -0.4314
23583SOL    HW173287   8.805   5.223   3.892  0.7342 -0.8630 -1.2096
23583SOL    HW273288   8.664   5.272   3.870  1.4406  2.2259  0.9068
23584SOL     OW73289   1.131   2.084   5.828  0.0129 -0.0348  0.5010
23584SOL    HW173290   1.069   2.107   5.897 -0.1956  0.1081  0.2681
23584SOL    HW273291   1.112   2.146   5.757 -1.4879 -1.7825 -0.6791
23585SOL     OW73292   4.595   9.054   5.698 -0.2805 -0.0382 -0.6820
23585SOL    HW173293   4.538   8.996   5.647 -1.4150  0.3889  0.0661
23585SOL    HW273294   4.597   9.014   5.785  1.4219 -0.6133 -0.9560
23586SOL     OW73295   0.789   4.845   9.351 -0.2867 -0.6701  0.0079
23586SOL    HW173296   0.860   4.825   9.412  0.2826 -1.1594 -0.7971
23586SOL    HW273297   0.800   4.780   9.281 -0.2821  0.5553 -1.1322
23587SOL     OW73298   9.503   4.939   6.429 -0.0199 -0.2023 -0.0177
23587SOL    HW173299   9.429   4.910   6.482 -0.4975  2.7545  1.0328
23587SOL    HW273300   9.572   4.958   6.492  0.9670 -1.0619 -0.8367
23588SOL     OW73301  10.141   1.589   9.508 -0.2812  0.1142  0.5953
23588SOL    HW173302  10.192   1.552   9.581  0.5982  0.0969 -0.0206
23588SOL    HW273303  10.179   1.549   9.430 -1.3616 -0.0261  0.1361
23589SOL     OW73304   0.962   7.923   6.786 -0.0674 -0.0001 -0.0330
23589SOL    HW173305   0.904   7.992   6.754  0.0073  0.6927  1.3065
23589SOL    HW273306   1.049   7.963   6.787  0.2804 -0.7079 -1.0348
23590SOL     OW73307   3.239   2.113   5.098  0.0219  0.2496 -0.2796
23590SOL    HW173308   3.152   2.073   5.102  0.3187 -0.5108 -1.3702
23590SOL    HW273309   3.250   2.138   5.006  1.5308 -0.9403 -0.4350
23591SOL     OW73310   0.504   9.360   7.318 -0.2475  0.7073  0.4245
23591SOL    HW173311   0.502   9.453   7.297  1.0922  1.1412  2.0440
23591SOL    HW273312   0.424   9.345   7.369 -2.5137  0.0644 -3.1803
23592SOL     OW73313   6.036   0.285   0.983  0.0788  0.2438 -0.1871
23592SOL    HW173314   6.029   0.252   1.073 -0.0461 -0.0978 -0.3213
23592SOL    HW273315   6.129   0.303   0.971  0.2065 -0.4737 -0.2613
23593SOL     OW73316   5.557   1.587   4.995 -0.2391  0.5484  0.5876
23593SOL    HW173317   5.646   1.623   4.995  0.1764 -0.4738  0.9213
23593SOL    HW273318   5.564   1.505   5.043 -1.6504  1.1259  1.8005
23594SOL     OW73319   7.530   7.851   4.907  0.4504 -0.0389  0.2350
23594SOL    HW173320   7.435   7.861   4.915  0.4423  0.2925 -0.2918
23594SOL    HW273321   7.554   7.905   4.833  0.8510 -1.2945 -0.5673
23595SOL     OW73322   9.735   8.189   3.801 -0.1979 -0.7817  1.0126
23595SOL    HW173323   9.698   8.186   3.889 -1.5446  1.0681  0.5411
23595SOL    HW273324   9.800   8.260   3.805 -0.7612 -0.2160  0.3527
23596SOL     OW73325   6.770   2.978   8.302  0.6325 -1.0059  0.2603
23596SOL    HW173326   6.820   2.961   8.382  0.1576  0.0227  0.7883
23596SOL    HW273327   6.682   2.946   8.321  0.3165 -0.0412  0.4440
23597SOL     OW73328   2.715   2.610   2.991 -0.2182 -0.3448  0.6991
23597SOL    HW173329   2.802   2.578   2.968 -0.2946 -0.4609  0.5720
23597SOL    HW273330   2.731   2.685   3.048 -0.0147  0.2532 -0.1304
23598SOL     OW73331   1.931   9.134   8.155  0.4658  0.3274 -0.0007
23598SOL    HW173332   1.974   9.145   8.071  1.9165 -0.1535  0.6688
23598SOL    HW273333   1.939   9.220   8.197  1.3431  0.0628  0.3819
23599SOL     OW73334   5.295   8.436   3.268 -0.4347  0.0135 -0.2894
23599SOL    HW173335   5.338   8.517   3.240 -0.4336  0.3946  0.7890
23599SOL    HW273336   5.367   8.379   3.296 -0.6409  0.9713  2.3437
23600SOL     OW73337   9.636   9.760   3.321 -0.0817 -0.3861 -0.4089
23600SOL    HW173338   9.724   9.796   3.312 -0.3878  0.2240 -0.9978
23600SOL    HW273339   9.580   9.836   3.335 -0.4217 -0.8278  0.6783
23601SOL     OW73340   5.084   1.027   1.568 -0.7325 -0.6067  0.5412
23601SOL    HW173341   5.074   1.041   1.662  1.4428  1.3983  0.5358
23601SOL    HW273342   4.995   1.028   1.534 -1.3940  3.9551  1.9794
23602SOL     OW73343   1.395   9.059   8.682  0.4861 -0.3206 -0.2170
23602SOL    HW173344   1.346   9.139   8.697  0.8538 -0.5378  2.3005
23602SOL    HW273345   1.483   9.088   8.660  0.7517 -0.0282  1.1984
23603SOL     OW73346   2.793   3.304   5.750  0.2653 -0.4100 -0.1937
23603SOL    HW173347   2.871   3.289   5.803  0.2287 -0.2280 -0.0851
23603SOL    HW273348   2.757   3.386   5.785  0.7839  0.2326 -1.1403
23604SOL     OW73349   7.171   7.093   4.944  0.1337  0.4185 -0.1485
23604SOL    HW173350   7.258   7.054   4.957 -0.4999 -1.1803 -0.6171
23604SOL    HW273351   7.168   7.165   5.007  1.5236  0.0236  0.3922
23605SOL     OW73352   6.274   5.562   0.920  0.1902 -0.6367  0.5515
23605SOL    HW173353   6.263   5.472   0.952  2.6522 -1.3669 -0.5414
23605SOL    HW273354   6.206   5.572   0.853  0.1491 -1.8140  0.4078
23606SOL     OW73355   7.080   9.026   5.557 -0.4485  0.0978 -0.3406
23606SOL    HW173356   7.175   9.017   5.569 -0.8140 -1.8597  1.3178
23606SOL    HW273357   7.067   9.120   5.543  1.9368  0.1632 -2.6169
23607SOL     OW73358   8.981   7.026   7.204 -0.1664  0.2445 -0.4496
23607SOL    HW173359   9.066   7.034   7.248  0.0109  0.7855 -0.8839
23607SOL    HW273360   8.988   7.084   7.128 -0.6214 -0.3588 -0.9527
23608SOL     OW73361   1.231   6.647   5.750  0.0613  0.1128 -0.1383
23608SOL    HW173362   1.288   6.716   5.783 -1.2403  0.7121  0.8773
23608SOL    HW273363   1.210   6.594   5.827 -0.3912 -0.3630 -0.5859
23609SOL     OW73364   0.239   9.288   9.841 -0.4651  0.0389  1.0164
23609SOL    HW173365   0.273   9.377   9.846  0.8179 -0.5333  2.8534
23609SOL    HW273366   0.316   9.232   9.847 -1.3113 -1.2189  0.5012
23610SOL     OW73367   2.714   8.258   2.793  0.1365 -0.3991  0.3286
23610SOL    HW173368   2.638   8.268   2.850  0.2704  0.8653  0.3075
23610SOL    HW273369   2.677   8.248   2.705 -0.0919 -2.9596  0.6701
23611SOL     OW73370   2.133   9.531   9.937  0.1187 -0.7044  0.2513
23611SOL    HW173371   2.123   9.611   9.989 -0.2156 -0.2726 -0.4582
23611SOL    HW273372   2.221   9.500   9.955  0.0295 -0.5091  1.0050
23612SOL     OW73373   7.678   0.291   3.116  0.5329 -0.4687 -0.2389
23612SOL    HW173374   7.620   0.270   3.043  0.2693 -1.2404  0.1920
23612SOL    HW273375   7.765   0.296   3.076  0.3008 -0.2600 -0.7160
23613SOL     OW73376   4.259   3.185   4.701 -0.0568 -0.7448 -0.0512
23613SOL    HW173377   4.313   3.235   4.763 -1.2520 -0.8508  1.0828
23613SOL    HW273378   4.169   3.199   4.730 -0.6103 -1.1169 -1.5384
23614SOL     OW73379   9.230   5.531   5.977  0.0270  0.4706  0.4812
23614SOL    HW173380   9.285   5.502   6.049 -0.3183 -1.1908  0.0893
23614SOL    HW273381   9.213   5.452   5.925  1.6639  1.9145 -2.4005
23615SOL     OW73382   6.142  10.201   7.375  0.1744  0.1773 -0.0905
23615SOL    HW173383   6.130  10.250   7.456  1.7670 -0.3273  0.4546
23615SOL    HW273384   6.180  10.264   7.314  0.0279  0.2503 -0.1064
23616SOL     OW73385   7.619   7.676   8.947  0.3237  0.7101 -0.2245
23616SOL    HW173386   7.646   7.674   8.855 -3.0034  2.7444 -1.3500
23616SOL    HW273387   7.578   7.591   8.962 -4.2900  2.3415 -2.4630
23617SOL     OW73388   3.476   4.852   2.094  0.3267 -0.8019 -0.2656
23617SOL    HW173389   3.447   4.878   2.181 -0.5806 -1.5516 -0.3346
23617SOL    HW273390   3.509   4.763   2.106  0.2604 -0.8826 -0.6719
23618SOL     OW73391   5.935   1.078   8.683  0.3438 -0.2797 -0.5315
23618SOL    HW173392   5.975   1.010   8.629  4.0834 -0.1908  1.9217
23618SOL    HW273393   5.986   1.157   8.664 -0.5500  0.5718  0.5087
23619SOL     OW73394   9.613   3.769   5.088 -0.4269 -0.1394 -0.2394
23619SOL    HW173395   9.596   3.690   5.037 -0.6708  0.4010 -1.0054
23619SOL    HW273396   9.526   3.802   5.110 -0.3300 -1.0949  1.6815
23620SOL     OW73397   4.034   7.626   6.488 -0.1055  0.8113 -0.2264
23620SOL    HW173398   3.972   7.643   6.417  0.6997  0.0047 -1.1481
23620SOL    HW273399   4.097   7.697   6.483 -0.4235  1.1186  0.1110
23621SOL     OW73400   7.921   6.921   5.610  0.0249  0.3378  0.6168
23621SOL    HW173401   7.910   6.833   5.574 -0.6660  1.2874 -1.5757
23621SOL    HW273402   7.846   6.933   5.668 -1.3764  0.4873 -1.1982
23622SOL     OW73403   2.153   8.925   5.560  0.2978  0.4456  0.3657
23622SOL    HW173404   2.225   8.980   5.592 -0.6194  0.9088  1.6550
23622SOL    HW273405   2.144   8.857   5.626  0.3197 -0.3031 -0.3924
23623SOL     OW73406   8.281   5.910   7.527 -0.2692 -0.1689  0.5007
23623SOL    HW173407   8.341   5.861   7.470 -0.4046 -0.2929  0.4639
23623SOL    HW273408   8.277   5.997   7.487  1.1575  0.3353  1.4191
23624SOL     OW73409   6.144   4.732   7.371  0.8788 -0.0051 -0.0818
23624SOL    HW173410   6.131   4.816   7.326  0.8201 -0.3937 -0.8038
23624SOL    HW273411   6.102   4.744   7.456  1.1991  0.8266 -0.0340
23625SOL     OW73412   8.987   3.264   9.684  0.4664 -0.7172  0.2021
23625SOL    HW173413   8.919   3.226   9.628  1.7170 -1.8234 -0.5989
23625SOL    HW273414   9.053   3.195   9.691  0.8978 -0.1495  2.0616
23626SOL     OW73415   3.190   3.380   1.811  0.3759 -0.2149  0.5560
23626SOL    HW173416   3.250   3.328   1.758  0.8061  0.7589  0.0802
23626SOL    HW273417   3.227   3.468   1.810 -0.9201  0.3404  0.4721
23627SOL     OW73418   6.455   4.096   1.456  0.6166  0.1530  0.0805
23627SOL    HW173419   6.488   4.034   1.521 -0.6125 -0.6141 -0.0114
23627SOL    HW273420   6.378   4.135   1.497 -0.7847 -1.0823 -1.2683
23628SOL     OW73421  10.026   5.044   4.205  0.3371 -0.3087  0.2933
23628SOL    HW173422  10.057   4.955   4.191  0.3472 -0.1692 -0.6193
23628SOL    HW273423  10.095   5.099   4.167  0.6318  0.1030  1.4324
23629SOL     OW73424   2.543   9.450   7.850  0.1638 -0.4579 -0.0953
23629SOL    HW173425   2.587   9.517   7.902  0.4037 -1.1872  0.6536
23629SOL    HW273426   2.545   9.484   7.760 -2.0300  1.7467  0.6408
23630SOL     OW73427   6.831   1.322   4.562 -0.1591 -0.5723 -0.1855
23630SOL    HW173428   6.794   1.404   4.529 -0.5165 -0.6999 -0.1049
23630SOL    HW273429   6.907   1.306   4.506 -0.0039 -0.1132 -0.1092
23631SOL     OW73430   9.544   8.819   0.641 -0.4871 -0.2000  0.3055
23631SOL    HW173431   9.493   8.814   0.561  0.1336 -0.7957 -0.0549
23631SOL    HW273432   9.522   8.904   0.678  0.4851  0.7838 -1.3421
23632SOL     OW73433   0.585   1.742   9.217  0.3892  0.2378  0.0317
23632SOL    HW173434   0.614   1.661   9.175  0.3796  0.3696 -0.2297
23632SOL    HW273435   0.660   1.802   9.208 -0.3505  0.9308 -1.5983
23633SOL     OW73436   2.648   5.466   3.666 -0.4013 -0.4961 -0.9717
23633SOL    HW173437   2.590   5.415   3.722 -0.9758  0.5455 -0.5846
23633SOL    HW273438   2.735   5.452   3.701 -1.0607  2.4796  2.0847
23634SOL     OW73439   5.532   8.623   9.410 -0.5958 -0.0393  0.2079
23634SOL    HW173440   5.618   8.582   9.421 -0.1626  0.6404 -0.6588
23634SOL    HW273441   5.549   8.717   9.418 -1.0067  0.1959 -1.5343
23635SOL     OW73442   6.541   5.264   3.962 -0.1212 -0.5264  0.6213
23635SOL    HW173443   6.569   5.339   3.910 -1.0595 -1.1571 -0.8527
23635SOL    HW273444   6.607   5.197   3.944 -1.6038 -1.4706 -1.5566
23636SOL     OW73445   9.673   9.242   8.172 -0.2975 -0.6032 -0.6080
23636SOL    HW173446   9.696   9.307   8.106 -0.4774  0.5921  0.4991
23636SOL    HW273447   9.739   9.252   8.240 -2.1320  0.6030  1.0376
23637SOL     OW73448   0.667   8.918   8.004  0.1413 -0.5484 -0.6738
23637SOL    HW173449   0.663   8.822   8.004 -0.7476 -0.5351  1.3063
23637SOL    HW273450   0.688   8.941   8.094 -3.8338  1.2213 -0.0897
23638SOL     OW73451   3.011   8.555   3.936 -0.2196 -0.0249 -0.3666
23638SOL    HW173452   3.036   8.632   3.886  0.2079 -0.6593 -1.1276
23638SOL    HW273453   2.916   8.550   3.926 -0.0033 -0.8498 -2.1374
23639SOL     OW73454   8.799   5.454   3.114 -0.8848 -0.1911  0.2534
23639SOL    HW173455   8.728   5.489   3.060 -1.9228 -0.1064  1.6516
23639SOL    HW273456   8.762   5.448   3.201  1.1078  0.6768  1.1974
23640SOL     OW73457   4.507   9.604   6.576  0.1605 -0.1524  0.0374
23640SOL    HW173458   4.585   9.638   6.621 -0.6309  1.0078  0.5417
23640SOL    HW273459   4.500   9.657   6.497  0.2667 -0.7214 -0.3629
23641SOL     OW73460   1.609   0.433   4.990  0.3185 -0.8975  0.0643
23641SOL    HW173461   1.562   0.512   5.014 -0.7843 -1.3121 -0.6873
23641SOL    HW273462   1.682   0.464   4.936  0.1196 -0.3653  0.0993
23642SOL     OW73463   6.306   2.008   6.533  0.1911 -0.6636  0.4156
23642SOL    HW173464   6.228   2.065   6.534  0.8323  0.2151  1.3424
23642SOL    HW273465   6.338   2.014   6.443  1.0305  1.5620  0.8100
23643SOL     OW73466   9.874   9.260   4.929  0.0956  0.0344  0.0718
23643SOL    HW173467   9.944   9.324   4.936  0.1587  0.1617 -1.6501
23643SOL    HW273468   9.858   9.232   5.020 -0.6511  3.2195  0.9968
23644SOL     OW73469   6.519   1.299   5.127 -0.0099  0.3435 -0.0110
23644SOL    HW173470   6.438   1.312   5.177  0.7055  2.5902  0.6052
23644SOL    HW273471   6.513   1.363   5.056  1.1538  0.3896 -0.0638
23645SOL     OW73472   0.041   1.310   1.306 -0.0201  0.8265  1.0685
23645SOL    HW173473  -0.014   1.354   1.241 -0.0731  0.4502  0.8580
23645SOL    HW273474  -0.012   1.309   1.386 -1.0303 -1.0652  0.4222
23646SOL     OW73475   9.723   2.435   6.031 -0.0440  0.1416 -0.5659
23646SOL    HW173476   9.706   2.418   6.124 -0.0745 -0.3260 -0.6590
23646SOL    HW273477   9.736   2.530   6.027  0.3810  0.1135 -0.0129
23647SOL     OW73478   0.437   8.130   0.814  0.6854 -0.1276 -0.2883
23647SOL    HW173479   0.344   8.119   0.794  0.2838  1.5184  0.5852
23647SOL    HW273480   0.455   8.221   0.793  2.5520 -0.8793 -2.1308
23648SOL     OW73481   9.561   4.985   0.610  0.1519 -0.0170  0.2880
23648SOL    HW173482   9.485   5.038   0.586  0.0343 -0.0826  0.5116
23648SOL    HW273483   9.604   5.034   0.680  0.3009  0.0055  0.1810
23649SOL     OW73484   2.839   8.717   4.203 -0.3278 -0.4683  0.0244
23649SOL    HW173485   2.873   8.636   4.241 -0.2529  0.1577  1.2859
23649SOL    HW273486   2.788   8.757   4.273 -0.7569  0.3559 -0.7498
23650SOL     OW73487   8.689   9.393   9.116  0.9627  0.2937 -0.2262
23650SOL    HW173488   8.700   9.390   9.021  1.4587  0.2112 -0.1671
23650SOL    HW273489   8.671   9.302   9.141  0.5872  0.3554 -0.2677
23651SOL     OW73490   7.588   9.935   1.032  0.2623 -0.5846  0.7204
23651SOL    HW173491   7.572  10.025   1.063  0.4955  0.3895 -1.8064
23651SOL    HW273492   7.507   9.912   0.985 -0.1045 -2.0199  2.0328
23652SOL     OW73493   3.458   2.397   1.414  0.0727 -0.2788 -0.6053
23652SOL    HW173494   3.505   2.400   1.330  2.5359  1.8959  0.7566
23652SOL    HW273495   3.468   2.307   1.444  1.0136 -0.5404 -1.6676
23653SOL     OW73496   5.981   9.840   7.829  0.2877 -0.6187 -0.0461
23653SOL    HW173497   6.021   9.911   7.780 -0.9411  1.1902  1.5270
23653SOL    HW273498   5.951   9.778   7.762 -0.0142  1.0807 -1.4957
23654SOL     OW73499   9.339   2.596   4.967  0.4180 -0.5134 -0.1301
23654SOL    HW173500   9.329   2.659   4.895  2.4780  0.3846  0.3322
23654SOL    HW273501   9.416   2.545   4.943  0.1690 -1.2736  0.6718
23655SOL     OW73502   4.070   4.589   3.756 -0.9175  0.1203  0.0631
23655SOL    HW173503   4.045   4.497   3.750 -1.9578  0.4259 -0.3046
23655SOL    HW273504   4.013   4.626   3.823  1.9836 -0.3178  2.8923
23656SOL     OW73505   0.253   5.655   6.780 -0.1649  0.0901 -0.1835
23656SOL    HW173506   0.241   5.602   6.700 -1.4008 -0.5115  0.3917
23656SOL    HW273507   0.346   5.645   6.801 -0.1760 -1.0670 -0.6372
23657SOL     OW73508   8.884   5.167   8.944 -0.5917  0.4205  0.0706
23657SOL    HW173509   8.830   5.144   9.020  0.4115  0.3670  0.7634
23657SOL    HW273510   8.887   5.087   8.892 -0.6538  0.2373  0.3449
23658SOL     OW73511   1.508   9.566   7.924 -0.8295  0.2421  0.3030
23658SOL    HW173512   1.556   9.588   8.004 -1.8883  3.1240  0.2330
23658SOL    HW273513   1.570   9.581   7.853 -1.1753  2.0671  0.3446
23659SOL     OW73514   8.950   3.821   8.025  0.0832  0.0752  0.6102
23659SOL    HW173515   8.995   3.810   7.941  0.1363  0.5969  0.5712
23659SOL    HW273516   8.972   3.741   8.073 -2.0240 -1.4267 -0.8167
23660SOL     OW73517   1.276   9.211   3.707  0.0766 -0.0423 -0.8912
23660SOL    HW173518   1.255   9.142   3.644  0.2210 -0.7229 -0.1890
23660SOL    HW273519   1.232   9.184   3.788 -0.6792  1.1744 -0.8769
23661SOL     OW73520   5.757   3.312   9.852  0.1212  0.4688  0.1489
23661SOL    HW173521   5.667   3.296   9.878 -0.2653 -0.1050 -1.5116
23661SOL    HW273522   5.808   3.294   9.931 -1.2513  1.2211  1.2108
23662SOL     OW73523   7.727   0.669   7.484  0.4553  0.1402  0.3526
23662SOL    HW173524   7.765   0.751   7.516  0.4427 -0.7222  2.6627
23662SOL    HW273525   7.635   0.689   7.471  0.5835  0.6690  0.2402
23663SOL     OW73526   4.566   4.476   4.891  0.1063 -0.2588  0.2964
23663SOL    HW173527   4.645   4.524   4.914  0.1373 -0.2250  0.1247
23663SOL    HW273528   4.583   4.444   4.802 -0.2019  0.0189  0.1356
23664SOL     OW73529   8.453   4.430   3.904  0.3614  0.5550  0.5128
23664SOL    HW173530   8.393   4.357   3.917  1.1650 -0.2175 -0.0768
23664SOL    HW273531   8.507   4.404   3.829 -0.4336  2.4634 -0.7519
23665SOL     OW73532   6.417   9.731   6.133 -0.1308  0.5618 -0.6912
23665SOL    HW173533   6.453   9.677   6.062  2.2511 -0.5146  1.2495
23665SOL    HW273534   6.327   9.700   6.143  0.1596 -0.7245 -1.8603
23666SOL     OW73535   4.051   9.473   7.660  0.8740 -0.0141 -0.5375
23666SOL    HW173536   4.021   9.466   7.751  1.5774  2.4560 -0.0743
23666SOL    HW273537   4.105   9.396   7.646  1.9087  0.2926  1.6045
23667SOL     OW73538   0.035   2.160   5.693  0.2223 -0.3492  0.0924
23667SOL    HW173539   0.005   2.206   5.615 -2.5726 -0.2242  1.1901
23667SOL    HW273540   0.048   2.070   5.664 -0.0074 -0.1327 -0.7065
23668SOL     OW73541   7.755   6.825   1.433 -0.5880 -0.6866  0.7993
23668SOL    HW173542   7.816   6.770   1.385  1.0192  0.3969  1.5360
23668SOL    HW273543   7.802   6.907   1.446 -3.8731  1.9123 -2.5995
23669SOL     OW73544   7.391   0.524   1.278  0.2473 -0.6379 -0.2482
23669SOL    HW173545   7.361   0.571   1.356 -0.3066 -0.5284 -0.5218
23669SOL    HW273546   7.310   0.505   1.230  0.7948  1.9361 -2.2888
23670SOL     OW73547   4.946   4.922   2.038  0.6049 -0.0483  0.4171
23670SOL    HW173548   4.895   4.944   2.116 -1.5790 -2.1682 -0.3653
23670SOL    HW273549   4.970   4.831   2.050  0.0250 -0.4682 -1.5029
23671SOL     OW73550   0.439   1.068   6.210  0.3943  0.9365  0.0832
23671SOL    HW173551   0.527   1.033   6.223 -0.3791 -1.4350 -0.8949
23671SOL    HW273552   0.436   1.091   6.117 -0.3337  0.1251 -0.0920
23672SOL     OW73553   9.150   7.396   6.329 -0.1961  0.0801 -0.1121
23672SOL    HW173554   9.230   7.345   6.315 -0.3767 -0.4304  0.6574
23672SOL    HW273555   9.087   7.332   6.363 -0.3364  0.8656  1.1454
23673SOL     OW73556   9.137   2.326   5.374 -0.1475  0.1237 -0.6055
23673SOL    HW173557   9.042   2.316   5.384  0.2751 -1.3554  2.1491
23673SOL    HW273558   9.156   2.412   5.410 -0.3433  0.1421 -0.5473
23674SOL     OW73559   3.323   5.251   1.164  0.1191 -0.0475 -0.6267
23674SOL    HW173560   3.382   5.189   1.120  0.5322  0.4144 -0.7323
23674SOL    HW273561   3.271   5.197   1.223  1.8761 -0.2393  0.7819
23675SOL     OW73562   1.691   9.732   7.333 -0.1837 -0.5843  0.0210
23675SOL    HW173563   1.617   9.682   7.298  0.5618 -0.8817 -1.1757
23675SOL    HW273564   1.671   9.823   7.312 -1.3687 -0.3898  1.8765
23676SOL     OW73565   7.959   4.442   4.280  0.1747  0.4765  0.1069
23676SOL    HW173566   8.016   4.381   4.233  0.2633 -0.7293  1.7494
23676SOL    HW273567   7.874   4.433   4.238 -0.0931 -1.6190  1.0390
23677SOL     OW73568   2.956   0.452  10.040  0.2300  0.1529 -0.0828
23677SOL    HW173569   3.027   0.434  10.102 -0.8982  0.0024  1.1772
23677SOL    HW273570   2.939   0.546  10.050  0.9980  0.4334 -1.2102
23678SOL     OW73571   4.436   5.450   4.758  0.3948 -0.0279  0.3653
23678SOL    HW173572   4.440   5.358   4.783  1.1199 -0.5799 -1.7133
23678SOL    HW273573   4.498   5.458   4.686  0.3856  2.1082  0.5638
23679SOL     OW73574   5.548   9.029   5.004 -0.0274  0.3228 -0.5150
23679SOL    HW173575   5.582   9.009   5.091 -1.9447 -0.6207  0.0488
23679SOL    HW273576   5.610   8.988   4.944  0.3841 -0.4888  0.4518
23680SOL     OW73577   4.475   2.831   4.891 -0.6946  0.1590  0.4055
23680SOL    HW173578   4.494   2.774   4.965 -0.5718  2.3031  2.0729
23680SOL    HW273579   4.396   2.879   4.918 -1.0917  0.4247 -1.1760
23681SOL     OW73580   1.923   0.965   0.784 -0.6394 -0.6252  0.1060
23681SOL    HW173581   2.014   0.994   0.777 -0.5563 -1.0118 -0.4548
23681SOL    HW273582   1.874   1.027   0.731 -0.6041 -0.8429 -0.1860
23682SOL     OW73583   6.083   1.449   7.944  0.3688 -0.6519 -0.7988
23682SOL    HW173584   6.173   1.416   7.937  0.8144  0.4207 -0.1923
23682SOL    HW273585   6.051   1.412   8.026  0.2123 -1.1242 -1.0695
23683SOL     OW73586  10.111   5.199   3.587  0.1102 -0.6572 -0.1708
23683SOL    HW173587  10.184   5.258   3.570 -0.1126 -0.3762 -0.1732
23683SOL    HW273588  10.103   5.197   3.682  0.1886 -0.7700 -0.1669
23684SOL     OW73589   6.645   1.687   3.687  0.0318 -0.1646 -0.0189
23684SOL    HW173590   6.696   1.766   3.669 -2.3174  1.6212  0.8104
23684SOL    HW273591   6.587   1.679   3.611 -2.1515  0.9667  1.4633
23685SOL     OW73592   2.257   8.591   4.076 -0.6613 -0.3934  0.3180
23685SOL    HW173593   2.216   8.553   3.999  0.3243 -0.0750 -0.3726
23685SOL    HW273594   2.337   8.632   4.043 -0.3734 -0.0176  1.4621
23686SOL     OW73595   4.717   2.549   6.203 -0.3512  0.4641 -0.1782
23686SOL    HW173596   4.720   2.511   6.115 -0.5600  0.8201 -0.3364
23686SOL    HW273597   4.631   2.526   6.236 -1.0465  2.0640 -0.8337
23687SOL     OW73598   0.501   2.531   3.417  0.2494  0.3772 -0.1423
23687SOL    HW173599   0.554   2.561   3.342 -0.1445 -2.0497 -1.4849
23687SOL    HW273600   0.411   2.552   3.393  0.0244 -1.3061 -0.8529
23688SOL     OW73601   5.686   9.037   7.304 -0.8993 -0.0177  0.4700
23688SOL    HW173602   5.626   8.997   7.367 -0.6199  1.4566  1.7241
23688SOL    HW273603   5.648   9.124   7.288 -0.7933 -0.2649 -1.1681
23689SOL     OW73604   9.980   7.293   2.621 -0.2534  0.5216  0.3256
23689SOL    HW173605  10.070   7.288   2.654 -0.6754  0.8581  1.5386
23689SOL    HW273606   9.966   7.209   2.579  0.9596  0.8270 -0.7276
23690SOL     OW73607   4.847   4.224   0.836  0.3002  0.0136  0.6379
23690SOL    HW173608   4.791   4.301   0.833  0.5352  0.1523 -0.5654
23690SOL    HW273609   4.852   4.201   0.929 -0.1609  1.1515  0.9504
23691SOL     OW73610   0.417   6.108   0.942 -0.3285  0.5076  0.0689
23691SOL    HW173611   0.479   6.122   0.870 -1.0537  0.8861 -0.4917
23691SOL    HW273612   0.472   6.095   1.019  0.4822 -0.8070 -0.7156
23692SOL     OW73613   1.570   4.715   7.415  0.2935  0.2902 -0.4831
23692SOL    HW173614   1.509   4.788   7.400 -0.1581 -0.1181 -0.6418
23692SOL    HW273615   1.653   4.758   7.437 -0.2028  0.8445  0.3478
23693SOL     OW73616   7.961   7.094   2.177  0.6493 -0.6195  0.3652
23693SOL    HW173617   8.020   7.164   2.151  0.4345 -1.2054 -1.8233
23693SOL    HW273618   7.883   7.138   2.209  0.4036  0.1866 -1.2566
23694SOL     OW73619  10.094   2.305   3.380  0.2256 -0.4122 -0.0343
23694SOL    HW173620  10.134   2.241   3.322 -0.6431 -0.5308 -0.5029
23694SOL    HW273621  10.020   2.259   3.419  0.0267  0.0813  0.1726
23695SOL     OW73622   5.579   2.035   9.067 -0.2495 -0.4793 -0.3272
23695SOL    HW173623   5.502   2.064   9.019  0.2294  0.6549 -0.4259
23695SOL    HW273624   5.564   2.065   9.156  0.2409  0.0475 -0.4237
23696SOL     OW73625   8.236   7.931   7.566 -0.2760  0.2972  0.0618
23696SOL    HW173626   8.154   7.882   7.573 -0.7942  1.2434  0.6084
23696SOL    HW273627   8.242   7.980   7.647  0.3068  1.0519 -0.4328
23697SOL     OW73628   4.542   7.638   5.176  0.2343 -0.5079  0.1097
23697SOL    HW173629   4.527   7.732   5.182 -1.2326 -0.7493  0.5217
23697SOL    HW273630   4.459   7.602   5.142  0.8308 -1.6241 -0.1971
23698SOL     OW73631   0.775   1.672   0.380 -0.0407 -0.3029  0.1696
23698SOL    HW173632   0.799   1.753   0.424 -1.4962  1.2530 -1.8062
23698SOL    HW273633   0.853   1.646   0.331  0.5470 -0.3015  1.1091
23699SOL     OW73634   5.838   3.379   6.777  0.7364  0.4507  0.1152
23699SOL    HW173635   5.794   3.296   6.797 -0.0747  0.6589 -0.7863
23699SOL    HW273636   5.876   3.366   6.690 -0.1986  1.3448 -0.4355
23700SOL     OW73637   5.410   3.318   5.433  0.1766 -0.2606 -0.0175
23700SOL    HW173638   5.449   3.396   5.472 -0.0010 -0.9033  1.4880
23700SOL    HW273639   5.339   3.294   5.492 -1.2201 -0.2902 -1.6498
23701SOL     OW73640   0.691   2.916   9.905  0.2755 -0.6889  0.6223
23701SOL    HW173641   0.682   2.821   9.914  0.8172 -0.9074 -1.0475
23701SOL    HW273642   0.657   2.935   9.818 -0.5550  0.7692  1.2383
23702SOL     OW73643   6.604   2.515   5.044  0.4784  0.6561 -0.0398
23702SOL    HW173644   6.698   2.518   5.062  0.3154  0.0155  0.9703
23702SOL    HW273645   6.592   2.433   4.996  0.3538  0.4911  0.2788
23703SOL     OW73646   1.469   9.309   5.953 -0.0479 -0.4472 -0.4648
23703SOL    HW173647   1.388   9.328   6.000 -0.0246 -0.8525 -0.2564
23703SOL    HW273648   1.475   9.378   5.886 -1.1043 -0.9974 -1.1495
23704SOL     OW73649   2.418   8.538  10.036  0.1300  0.5242  0.2277
23704SOL    HW173650   2.323   8.527  10.039  0.2280 -0.3418  0.6366
23704SOL    HW273651   2.436   8.608  10.099 -0.2264  0.5720  0.2781
23705SOL     OW73652   3.244   8.964   6.091  0.0590 -0.1797 -0.2212
23705SOL    HW173653   3.188   9.034   6.124 -0.2101  0.0491 -1.1586
23705SOL    HW273654   3.255   8.905   6.166  0.2646  0.8435  0.5642
23706SOL     OW73655   5.212   3.519   7.152 -0.4129  0.2238 -0.5699
23706SOL    HW173656   5.250   3.519   7.064 -1.1244  1.1622 -0.8832
23706SOL    HW273657   5.159   3.439   7.155  1.3403 -0.9598 -0.2160
23707SOL     OW73658   5.774   7.828   7.280  0.5533  0.0633 -0.2135
23707SOL    HW173659   5.699   7.770   7.294  0.3767 -0.0914 -1.7532
23707SOL    HW273660   5.840   7.797   7.343  1.1005 -2.9487 -2.1753
23708SOL     OW73661   6.146   2.107   9.514 -0.3167 -0.6579 -0.0237
23708SOL    HW173662   6.201   2.104   9.592 -1.8959 -3.4241  1.0458
23708SOL    HW273663   6.172   2.188   9.470  1.0220  0.6623  3.0379
23709SOL     OW73664   9.490   9.942   8.207  0.0304  0.1987 -0.3260
23709SOL    HW173665   9.493   9.963   8.300  1.1762 -0.4938 -0.2022
23709SOL    HW273666   9.461   9.850   8.204  2.3783 -0.5558 -0.5359
23710SOL     OW73667   1.739   7.795   4.213 -0.1822  0.0402 -0.0985
23710SOL    HW173668   1.752   7.702   4.197  1.3149 -0.3045  2.9039
23710SOL    HW273669   1.706   7.800   4.302  2.8675  2.5434  0.9933
23711SOL     OW73670   1.039   9.056   1.880 -0.5409 -0.2597 -0.6444
23711SOL    HW173671   1.103   9.078   1.813  0.3673 -1.4065 -0.1710
23711SOL    HW273672   1.081   8.987   1.932 -1.2746  0.5223  1.0193
23712SOL     OW73673   2.599   6.492   0.733 -0.4033 -0.1596 -0.1499
23712SOL    HW173674   2.644   6.408   0.723 -1.5435 -0.3768 -4.1173
23712SOL    HW273675   2.522   6.485   0.678 -2.8807  1.9607  2.8881
23713SOL     OW73676   8.638   2.725   1.051 -0.5004 -0.1834  0.2477
23713SOL    HW173677   8.720   2.688   1.083 -0.2674 -0.2186 -0.3688
23713SOL    HW273678   8.585   2.740   1.129 -0.3411 -1.2027  0.5569
23714SOL     OW73679   8.132   1.357   2.913 -0.4231  0.5646 -0.3844
23714SOL    HW173680   8.205   1.295   2.915  0.6383  1.8179  0.0852
23714SOL    HW273681   8.156   1.420   2.846 -1.4389  0.5582 -0.7547
23715SOL     OW73682   3.976   8.289   4.412  0.5781 -0.4493 -0.3749
23715SOL    HW173683   4.067   8.275   4.437  0.8035  0.7514 -0.4943
23715SOL    HW273684   3.943   8.351   4.477  0.0354 -0.3661 -0.7280
23716SOL     OW73685  10.063   3.243   8.200 -0.9783  0.1384  0.6945
23716SOL    HW173686  10.011   3.258   8.279 -2.4544 -0.7623 -0.0844
23716SOL    HW273687   9.998   3.233   8.130  0.2804 -0.0076 -0.4724
23717SOL     OW73688   8.731   8.958   7.402  0.2876  0.1962 -0.0903
23717SOL    HW173689   8.666   9.028   7.397  1.5109  1.2518 -1.7896
23717SOL    HW273690   8.765   8.962   7.491 -1.9638 -0.3743  0.8175
23718SOL     OW73691   7.043   8.263   2.217  0.0097 -0.9590 -0.0055
23718SOL    HW173692   6.950   8.271   2.198  0.3734  0.5420 -1.3417
23718SOL    HW273693   7.083   8.339   2.174  2.0165 -2.3180 -0.6598
23719SOL     OW73694   5.810   5.203   0.883  0.4584 -0.3826  0.0671
23719SOL    HW173695   5.856   5.262   0.824 -0.5388 -0.1716 -0.5187
23719SOL    HW273696   5.718   5.229   0.876  0.0928 -1.5677  0.3038
23720SOL     OW73697   3.205  10.173   0.732 -0.2290  0.1666  0.2536
23720SOL    HW173698   3.119  10.208   0.711  0.4429  1.5896 -0.1983
23720SOL    HW273699   3.218  10.192   0.825  0.2371  1.3579 -0.0501
23721SOL     OW73700   0.798   9.637   4.561  0.3488 -0.1397  0.0783
23721SOL    HW173701   0.792   9.550   4.521 -0.4223  0.6595 -1.5964
23721SOL    HW273702   0.708   9.664   4.575  0.5204  1.3152 -1.4965
23722SOL     OW73703   7.960   1.662   8.786 -0.0400  0.0972 -0.6833
23722SOL    HW173704   7.918   1.746   8.807 -0.8850 -0.1630 -1.3276
23722SOL    HW273705   7.916   1.599   8.843  0.6256  0.0904 -0.1696
23723SOL     OW73706   5.600   5.956   2.066  0.2968  0.0443  0.2109
23723SOL    HW173707   5.517   6.002   2.063 -0.4293 -1.1035  1.8007
23723SOL    HW273708   5.606   5.910   1.982 -0.1041  1.0581 -0.3773
23724SOL     OW73709   5.326   1.743   9.815  0.5132 -0.6095  0.0137
23724SOL    HW173710   5.234   1.720   9.831  1.1915 -1.0453  3.6804
23724SOL    HW273711   5.323   1.837   9.794 -0.8652 -0.8765 -1.1034
23725SOL     OW73712   1.835   7.743   0.111 -0.2111  0.4926 -0.0290
23725SOL    HW173713   1.813   7.684   0.039  0.0049 -0.1720  0.4425
23725SOL    HW273714   1.851   7.827   0.069 -0.5161  0.2161 -0.7105
23726SOL     OW73715   1.772   2.870   4.282 -0.0625 -0.4370 -0.0972
23726SOL    HW173716   1.713   2.820   4.339  3.7467 -3.2724  1.6249
23726SOL    HW273717   1.795   2.947   4.333 -0.2418 -0.6375  0.2872
23727SOL     OW73718   7.323   3.650   2.454  0.0854 -0.3420  0.1831
23727SOL    HW173719   7.285   3.631   2.368  2.4182  1.5901 -1.3695
23727SOL    HW273720   7.401   3.596   2.459  0.7469  0.6137  0.4524
23728SOL     OW73721   8.846   9.527   8.615 -0.4408 -0.2251  0.2729
23728SOL    HW173722   8.843   9.483   8.531  1.6612 -0.0237  0.0601
23728SOL    HW273723   8.905   9.601   8.601  0.1188 -0.3280  1.9867
23729SOL     OW73724   1.400   9.819   2.316 -0.4583 -0.0679 -0.0160
23729SOL    HW173725   1.319   9.769   2.318 -0.4151 -0.0998  1.5026
23729SOL    HW273726   1.468   9.755   2.298 -0.2833 -0.7590  2.8752
23730SOL     OW73727   7.157   3.268   7.385 -0.2010 -0.0256 -0.6260
23730SOL    HW173728   7.076   3.239   7.428  1.8947 -2.0630  2.1018
23730SOL    HW273729   7.175   3.200   7.320  1.0429 -1.3473  1.0560
23731SOL     OW73730   0.942   5.508   3.686  0.6940 -0.5397 -0.3959
23731SOL    HW173731   1.012   5.451   3.715 -0.0837 -0.8961  0.8102
23731SOL    HW273732   0.866   5.481   3.737 -0.1032  0.4310 -1.0450
23732SOL     OW73733   1.488   6.101   2.304 -0.2442 -0.1946 -0.3369
23732SOL    HW173734   1.513   6.011   2.283  0.8303 -0.0506  0.2627
23732SOL    HW273735   1.453   6.096   2.393  4.6841  0.7299  1.8304
23733SOL     OW73736   6.821   8.697   2.834 -0.2611  0.5469 -0.2505
23733SOL    HW173737   6.812   8.744   2.751  1.3052 -0.4439 -1.0012
23733SOL    HW273738   6.740   8.716   2.881 -1.6740  0.1994 -2.4658
23734SOL     OW73739   5.726   1.240   0.627 -0.0633 -0.4651 -0.1834
23734SOL    HW173740   5.747   1.305   0.694 -0.0034  0.0489 -0.6980
23734SOL    HW273741   5.643   1.201   0.657 -0.5034  0.3900 -0.2690
23735SOL     OW73742   0.342   9.497   4.596  0.2340 -0.2309  0.4105
23735SOL    HW173743   0.252   9.495   4.564  0.1142  2.2425  0.4707
23735SOL    HW273744   0.338   9.459   4.683 -1.0916  1.4514  1.1096
23736SOL     OW73745   7.912   7.782   2.931 -0.1504 -0.4718  0.0082
23736SOL    HW173746   7.962   7.859   2.958 -1.4526  0.9630 -1.5568
23736SOL    HW273747   7.822   7.802   2.955 -0.4671 -1.5981 -0.2138
23737SOL     OW73748   4.389   1.519   8.485 -0.8661 -1.0387  0.0346
23737SOL    HW173749   4.348   1.604   8.504  1.1546 -0.2473  0.9506
23737SOL    HW273750   4.443   1.501   8.562  0.4326 -2.1095 -1.1064
23738SOL     OW73751   4.481   0.657   6.345 -0.2830 -0.0317 -0.0601
23738SOL    HW173752   4.511   0.632   6.257 -0.2235 -2.6150  0.6511
23738SOL    HW273753   4.556   0.702   6.384  0.4869 -0.8772 -0.5366
23739SOL     OW73754   2.543   7.641   4.983  0.4007  0.3170 -0.0248
23739SOL    HW173755   2.613   7.626   4.920 -0.7753 -1.0757 -1.0367
23739SOL    HW273756   2.521   7.734   4.974  0.7389  0.2903 -1.1629
23740SOL     OW73757   8.938   8.565   2.640 -0.0070 -0.0179  0.8151
23740SOL    HW173758   8.939   8.653   2.678  1.0163 -0.7131  2.4276
23740SOL    HW273759   8.883   8.514   2.699 -0.9179 -0.3859 -0.3289
23741SOL     OW73760   9.315   0.672   0.811  0.0890 -0.5738 -0.1634
23741SOL    HW173761   9.382   0.713   0.756 -0.1323  1.0917  0.8014
23741SOL    HW273762   9.323   0.715   0.896 -0.7871 -1.8719  0.5990
23742SOL     OW73763   6.502   2.742   3.866 -0.3071  0.3354  0.0823
23742SOL    HW173764   6.432   2.692   3.908 -0.5568  1.2587  0.7845
23742SOL    HW273765   6.459   2.822   3.837  0.4197  0.8044  0.3159
23743SOL     OW73766   1.479   6.199   0.759  0.3195 -0.2825 -0.1754
23743SOL    HW173767   1.434   6.192   0.675 -0.1045  0.9025 -0.0538
23743SOL    HW273768   1.417   6.165   0.823  0.0939  0.1195 -0.1756
23744SOL     OW73769   3.120  10.022   2.299 -0.0876 -0.0989  0.4176
23744SOL    HW173770   3.173   9.947   2.271  1.6974  1.5462 -0.6559
23744SOL    HW273771   3.119  10.081   2.223 -1.4291  1.0191  1.2706
23745SOL     OW73772   4.084   0.839   3.584  0.3538 -1.0426 -0.5885
23745SOL    HW173773   4.016   0.905   3.571 -1.7065 -3.3483 -2.1031
23745SOL    HW273774   4.035   0.758   3.602  2.7620 -2.4002  0.1307
23746SOL     OW73775   0.808   5.497   4.138 -0.1212 -0.7937  0.2516
23746SOL    HW173776   0.805   5.590   4.116  0.7515 -1.5672 -3.3583
23746SOL    HW273777   0.901   5.479   4.152 -0.2816 -1.1427  0.8902
23747SOL     OW73778   9.246   8.730   9.513 -0.9099  0.6238 -0.1717
23747SOL    HW173779   9.265   8.814   9.554 -1.1492  0.4115  0.3715
23747SOL    HW273780   9.184   8.751   9.443 -1.8201  0.7532  0.6591
23748SOL     OW73781   7.265   5.302   8.114  0.2843  0.5487 -0.1812
23748SOL    HW173782   7.257   5.206   8.117 -0.2405  0.6056  0.3485
23748SOL    HW273783   7.327   5.318   8.043  1.3317 -0.2445  0.5250
23749SOL     OW73784   6.589   3.154   4.488 -0.8088 -0.2460 -0.4119
23749SOL    HW173785   6.558   3.065   4.503 -3.0784  0.4520 -0.7164
23749SOL    HW273786   6.676   3.156   4.527 -1.4396 -2.0984  1.1888
23750SOL     OW73787   7.629   2.001   2.997 -0.2756  0.0504 -0.4724
23750SOL    HW173788   7.543   2.027   3.030 -0.3811  1.6337 -1.9061
23750SOL    HW273789   7.683   2.080   3.008  0.6546 -0.5498 -0.7256
23751SOL     OW73790   6.309   2.974   1.336  0.0479  0.1856  0.1672
23751SOL    HW173791   6.392   2.949   1.377 -0.0344  0.1790  0.3316
23751SOL    HW273792   6.254   2.896   1.346 -0.0025  0.2162  0.1243
23752SOL     OW73793   5.516  10.192   0.403  0.4625 -0.2213  0.0338
23752SOL    HW173794   5.470  10.109   0.391  0.8229 -0.5639  0.9240
23752SOL    HW273795   5.599  10.167   0.444  1.2994  0.4212 -1.2439
23753SOL     OW73796   3.665   9.003   7.824  0.4298  0.0663 -0.2859
23753SOL    HW173797   3.717   8.923   7.829 -0.5001 -0.5826 -0.7780
23753SOL    HW273798   3.690   9.053   7.901  1.1105 -0.6428 -0.0407
23754SOL     OW73799   2.979   8.088   8.047  0.5885  0.4995  0.1222
23754SOL    HW173800   3.061   8.063   8.091  1.6937 -1.1940 -2.7455
23754SOL    HW273801   3.008   8.136   7.969 -1.2830  2.2733  0.4780
23755SOL     OW73802   1.717   1.754   6.845 -0.3077 -0.1191  0.0846
23755SOL    HW173803   1.699   1.671   6.802 -0.5907  0.1310 -0.2893
23755SOL    HW273804   1.665   1.818   6.796  0.1656  0.3284  0.1616
23756SOL     OW73805   3.776   3.088   4.268  0.2678  0.2563  0.1289
23756SOL    HW173806   3.732   3.010   4.234  1.4751 -0.9115  1.1558
23756SOL    HW273807   3.791   3.143   4.191 -0.2695 -0.7059 -0.6692
23757SOL     OW73808   9.435   6.973   6.510  0.1543 -0.1127  0.2201
23757SOL    HW173809   9.385   6.983   6.591 -1.7766 -0.0275 -0.9314
23757SOL    HW273810   9.523   7.005   6.531 -0.2246 -0.4255  2.3549
23758SOL     OW73811   1.651   1.876   9.590 -0.2203  0.7559 -0.2676
23758SOL    HW173812   1.719   1.839   9.646 -0.8265  0.2184  0.1246
23758SOL    HW273813   1.694   1.894   9.507  0.2164 -0.3068 -0.2680
23759SOL     OW73814   8.474   3.964   5.320  0.3127 -0.3824 -0.6744
23759SOL    HW173815   8.515   3.922   5.396 -0.8783  2.2193  1.4883
23759SOL    HW273816   8.381   3.942   5.327  0.1527  0.1193 -1.2242
23760SOL     OW73817   6.511   7.291   0.457  0.0742  0.0252  0.0830
23760SOL    HW173818   6.580   7.267   0.395  2.0040  1.4962  1.6052
23760SOL    HW273819   6.433   7.248   0.423  1.8182 -2.0866 -1.4202
23761SOL     OW73820   2.158   9.664   0.225 -0.3535  0.3219 -0.7112
23761SOL    HW173821   2.110   9.745   0.210 -0.6525  0.3739  0.5533
23761SOL    HW273822   2.128   9.605   0.155  1.0397  1.8043 -2.5948
23762SOL     OW73823   5.437   0.353   5.872  0.3708  0.5395 -0.6426
23762SOL    HW173824   5.343   0.363   5.855  0.1427  1.7776  1.2078
23762SOL    HW273825   5.456   0.262   5.849 -1.3844  0.1453 -0.5748
23763SOL     OW73826   9.373   8.336   7.654  0.0175 -0.1976  0.0391
23763SOL    HW173827   9.391   8.249   7.618 -1.0188 -0.5246  0.2970
23763SOL    HW273828   9.431   8.344   7.730  0.5139 -0.4425 -0.3177
23764SOL     OW73829   7.321   4.562   6.769  0.2515 -0.3311  0.2452
23764SOL    HW173830   7.346   4.486   6.821  0.0365  0.2680  1.2360
23764SOL    HW273831   7.308   4.527   6.680  0.0780 -1.4573  0.7049
23765SOL     OW73832  10.201   9.543   2.804 -0.1771  0.1796 -0.3006
23765SOL    HW173833  10.148   9.537   2.883 -1.4375 -1.2271 -1.2216
23765SOL    HW273834  10.224   9.452   2.783  1.5867  0.6718 -0.6070
23766SOL     OW73835   3.925   5.032   0.030 -0.1821  0.7219  0.5131
23766SOL    HW173836   3.996   5.096   0.043  0.8315 -0.3565  0.4072
23766SOL    HW273837   3.956   4.953   0.074 -0.5657 -0.2962 -0.9942
23767SOL     OW73838   3.275   5.441   6.318  0.4604 -0.1010  0.4598
23767SOL    HW173839   3.233   5.454   6.403 -0.5199 -0.6180  0.0606
23767SOL    HW273840   3.343   5.509   6.314 -1.7630  2.1815  0.1778
23768SOL     OW73841   7.046   4.030   7.809  0.1999  0.2235 -0.1696
23768SOL    HW173842   6.966   3.986   7.838  1.1603 -1.6489 -0.3038
23768SOL    HW273843   7.035   4.039   7.714  0.4739 -0.7779 -0.3094
23769SOL     OW73844   1.110   6.640   8.540  0.0943 -0.3871  0.3934
23769SOL    HW173845   1.118   6.721   8.591 -1.9628 -0.3739  0.7399
23769SOL    HW273846   1.120   6.667   8.449  1.8047 -0.1068  0.6589
23770SOL     OW73847   0.524   1.058   1.355 -0.3302 -0.5232 -0.4015
23770SOL    HW173848   0.453   1.121   1.335 -1.0845 -1.3985 -0.5139
23770SOL    HW273849   0.478   0.978   1.378  0.6354 -0.9009  0.2008
23771SOL     OW73850   5.681   0.532   0.428 -0.3882 -0.4052 -0.0246
23771SOL    HW173851   5.708   0.532   0.520 -1.0489  0.7762  0.1947
23771SOL    HW273852   5.754   0.494   0.381 -0.3726 -1.7716  1.0866
23772SOL     OW73853   4.437   9.202   6.813  0.1477 -0.2650  0.4004
23772SOL    HW173854   4.529   9.221   6.793 -0.4167  1.9220 -0.2674
23772SOL    HW273855   4.420   9.118   6.771  1.5919 -0.2468 -0.2385
23773SOL     OW73856  10.129   5.318   6.673 -0.5384 -0.0313 -0.1670
23773SOL    HW173857  10.097   5.374   6.743 -2.4780 -0.4237 -0.7120
23773SOL    HW273858  10.123   5.229   6.708 -0.9209 -0.1779 -0.5942
23774SOL     OW73859   3.603   7.742   2.862  0.2894 -0.3307  0.2316
23774SOL    HW173860   3.561   7.781   2.785  0.2264  2.4611  1.6128
23774SOL    HW273861   3.696   7.739   2.840  0.4057  1.4600  0.4387
23775SOL     OW73862   1.611   5.624   3.468 -0.5512 -0.0762 -0.2972
23775SOL    HW173863   1.576   5.588   3.386  0.7702  0.7120 -1.2229
23775SOL    HW273864   1.549   5.693   3.492  0.1313  1.0477 -1.7186
23776SOL     OW73865   7.149   0.618   1.952 -0.2649  0.1715  0.8910
23776SOL    HW173866   7.108   0.661   2.027 -2.3430 -1.3649  0.6851
23776SOL    HW273867   7.207   0.553   1.991 -1.4199 -0.6955  1.1824
23777SOL     OW73868   5.491   9.909  10.185  0.0496 -0.8284  0.2242
23777SOL    HW173869   5.586   9.896  10.180 -0.3548 -3.9948 -0.7458
23777SOL    HW273870   5.469   9.958  10.106  0.6536 -1.8573 -0.5994
23778SOL     OW73871   7.919   0.020   3.842 -0.2924 -0.5547 -0.5928
23778SOL    HW173872   7.990   0.055   3.788 -0.1959  1.3870  0.7083
23778SOL    HW273873   7.961  -0.006   3.924 -0.4060 -3.6644 -1.4676
23779SOL     OW73874   5.970   7.474   0.805  0.4064 -0.1255 -0.4856
23779SOL    HW173875   5.909   7.413   0.762  1.2053 -1.2850 -0.0029
23779SOL    HW273876   6.042   7.483   0.743  0.3563  0.2182 -0.4927
23780SOL     OW73877   0.910   2.576   7.131 -0.4423 -0.0968  0.1883
23780SOL    HW173878   0.951   2.504   7.082 -0.3589 -1.0697  1.6598
23780SOL    HW273879   0.935   2.655   7.084 -1.3413 -1.0984 -2.0324
23781SOL     OW73880  10.078   0.939   2.828  0.2217  0.4410 -0.8390
23781SOL    HW173881  10.028   0.957   2.748  0.6275  1.0036 -0.9626
23781SOL    HW273882  10.164   0.978   2.812  1.0178 -1.2969 -0.9980
23782SOL     OW73883   3.570   7.163   9.465  0.7552 -0.4245 -0.2142
23782SOL    HW173884   3.554   7.245   9.511 -0.6343 -0.7656 -0.0620
23782SOL    HW273885   3.519   7.098   9.514  0.3292 -1.0401 -1.4554
23783SOL     OW73886   9.663   9.871   6.651  0.2058  0.2454  0.0691
23783SOL    HW173887   9.733   9.817   6.616 -0.3145 -0.8211  0.6375
23783SOL    HW273888   9.679   9.874   6.745  0.0373  0.8032  0.0828
23784SOL     OW73889   5.286   2.067   8.253 -0.0761 -0.4186 -0.2909
23784SOL    HW173890   5.259   2.097   8.339  0.2262 -1.2729  0.1083
23784SOL    HW273891   5.276   1.972   8.256 -2.1637 -0.2875 -1.9399
23785SOL     OW73892   1.061   4.973   9.019 -0.6173 -0.0705 -0.0583
23785SOL    HW173893   1.027   5.061   9.008 -1.8318 -0.4370  0.7120
23785SOL    HW273894   1.110   4.976   9.101  1.1844  0.4359 -1.1226
23786SOL     OW73895   6.674   8.540   0.737  0.7539  0.8417  0.1833
23786SOL    HW173896   6.708   8.479   0.672  1.1366  0.5760  0.6298
23786SOL    HW273897   6.581   8.518   0.744  1.3510 -1.2837  2.0468
23787SOL     OW73898   7.488   8.433   1.190  0.3572 -0.1591 -0.0824
23787SOL    HW173899   7.560   8.385   1.230  0.0091  1.0872  2.0568
23787SOL    HW273900   7.409   8.397   1.231  0.0609  1.8675  1.1785
23788SOL     OW73901   9.308   5.182   6.099 -0.1401  0.4000  0.3966
23788SOL    HW173902   9.249   5.204   6.172 -1.5545 -1.8885 -0.0198
23788SOL    HW273903   9.388   5.151   6.142 -0.4084  0.4937  0.9765
23789SOL     OW73904  10.200   0.292   0.435 -0.4403  0.1281  0.2901
23789SOL    HW173905  10.279   0.239   0.447  0.8681  1.6678 -1.2801
23789SOL    HW273906  10.217   0.371   0.488 -1.5746 -0.1776  1.1289
23790SOL     OW73907   4.125   2.005   7.143  0.1561 -0.0117 -0.0065
23790SOL    HW173908   4.136   2.016   7.048  0.3263  1.0059  0.1204
23790SOL    HW273909   4.199   2.052   7.181 -1.6202  2.3500  0.6989
23791SOL     OW73910   2.243   5.467   7.886 -0.3235 -0.2362 -0.1982
23791SOL    HW173911   2.177   5.474   7.817 -2.1470 -2.0825  1.2751
23791SOL    HW273912   2.237   5.549   7.934 -0.7509  0.0671 -0.7616
23792SOL     OW73913   4.495   8.210   0.316  0.2486 -0.0683 -0.9402
23792SOL    HW173914   4.546   8.135   0.285 -1.3334 -0.6671 -2.1823
23792SOL    HW273915   4.435   8.173   0.381  2.6549  0.9611  1.9513
23793SOL     OW73916   6.592   7.091  10.095  0.3409  0.5608  0.4133
23793SOL    HW173917   6.585   7.030  10.021 -1.6075  0.5096  0.6126
23793SOL    HW273918   6.651   7.159  10.065  1.6933 -0.8515 -0.2128
23794SOL     OW73919   5.156   3.483   2.256  0.0317  0.0432  0.5277
23794SOL    HW173920   5.224   3.437   2.306  0.3029  0.3400  0.4224
23794SOL    HW273921   5.102   3.525   2.323  1.2367  1.6369  0.5033
23795SOL     OW73922   4.507   2.039   3.922  0.7013  0.2969 -0.1903
23795SOL    HW173923   4.592   2.043   3.965  0.1185 -0.0663  1.0074
23795SOL    HW273924   4.455   2.108   3.965 -0.3344 -1.0075  0.6913
23796SOL     OW73925   3.870   3.146   4.876 -0.3795 -0.1261 -0.6916
23796SOL    HW173926   3.833   3.199   4.947 -0.1977  0.3173 -0.9282
23796SOL    HW273927   3.946   3.103   4.916 -0.5092 -0.1862 -0.5082
23797SOL     OW73928   0.405   0.689   2.682  0.4158  0.3507  0.4925
23797SOL    HW173929   0.432   0.736   2.603  0.0170  1.0075  0.7511
23797SOL    HW273930   0.440   0.740   2.754 -0.7746  0.7433  0.8065
23798SOL     OW73931   5.566   6.147   4.666 -0.2461  0.1187 -0.3540
23798SOL    HW173932   5.588   6.063   4.625 -0.9326  0.3330 -1.1670
23798SOL    HW273933   5.470   6.148   4.670 -0.2304  0.7325 -0.0549
23799SOL     OW73934   7.272   6.209   0.454  0.5387 -0.2017 -0.3674
23799SOL    HW173935   7.296   6.290   0.410  1.0443 -0.7711 -1.1545
23799SOL    HW273936   7.317   6.141   0.404  1.4537 -0.8226  1.2836
23800SOL     OW73937   3.942   3.845   5.621 -0.6752 -0.3913  0.1538
23800SOL    HW173938   3.854   3.880   5.619  0.4942  2.6907  0.3117
23800SOL    HW273939   3.952   3.800   5.537 -1.7565  0.8193 -0.6282
23801SOL     OW73940   2.420   9.355   2.977  0.2611  0.1206  0.0758
23801SOL    HW173941   2.461   9.278   2.938 -0.0787 -0.7608  1.4057
23801SOL    HW273942   2.327   9.344   2.960  0.3076  0.7524 -0.6038
23802SOL     OW73943   5.905   3.887   4.885 -0.3517  0.5013 -0.4955
23802SOL    HW173944   5.892   3.844   4.801 -0.6376  0.5374 -0.4714
23802SOL    HW273945   6.000   3.883   4.900 -0.3993 -0.2984 -0.3965
23803SOL     OW73946   6.767   6.043   1.798  0.2500 -0.0483  0.1795
23803SOL    HW173947   6.843   5.988   1.818  1.1977  0.6202 -1.4610
23803SOL    HW273948   6.784   6.126   1.843  1.3228  0.6801 -1.4972
23804SOL     OW73949   1.458   3.986   1.636 -0.5534  0.3125 -0.2656
23804SOL    HW173950   1.538   4.037   1.629  0.2551 -1.2243 -2.8195
23804SOL    HW273951   1.488   3.895   1.644 -2.0298 -0.2198 -0.5997
23805SOL     OW73952   0.949   0.321   9.744  0.4460  0.3475 -0.1270
23805SOL    HW173953   0.862   0.328   9.783 -1.0739  0.0732 -3.2633
23805SOL    HW273954   1.007   0.300   9.817 -1.7857  2.4739  2.3532
23806SOL     OW73955   3.611   2.631   1.546 -0.1536  0.6145  0.3393
23806SOL    HW173956   3.641   2.702   1.489  1.1014 -0.5797 -0.5296
23806SOL    HW273957   3.596   2.558   1.486  0.2395 -0.3720  1.4298
23807SOL     OW73958   0.348   2.708   6.690  0.2254  0.3557 -0.0328
23807SOL    HW173959   0.293   2.659   6.752  0.9447 -0.2834  0.0989
23807SOL    HW273960   0.350   2.653   6.611 -0.0377  0.7968 -0.3531
23808SOL     OW73961   7.315   3.126   4.005 -0.2540 -0.4617  0.2725
23808SOL    HW173962   7.330   3.078   3.924  0.1249 -0.2000  0.1880
23808SOL    HW273963   7.233   3.089   4.040  0.3046 -1.5423  0.4776
23809SOL     OW73964   8.540  10.044   7.044  0.4647  0.3633 -0.1900
23809SOL    HW173965   8.529  10.062   7.138 -0.1479  0.8362 -0.3452
23809SOL    HW273966   8.528  10.130   7.003 -0.3751 -0.0435 -0.7854
23810SOL     OW73967   9.932   5.583   9.110 -0.7372 -0.3671 -0.2677
23810SOL    HW173968   9.841   5.588   9.139 -0.7213 -0.4096 -0.2097
23810SOL    HW273969   9.972   5.518   9.167 -0.3540  0.5547  0.5142
23811SOL     OW73970   0.806   4.458   5.478  0.1415 -0.0931 -0.0641
23811SOL    HW173971   0.772   4.465   5.567 -2.2913 -1.2733 -0.8597
23811SOL    HW273972   0.841   4.369   5.472 -2.0735 -0.9250 -1.0543
23812SOL     OW73973   5.947   7.484   8.705  0.3109 -0.9967  0.5742
23812SOL    HW173974   5.916   7.398   8.736  0.7962 -0.6242  2.1543
23812SOL    HW273975   6.042   7.474   8.699  0.3601 -0.5962  0.6811
23813SOL     OW73976   5.236   5.353   4.017  0.7941  0.6349  1.0607
23813SOL    HW173977   5.223   5.375   4.109  1.3335  1.7863  0.8621
23813SOL    HW273978   5.171   5.284   4.000  2.3396 -1.3896  2.9647
23814SOL     OW73979   1.907   5.334   2.177 -0.4976 -0.0786 -0.1083
23814SOL    HW173980   1.877   5.292   2.096 -0.0117 -1.5163  0.4340
23814SOL    HW273981   1.836   5.393   2.201 -0.0505  1.4571 -2.3424
23815SOL     OW73982   4.606   6.494   7.373 -0.1745 -0.0853 -0.0836
23815SOL    HW173983   4.640   6.449   7.450  0.2472 -1.5279 -1.0893
23815SOL    HW273984   4.626   6.586   7.389  0.0119 -0.3745  1.4736
23816SOL     OW73985   4.936  10.075   8.605  0.0140  0.0599 -0.4094
23816SOL    HW173986   5.014  10.096   8.656 -0.2626  0.4540 -0.1430
23816SOL    HW273987   4.903   9.993   8.643 -0.5003  0.6440  0.4074
23817SOL     OW73988   2.717   5.279   7.919 -0.0809  0.2298  0.5564
23817SOL    HW173989   2.738   5.185   7.921  1.1294  0.3632 -2.7547
23817SOL    HW273990   2.629   5.283   7.883  0.2913  0.3887 -0.3562
23818SOL     OW73991   8.402   4.926   9.014  0.0034 -0.0086  0.1661
23818SOL    HW173992   8.441   5.011   8.994  1.3323 -0.4110  0.9741
23818SOL    HW273993   8.335   4.914   8.947 -0.6995  1.9920  0.4682
23819SOL     OW73994   8.014   5.224   4.176  0.0016 -0.0037  0.1922
23819SOL    HW173995   8.106   5.242   4.156  0.1679 -1.3611 -0.3342
23819SOL    HW273996   7.972   5.215   4.091 -0.6606  0.7929  0.4325
23820SOL     OW73997   3.366   7.895   3.719 -0.2338 -0.3033 -0.5277
23820SOL    HW173998   3.354   7.805   3.691 -0.2222 -0.6051  0.4325
23820SOL    HW273999   3.386   7.943   3.639  2.7812 -1.6790 -0.6487
23821SOL     OW74000   6.847   5.060   5.269  0.2699  0.4354 -0.2057
23821SOL    HW174001   6.906   5.135   5.277  0.2087  0.4154  0.4675
23821SOL    HW274002   6.849   5.037   5.176  2.0228 -0.1015 -0.0601
23822SOL     OW74003   9.671   7.661   4.534 -0.1704 -0.6014  0.0158
23822SOL    HW174004   9.577   7.678   4.541 -0.1046  0.3791 -1.3111
23822SOL    HW274005   9.705   7.680   4.621 -1.2821 -1.5817  0.6942
23823SOL     OW74006   1.553   9.148   0.343  0.3851 -0.3153 -0.0653
23823SOL    HW174007   1.497   9.224   0.328  1.8512  1.0612  1.3420
23823SOL    HW274008   1.519   9.108   0.422  0.3218 -0.4690 -0.1703
23824SOL     OW74009   2.269   4.389   1.280 -0.2529  0.0045  0.0571
23824SOL    HW174010   2.264   4.347   1.194  1.6901 -0.0369 -0.0647
23824SOL    HW274011   2.322   4.467   1.265 -1.4885  1.0168  0.8523
23825SOL     OW74012   8.264   4.683   2.881  0.6482  0.5737 -0.0411
23825SOL    HW174013   8.335   4.646   2.933  0.1624  2.1023  1.7494
23825SOL    HW274014   8.260   4.626   2.803  1.6977 -1.4611  1.3285
23826SOL     OW74015   4.095   4.639   1.909 -0.6624  0.4405  0.4171
23826SOL    HW174016   4.104   4.561   1.855  0.6666  0.5356  0.4860
23826SOL    HW274017   4.011   4.677   1.882 -0.2013  0.2774 -1.3006
23827SOL     OW74018   1.728   4.400   0.178  0.0816  0.6207  0.3511
23827SOL    HW174019   1.740   4.482   0.129  0.1863  1.1591  1.2724
23827SOL    HW274020   1.633   4.393   0.189  0.1933  1.7100  2.1076
23828SOL     OW74021   1.892   7.584   9.613  0.1894  0.5845 -0.4317
23828SOL    HW174022   1.939   7.598   9.530  1.1670  0.4047  0.0851
23828SOL    HW274023   1.961   7.564   9.676 -0.7388 -1.6469 -0.0854
23829SOL     OW74024   9.336   3.960   4.582 -0.5067 -0.4099 -0.1901
23829SOL    HW174025   9.384   3.955   4.665  0.4493 -2.3245 -0.8255
23829SOL    HW274026   9.394   3.918   4.518 -1.1498  1.2213 -1.8729
23830SOL     OW74027   2.857   7.934   4.793 -0.4890 -0.3729 -0.4400
23830SOL    HW174028   2.918   7.862   4.776 -0.7001 -0.3617 -1.2769
23830SOL    HW274029   2.787   7.921   4.729 -0.1026  1.0631 -1.1832
23831SOL     OW74030   7.359   0.314   6.887  0.0618 -0.3216 -0.0384
23831SOL    HW174031   7.310   0.308   6.969  0.3246  1.0606  0.2365
23831SOL    HW274032   7.293   0.338   6.822  0.7287  4.2543  0.8142
23832SOL     OW74033   2.406   2.280   2.991 -0.2395 -0.1282  0.1880
23832SOL    HW174034   2.452   2.295   3.074  0.7331  1.3240 -0.5956
23832SOL    HW274035   2.375   2.190   2.997  1.7878 -0.7946  1.2210
23833SOL     OW74036  10.006   4.109   2.100 -0.0097  0.5457 -0.1656
23833SOL    HW174037  10.019   4.064   2.183 -0.8340  1.3808  0.4233
23833SOL    HW274038  10.085   4.162   2.088  0.2318  0.2048 -0.0530
23834SOL     OW74039  10.030   7.708   2.381 -0.2486  0.2763  0.3465
23834SOL    HW174040  10.105   7.767   2.383 -0.1048  0.0858  0.7102
23834SOL    HW274041   9.972   7.744   2.314  0.0380  0.5854  0.2666
23835SOL     OW74042   3.093   9.901   9.577 -0.6733  0.0265  0.4371
23835SOL    HW174043   3.188   9.907   9.580 -0.5801  0.3168 -2.0989
23835SOL    HW274044   3.064   9.988   9.549 -1.5078 -0.7709 -1.2804
23836SOL     OW74045   8.624   3.193   8.634 -0.3356 -0.2545  0.3333
23836SOL    HW174046   8.717   3.212   8.644 -0.5354  0.9201  0.0488
23836SOL    HW274047   8.581   3.278   8.644 -1.4466 -0.9252  1.3245
23837SOL     OW74048   2.369   6.758   1.296  0.3462  0.2561 -0.1016
23837SOL    HW174049   2.295   6.723   1.346 -0.3926  0.5459 -0.9694
23837SOL    HW274050   2.395   6.686   1.238  0.3360  0.3594 -0.2352
23838SOL     OW74051   7.987   8.208   2.512 -0.2886  0.5867 -0.3328
23838SOL    HW174052   8.003   8.202   2.418 -1.8716  0.9582 -0.6358
23838SOL    HW274053   8.074   8.208   2.551  0.3562 -1.5959 -1.6763
23839SOL     OW74054   0.274   1.131   4.059 -1.1891 -0.5516 -0.0284
23839SOL    HW174055   0.304   1.040   4.056 -0.2828 -0.2945  1.1185
23839SOL    HW274056   0.213   1.134   4.133  0.7041  0.3281  1.5456
23840SOL     OW74057   5.494   0.725   2.635  0.0430  0.0850  0.5902
23840SOL    HW174058   5.551   0.750   2.562  0.6984  0.8961  1.3647
23840SOL    HW274059   5.548   0.670   2.691 -0.4046 -0.3991  0.5513
23841SOL     OW74060   7.383   6.003   8.567  0.6346  0.8054  0.3736
23841SOL    HW174061   7.367   6.078   8.623  1.3113  1.3040 -0.1005
23841SOL    HW274062   7.309   5.944   8.584 -0.6978  2.2337 -0.3542
23842SOL     OW74063   2.826   3.345   3.439 -0.2342  0.3353  0.2078
23842SOL    HW174064   2.753   3.310   3.387 -0.0418 -2.2123  1.5981
23842SOL    HW274065   2.802   3.326   3.529  1.5088  0.7888  0.7800
23843SOL     OW74066   4.159   4.081   4.029 -0.3673 -0.5945  0.2629
23843SOL    HW174067   4.077   4.116   3.993 -0.7840 -2.4073 -0.6281
23843SOL    HW274068   4.138   3.990   4.050  1.1652 -0.7970  0.9204
23844SOL     OW74069   6.491   5.141   6.477 -0.1645  0.4275  0.2921
23844SOL    HW174070   6.494   5.074   6.545  0.9406  0.5420  0.3576
23844SOL    HW274071   6.475   5.092   6.396 -0.2088  0.1739  0.4541
23845SOL     OW74072   5.076   7.979   3.233 -0.4710 -0.6251  0.1472
23845SOL    HW174073   5.069   7.922   3.157  0.5335  0.9236 -1.1229
23845SOL    HW274074   5.164   7.964   3.267 -0.5699 -0.5820  0.4296
23846SOL     OW74075   3.091   8.753   5.462  0.1167  0.2813  0.0239
23846SOL    HW174076   3.181   8.762   5.494 -0.3823 -0.9701  1.8235
23846SOL    HW274077   3.054   8.841   5.470 -0.6057 -0.3328  4.9169
23847SOL     OW74078   3.611   1.334   0.750 -0.3660 -0.0468  0.2640
23847SOL    HW174079   3.663   1.294   0.820 -1.1527 -0.7204  0.4769
23847SOL    HW274080   3.661   1.411   0.723  0.2158 -0.0948  1.1945
23848SOL     OW74081   7.522   0.809   9.198 -0.2264 -0.4206 -0.0579
23848SOL    HW174082   7.507   0.900   9.221  1.8104  0.0344 -0.3664
23848SOL    HW274083   7.492   0.801   9.107 -0.6113 -0.1114  0.0436
23849SOL     OW74084   3.274   3.454   2.974 -0.1306 -0.1666  0.3321
23849SOL    HW174085   3.266   3.513   3.049  0.5167 -1.0859  1.1368
23849SOL    HW274086   3.368   3.447   2.959 -0.2494 -0.1291 -0.4642
23850SOL     OW74087   2.815   4.490   2.320  0.6821 -0.6818 -0.0280
23850SOL    HW174088   2.850   4.576   2.346  0.4436 -0.1741 -1.3183
23850SOL    HW274089   2.769   4.458   2.397 -0.2093  0.8808  0.1086
23851SOL     OW74090   8.561   4.815   9.772 -0.0314 -0.1056  0.1381
23851SOL    HW174091   8.585   4.738   9.822 -1.3299 -1.1154 -0.7894
23851SOL    HW274092   8.498   4.784   9.708 -3.1214  2.3331  1.8865
23852SOL     OW74093   8.452   4.640   3.720 -0.2091  0.1335 -0.6922
23852SOL    HW174094   8.414   4.576   3.781 -0.0195 -0.6078 -1.3351
23852SOL    HW274095   8.435   4.602   3.633  0.0306  0.8958 -1.0713
23853SOL     OW74096   2.208   8.041   7.736  0.2322 -0.3553 -0.2418
23853SOL    HW174097   2.249   8.120   7.770 -1.1599  0.2749  0.0281
23853SOL    HW274098   2.118   8.045   7.769 -0.2306 -1.3628 -1.3418
23854SOL     OW74099   1.098   0.477   6.363  0.4218  0.6913  0.1418
23854SOL    HW174100   1.076   0.490   6.455  0.8503  1.6173  0.1167
23854SOL    HW274101   1.014   0.475   6.318  0.1989 -0.0458  0.5872
23855SOL     OW74102   3.445   5.757   4.682  0.6091 -0.3105  0.1285
23855SOL    HW174103   3.503   5.780   4.755  1.6002  0.2101 -0.8024
23855SOL    HW274104   3.496   5.695   4.629 -0.2072 -0.9096  0.0248
23856SOL     OW74105   2.801   6.797   9.464  0.1429  0.1481 -0.2997
23856SOL    HW174106   2.890   6.831   9.466  0.4609 -0.7071  0.5727
23856SOL    HW274107   2.767   6.823   9.378  1.5022 -0.2250 -0.9560
23857SOL     OW74108   9.830   5.583  10.086 -0.4182 -0.0952  0.5977
23857SOL    HW174109   9.876   5.500  10.073 -0.4017  0.1092 -0.7419
23857SOL    HW274110   9.738   5.562  10.070 -0.6899 -0.3126  2.4018
23858SOL     OW74111   0.614   1.325   3.670  0.0593  0.6873  0.0973
23858SOL    HW174112   0.693   1.289   3.712 -0.2939 -1.0380 -0.6598
23858SOL    HW274113   0.542   1.279   3.713 -0.3680 -0.0741 -1.3852
23859SOL     OW74114   4.439   4.872   3.808 -0.4676 -0.3819  0.6753
23859SOL    HW174115   4.350   4.884   3.776  0.5779 -0.3645 -2.3768
23859SOL    HW274116   4.485   4.952   3.781  0.9540 -1.2658  0.4345
23860SOL     OW74117   6.210   8.064   3.696  0.1416 -0.1479 -0.0607
23860SOL    HW174118   6.210   8.039   3.604  0.9417 -0.9707  0.1546
23860SOL    HW274119   6.267   8.000   3.738  0.9194  1.0817  0.7772
23861SOL     OW74120   7.695   2.744   2.851  0.2432  0.1277  0.6661
23861SOL    HW174121   7.781   2.778   2.876 -0.2026  0.4160  1.8118
23861SOL    HW274122   7.693   2.655   2.886  0.2410 -0.0429  0.2432
23862SOL     OW74123   2.678   5.112   0.490  0.3788 -0.1296 -0.6702
23862SOL    HW174124   2.699   5.116   0.583 -0.5463 -0.2872 -0.4512
23862SOL    HW274125   2.757   5.076   0.449  0.1154 -1.8243  0.2802
23863SOL     OW74126   2.758   0.072   8.927  0.1949 -0.1115 -0.4787
23863SOL    HW174127   2.762   0.152   8.980  1.7467  0.8276 -2.0034
23863SOL    HW274128   2.849   0.046   8.914 -0.1142  0.1453 -3.4038
23864SOL     OW74129   9.887   3.363   9.926  0.7005 -0.2681 -0.6925
23864SOL    HW174130   9.814   3.359   9.988 -0.9943 -0.5379 -2.6459
23864SOL    HW274131   9.905   3.272   9.904  1.2468 -0.1749 -0.6245
23865SOL     OW74132   9.778   2.669   5.141 -0.1511  0.9908 -0.0888
23865SOL    HW174133   9.797   2.761   5.158 -0.6543  0.9641  0.6543
23865SOL    HW274134   9.698   2.651   5.191 -0.0215  0.1320 -0.1732
23866SOL     OW74135   3.598   0.027   7.122  0.7377 -0.5052  0.2408
23866SOL    HW174136   3.553   0.063   7.198 -1.8811  0.3018 -1.6272
23866SOL    HW274137   3.657   0.097   7.094  2.0549 -0.9780  1.7528
23867SOL     OW74138   1.725   4.100   8.552 -0.7123  0.0143  0.5665
23867SOL    HW174139   1.760   4.021   8.509 -0.9921  0.3070 -0.2147
23867SOL    HW274140   1.774   4.172   8.511 -0.2149  0.2200  1.5215
23868SOL     OW74141   3.224   2.601   5.658  0.2782  0.7143  0.1973
23868SOL    HW174142   3.135   2.634   5.670  0.3942  1.3889 -0.7322
23868SOL    HW274143   3.251   2.635   5.573  0.6459 -1.2541 -0.5015
23869SOL     OW74144   1.979   8.821   2.365  0.5393  0.6363  0.0749
23869SOL    HW174145   1.941   8.793   2.282 -1.9826 -0.8246  1.6695
23869SOL    HW274146   1.919   8.888   2.398  0.8527  0.3326  1.2839
23870SOL     OW74147   0.700   0.343   4.064  0.3759  0.4786  0.6123
23870SOL    HW174148   0.787   0.340   4.104  0.5659 -1.7539  0.1041
23870SOL    HW274149   0.645   0.291   4.122 -0.1103  0.0416 -0.2198
23871SOL     OW74150   0.713   0.070   1.002 -0.0135  0.2310  0.6848
23871SOL    HW174151   0.628   0.113   1.001 -0.7677 -1.2499 -0.5811
23871SOL    HW274152   0.752   0.092   0.917  1.2259  1.5738  1.5789
23872SOL     OW74153  10.000   2.095   1.233 -0.8876  0.2759 -0.1994
23872SOL    HW174154  10.094   2.094   1.214 -1.1829 -0.0473 -1.6556
23872SOL    HW274155   9.995   2.117   1.326  0.6326  0.2033 -0.0907
23873SOL     OW74156   7.099   3.335   5.539 -0.1131 -0.3956 -0.4031
23873SOL    HW174157   7.059   3.297   5.617 -0.1952  0.8056  0.1429
23873SOL    HW274158   7.072   3.277   5.467  0.1013 -1.5920  0.4738
23874SOL     OW74159   7.628   5.670   5.219 -0.1943  0.0354 -0.2769
23874SOL    HW174160   7.674   5.682   5.302  0.0943  0.0378 -0.4329
23874SOL    HW274161   7.685   5.610   5.170  0.5080  1.3733 -1.1365
23875SOL     OW74162   1.303   7.105   0.185  0.7326 -0.2000  0.2626
23875SOL    HW174163   1.363   7.032   0.170 -1.2187 -1.4913 -1.4657
23875SOL    HW274164   1.338   7.176   0.130  0.0054 -1.3484 -1.7419
23876SOL     OW74165   5.921   8.922   0.521  0.2125  0.4822  0.3502
23876SOL    HW174166   5.989   8.943   0.585 -0.4713  1.0947  0.8820
23876SOL    HW274167   5.920   8.996   0.461  0.6876  0.0192 -0.2368
23877SOL     OW74168   5.057   2.194   2.186  0.2195  0.2896  0.5198
23877SOL    HW174169   4.970   2.162   2.211 -0.7872  0.8318 -2.0595
23877SOL    HW274170   5.090   2.129   2.124  1.1415  0.7072  0.5644
23878SOL     OW74171   0.285   8.160   8.655 -0.0073 -0.0102  0.2316
23878SOL    HW174172   0.285   8.070   8.622  0.2819  0.2698 -0.5509
23878SOL    HW274173   0.309   8.152   8.747 -2.0606 -0.9146  0.7129
23879SOL     OW74174   2.717   1.918   9.780  0.8509  0.0046  0.3613
23879SOL    HW174175   2.745   1.855   9.846  1.0470  0.8950  1.1473
23879SOL    HW274176   2.643   1.963   9.820  1.4541  1.0774  0.2783
23880SOL     OW74177   6.687   1.540   4.485  0.3680 -0.3393  0.0932
23880SOL    HW174178   6.732   1.607   4.434  0.4946 -1.1539 -0.8849
23880SOL    HW274179   6.603   1.528   4.440 -0.6931  0.8968  1.6788
23881SOL     OW74180   2.446   6.969   4.657 -0.3044  0.1841 -0.3840
23881SOL    HW174181   2.493   6.952   4.575  1.6313 -2.1894  1.1558
23881SOL    HW274182   2.369   6.913   4.652  0.4190 -0.8551 -0.1006
23882SOL     OW74183   1.443   4.189   0.732  0.3665 -0.2192  0.0257
23882SOL    HW174184   1.445   4.217   0.640  0.1586 -0.1679  0.0364
23882SOL    HW274185   1.498   4.111   0.734  0.2077 -0.3360 -0.1793
23883SOL     OW74186   8.675   9.191   4.628 -0.4937  0.0190 -0.6414
23883SOL    HW174187   8.616   9.260   4.599 -0.4169 -0.0476 -0.9583
23883SOL    HW274188   8.617   9.118   4.651 -0.5818  0.2260 -0.1968
23884SOL     OW74189   0.374   0.909   9.929 -0.1360 -0.2501  0.4451
23884SOL    HW174190   0.448   0.925   9.988 -0.5328  0.3368  0.7929
23884SOL    HW274191   0.394   0.959   9.851  0.2402 -0.7750  0.2026
23885SOL     OW74192   2.457   9.174   8.424  0.0763  0.1193  0.5796
23885SOL    HW174193   2.551   9.190   8.421 -0.0194  0.4403 -1.1322
23885SOL    HW274194   2.449   9.080   8.442  0.7194  0.0020  0.2518
23886SOL     OW74195   3.359   4.708   8.900  0.0019 -0.8318 -0.0701
23886SOL    HW174196   3.410   4.761   8.839  0.3593 -1.2099 -0.1013
23886SOL    HW274197   3.268   4.717   8.871  0.2040 -1.2331 -0.8193
23887SOL     OW74198   8.113   7.668   7.697  0.2127 -0.5256 -0.1063
23887SOL    HW174199   8.046   7.732   7.673  1.6357  1.2038  0.4818
23887SOL    HW274200   8.079   7.585   7.663 -1.5242  0.5610 -1.1152
23888SOL     OW74201   0.869   1.520   7.475  0.3014 -0.2454 -0.1429
23888SOL    HW174202   0.921   1.535   7.396 -0.0045 -0.5745 -0.4073
23888SOL    HW274203   0.853   1.608   7.510 -1.0401  0.0217 -1.4062
23889SOL     OW74204   9.290   3.720   6.365 -0.0358 -0.0695  0.0277
23889SOL    HW174205   9.246   3.640   6.395  0.7787  0.3406  2.3897
23889SOL    HW274206   9.299   3.773   6.444  1.9628  1.1687 -1.0124
23890SOL     OW74207   4.277   7.580   5.144  0.0591 -0.4377  0.6998
23890SOL    HW174208   4.249   7.604   5.233  0.2637 -0.3697  0.7459
23890SOL    HW274209   4.223   7.635   5.087 -0.9305 -1.3644  0.7486
23891SOL     OW74210   7.926   1.706   0.975 -0.3002 -0.0538  0.3901
23891SOL    HW174211   7.951   1.788   1.018 -2.1409  1.1555 -0.7881
23891SOL    HW274212   8.000   1.686   0.918 -0.8724  2.1598 -1.2066
23892SOL     OW74213   3.465   4.093   4.339 -0.2994  0.3942  0.0937
23892SOL    HW174214   3.458   4.178   4.383  0.3844  0.1824  0.6246
23892SOL    HW274215   3.413   4.034   4.393 -0.8403  0.4938 -0.3202
23893SOL     OW74216   4.336   3.298   0.711  0.0439  0.6555  0.0891
23893SOL    HW174217   4.290   3.379   0.685  0.3645  0.4150 -1.2273
23893SOL    HW274218   4.266   3.233   0.719 -0.5267  1.5827  3.4109
23894SOL     OW74219  10.133   6.365  10.117 -0.3146  0.1306 -0.8116
23894SOL    HW174220  10.227   6.361  10.135 -0.1701 -0.3409 -1.6638
23894SOL    HW274221  10.126   6.349  10.023 -1.1136  1.8531 -1.0622
23895SOL     OW74222   0.325   2.187   3.085  0.6177  0.1494  0.2211
23895SOL    HW174223   0.380   2.219   3.156  0.4366 -1.1933  0.9885
23895SOL    HW274224   0.387   2.156   3.018  0.8090 -1.1071  0.9671
23896SOL     OW74225   9.679   1.805   7.846  0.2911 -0.0318  0.5124
23896SOL    HW174226   9.753   1.865   7.831  0.5105 -0.4028  0.0852
23896SOL    HW274227   9.697   1.765   7.931  1.4762 -1.3881 -0.3547
23897SOL     OW74228   5.212   5.163   6.319 -0.1327  0.1597  0.6289
23897SOL    HW174229   5.262   5.102   6.265 -0.9752  0.2090 -0.2191
23897SOL    HW274230   5.211   5.245   6.268 -0.4973  0.3583  0.9549
23898SOL     OW74231   0.428   5.736   6.459 -0.1035 -0.7665 -0.4464
23898SOL    HW174232   0.447   5.702   6.371 -1.5035 -0.3798 -0.9138
23898SOL    HW274233   0.332   5.733   6.466 -0.0883  0.4427  0.5653
23899SOL     OW74234   3.676   2.399   8.030 -0.4538 -0.3864 -0.1750
23899SOL    HW174235   3.757   2.383   7.982 -0.6333 -0.3101 -0.5039
23899SOL    HW274236   3.667   2.495   8.029 -1.1017 -0.4565 -1.0515
23900SOL     OW74237   5.776   0.370   4.184  0.4764 -0.1473  0.3483
23900SOL    HW174238   5.736   0.417   4.258  0.7600  0.9044 -0.1568
23900SOL    HW274239   5.848   0.320   4.223 -1.3799 -2.1565  1.2918
23901SOL     OW74240   8.402   7.910   3.418 -0.3832 -0.4183 -0.5377
23901SOL    HW174241   8.313   7.907   3.383 -0.3383 -0.9738 -0.6153
23901SOL    HW274242   8.394   7.871   3.506 -0.1747 -0.7099 -0.6451
23902SOL     OW74243   0.091   3.638   6.562  0.3311  0.0665  0.2766
23902SOL    HW174244   0.049   3.684   6.489  2.6088  2.4371  0.3584
23902SOL    HW274245   0.183   3.631   6.535  1.1575  0.7484  2.8082
23903SOL     OW74246   8.636   4.770   3.152 -0.0816 -0.2501 -0.3845
23903SOL    HW174247   8.635   4.851   3.203  0.1269 -0.6440  0.2435
23903SOL    HW274248   8.714   4.778   3.096 -0.0844 -0.0027 -0.3519
23904SOL     OW74249   7.074   7.869   6.379 -0.2145  0.1417  0.1738
23904SOL    HW174250   7.154   7.827   6.411  1.3660  1.8697 -1.3758
23904SOL    HW274251   7.016   7.797   6.357  1.4469 -1.1797  0.0343
23905SOL     OW74252   9.015   1.369   2.680 -0.1305 -0.7936 -0.3008
23905SOL    HW174253   9.105   1.402   2.678 -0.7669  0.9607 -1.0143
23905SOL    HW274254   8.999   1.338   2.591 -1.2183  1.7116 -1.0212
23906SOL     OW74255   1.389   7.704   0.338 -0.0180 -0.2791 -0.2249
23906SOL    HW174256   1.409   7.751   0.257  0.4762 -0.3537 -0.1498
23906SOL    HW274257   1.304   7.662   0.321  0.3152 -0.7065 -0.8917
23907SOL     OW74258   8.529   5.436   3.012 -0.3268 -0.2466  0.2843
23907SOL    HW174259   8.531   5.507   2.948 -1.7287 -0.7005 -0.2856
23907SOL    HW274260   8.437   5.429   3.037  0.0065 -0.9801  1.3309
23908SOL     OW74261   4.335   0.472   5.287 -0.3405  0.0404  0.0904
23908SOL    HW174262   4.309   0.385   5.320 -1.2952 -0.1995 -1.2522
23908SOL    HW274263   4.361   0.456   5.197 -0.2283  1.1053 -0.0617
23909SOL     OW74264   1.403   7.732   4.070 -0.0213 -0.4184  0.0722
23909SOL    HW174265   1.319   7.713   4.029  0.2652  1.7118 -1.5816
23909SOL    HW274266   1.456   7.654   4.056 -0.4251 -0.2878 -2.3656
23910SOL     OW74267   8.485   3.259   3.607  0.3115  0.1745 -0.1582
23910SOL    HW174268   8.458   3.230   3.520  1.6197 -2.2759  0.2189
23910SOL    HW274269   8.419   3.224   3.667  1.7430 -1.9034  0.2662
23911SOL     OW74270   3.977   9.483   9.941  0.0583  0.1367 -0.4736
23911SOL    HW174271   3.983   9.432   9.860 -2.5261  0.8103 -1.1418
23911SOL    HW274272   3.911   9.437   9.993  1.2059  0.1063  0.9957
23912SOL     OW74273   4.531   6.310   2.774 -0.4434  0.4267  0.7195
23912SOL    HW174274   4.556   6.229   2.818  0.2182 -0.2607 -0.8900
23912SOL    HW274275   4.435   6.314   2.784 -0.4512 -0.4208  1.0089
23913SOL     OW74276   7.258   0.838   1.694  0.1526  0.2113 -0.1916
23913SOL    HW174277   7.235   0.896   1.621 -1.0342 -0.5087 -0.4024
23913SOL    HW274278   7.269   0.897   1.769  1.1930  0.9313 -0.8980
23914SOL     OW74279   3.556   4.067   1.416  0.3288 -0.1862  0.4494
23914SOL    HW174280   3.506   4.145   1.440 -0.5585 -0.5194 -0.2913
23914SOL    HW274281   3.557   4.013   1.495 -1.9702 -0.9561 -0.0175
23915SOL     OW74282   6.878   1.243   0.441 -0.4200 -0.0859  0.4714
23915SOL    HW174283   6.927   1.164   0.462 -0.5501  0.7792  4.5709
23915SOL    HW274284   6.945   1.312   0.437 -0.6743  0.1518  0.2809
23916SOL     OW74285   5.475   0.947   6.019 -0.0019  0.1799  0.1931
23916SOL    HW174286   5.418   0.916   6.090  0.2185 -1.8916 -0.5004
23916SOL    HW274287   5.416   0.968   5.947 -0.0311 -0.4286  0.0332
23917SOL     OW74288   6.476   5.729   6.951 -0.0278 -0.3686  0.5984
23917SOL    HW174289   6.571   5.717   6.947 -0.1798 -1.2604 -0.4352
23917SOL    HW274290   6.456   5.789   6.879 -0.1941  0.1664  1.0882
23918SOL     OW74291   8.923  10.030   9.099 -0.2273 -0.2574  0.2972
23918SOL    HW174292   8.914   9.982   9.182 -0.0286 -1.7989 -0.5633
23918SOL    HW274293   9.011  10.008   9.068 -0.5856 -0.2973 -0.7027
23919SOL     OW74294   5.856   8.086   7.031 -0.4785 -0.2761  0.0840
23919SOL    HW174295   5.824   8.076   6.941  0.1898 -2.1490  0.0353
23919SOL    HW274296   5.926   8.021   7.039  1.7970  2.1437  0.8964
23920SOL     OW74297   0.675   7.921   8.883  0.0118 -0.3731  0.4076
23920SOL    HW174298   0.626   7.917   8.801  0.9481 -1.0177 -0.1385
23920SOL    HW274299   0.747   7.982   8.865 -0.6244  0.6284  1.2252
23921SOL     OW74300   6.327   9.591   1.771  0.1544 -0.9745  0.2178
23921SOL    HW174301   6.275   9.666   1.743  0.1995 -1.6230 -1.6840
23921SOL    HW274302   6.417   9.623   1.773 -0.1418 -0.1886  2.3143
23922SOL     OW74303   9.471   4.433   7.773  0.1666 -0.1715  0.0330
23922SOL    HW174304   9.489   4.407   7.682  0.2520  0.7619 -0.2273
23922SOL    HW274305   9.511   4.364   7.826  2.3216  0.5387 -0.5868
23923SOL     OW74306   1.356   4.589   2.902  0.1785  0.4524  0.3452
23923SOL    HW174307   1.416   4.548   2.965  1.1935 -1.0996 -1.5486
23923SOL    HW274308   1.270   4.583   2.943  1.0356  0.8877  2.2460
23924SOL     OW74309   1.098   2.194   1.116 -0.0954 -0.4126 -1.1425
23924SOL    HW174310   1.095   2.103   1.088 -0.9855 -0.4141 -1.0404
23924SOL    HW274311   1.172   2.198   1.177  0.4568 -0.8846 -1.7824
23925SOL     OW74312   8.830   9.525  10.011  0.2140 -0.3659  0.1492
23925SOL    HW174313   8.762   9.589   9.994  0.2522 -0.0829  1.0422
23925SOL    HW274314   8.807   9.450   9.956  0.7954  0.8342 -1.7805
23926SOL     OW74315   1.829   3.547   7.641  0.1735 -0.1252 -1.1159
23926SOL    HW174316   1.911   3.567   7.596 -0.7437  0.8499 -2.4001
23926SOL    HW274317   1.821   3.451   7.634  0.0727  0.0030 -3.0258
23927SOL     OW74318   6.133   1.756   5.007 -0.2310 -0.3487  0.4540
23927SOL    HW174319   6.106   1.742   5.098  1.0021 -1.3158  0.6768
23927SOL    HW274320   6.174   1.674   4.981 -0.3796  0.0039 -0.9148
23928SOL     OW74321   6.616   3.798   0.351  0.1986  0.0045  0.5654
23928SOL    HW174322   6.568   3.738   0.408  0.3569 -0.7039 -0.0372
23928SOL    HW274323   6.694   3.750   0.325 -0.3468 -0.0703 -1.0320
23929SOL     OW74324   4.279   0.841   0.209  0.1822  0.5384 -0.5344
23929SOL    HW174325   4.328   0.786   0.149  0.0172  0.6457 -0.7660
23929SOL    HW274326   4.311   0.817   0.296  0.8602  0.8173 -0.7058
23930SOL     OW74327   1.724   9.901   5.193 -0.2027 -0.3291 -0.2262
23930SOL    HW174328   1.793   9.863   5.247  0.5296  2.1867  0.6694
23930SOL    HW274329   1.644   9.888   5.244  0.2582  0.6481  0.7670
23931SOL     OW74330   8.424   0.503   6.145 -0.0322 -0.0944  0.2230
23931SOL    HW174331   8.446   0.542   6.229  0.7060  0.7258 -0.3403
23931SOL    HW274332   8.333   0.474   6.155 -0.5263  1.5659  0.7307
23932SOL     OW74333   4.805   1.732   2.823 -0.1793 -0.3462  0.1079
23932SOL    HW174334   4.749   1.806   2.847 -0.5798  0.1030 -2.0947
23932SOL    HW274335   4.758   1.655   2.855  0.0707  0.2960  2.1095
23933SOL     OW74336   4.673   9.612   2.455 -0.3046 -0.3285  0.1961
23933SOL    HW174337   4.584   9.626   2.423 -0.2873  0.2631  0.4021
23933SOL    HW274338   4.663   9.545   2.524 -0.5086 -0.6703 -0.1610
23934SOL     OW74339   6.170   7.551   5.551  0.6969  0.0101  0.1434
23934SOL    HW174340   6.104   7.618   5.531 -0.6717 -1.0949  0.8603
23934SOL    HW274341   6.203   7.575   5.638  0.3934 -0.1007  0.2889
23935SOL     OW74342   6.413   9.581   4.356 -0.4118  0.1751  0.4365
23935SOL    HW174343   6.475   9.591   4.284  1.0655  1.0785  1.7832
23935SOL    HW274344   6.465   9.543   4.427 -1.9822 -1.2519  0.8385
23936SOL     OW74345   1.445   9.135   0.834 -0.0126 -0.0795  0.0266
23936SOL    HW174346   1.536   9.165   0.840 -0.3029  0.8292 -0.0308
23936SOL    HW274347   1.409   9.153   0.921 -0.0924 -0.5986  0.1015
23937SOL     OW74348   9.535   2.063   3.080 -0.1209  0.4982 -0.1325
23937SOL    HW174349   9.540   1.992   3.015  2.3255 -1.1668  1.7775
23937SOL    HW274350   9.445   2.094   3.074 -0.4397 -0.7916 -3.0811
23938SOL     OW74351   5.188   2.965   4.553 -0.3380 -0.1402 -0.0126
23938SOL    HW174352   5.126   2.909   4.508  0.0124 -0.0033 -0.6708
23938SOL    HW274353   5.196   2.927   4.640 -0.3466 -0.9279 -0.3508
23939SOL     OW74354   1.283   9.994   1.775  0.3600 -0.8969 -0.2758
23939SOL    HW174355   1.269  10.039   1.691  0.1118 -1.8385 -0.7411
23939SOL    HW274356   1.378   9.983   1.779  0.5242  0.5455  0.3089
23940SOL     OW74357   4.040   5.275   3.577  0.3487  0.3519  0.9659
23940SOL    HW174358   3.985   5.319   3.642  1.3292  1.5911  0.9578
23940SOL    HW274359   4.006   5.305   3.493 -0.2944 -0.5091  0.9013
23941SOL     OW74360   7.358   7.486   2.659 -0.6602 -0.2598 -0.0042
23941SOL    HW174361   7.411   7.493   2.738  0.0288  0.0240 -0.4888
23941SOL    HW274362   7.277   7.531   2.680  0.5529  2.1335 -0.3442
23942SOL     OW74363   8.009   0.541   1.149 -0.4180  0.3192  0.2733
23942SOL    HW174364   7.964   0.456   1.147 -2.5056  1.3818  0.4668
23942SOL    HW274365   7.984   0.579   1.233  2.5898  0.0592  1.3275
23943SOL     OW74366   1.901   7.394   4.702 -0.1024 -0.1249 -0.3804
23943SOL    HW174367   1.825   7.433   4.658 -0.2154 -0.3426 -0.3793
23943SOL    HW274368   1.866   7.358   4.783  0.0002 -0.2435 -0.3895
23944SOL     OW74369   4.477   4.761   5.504 -0.1967 -0.4905 -0.3458
23944SOL    HW174370   4.404   4.800   5.551 -2.4069 -0.9002 -3.3110
23944SOL    HW274371   4.526   4.714   5.571 -2.1443  0.5442  1.8605
23945SOL     OW74372   2.377   8.291   0.087  0.1534 -0.0689 -0.1725
23945SOL    HW174373   2.380   8.224   0.018  0.9613  0.2512 -0.4622
23945SOL    HW274374   2.464   8.333   0.083 -0.0891  0.5032  0.4877
23946SOL     OW74375   8.727   6.842   1.269  0.1690 -0.0736  0.4439
23946SOL    HW174376   8.767   6.916   1.223 -0.7072  0.3611  0.3921
23946SOL    HW274377   8.728   6.867   1.361 -0.8029  0.3211  0.3516
23947SOL     OW74378   2.693   3.405   0.964  0.2399  0.1894  0.3503
23947SOL    HW174379   2.650   3.370   0.886 -0.4405 -0.0278  0.8164
23947SOL    HW274380   2.727   3.490   0.936 -0.5467  0.3981 -0.0177
23948SOL     OW74381   1.303   1.487   9.975  0.6382 -0.5901  0.2939
23948SOL    HW174382   1.218   1.501  10.017  0.3195  0.6794 -0.7690
23948SOL    HW274383   1.342   1.574   9.968  1.3216 -0.9679 -0.7257
23949SOL     OW74384   6.003   8.540   4.433 -0.1278  0.4175 -0.3760
23949SOL    HW174385   6.039   8.527   4.345 -2.5093  0.8551 -1.4625
23949SOL    HW274386   6.028   8.462   4.481 -0.2079 -0.5886 -1.9322
23950SOL     OW74387   6.009   7.992   7.795  0.4366  0.3362  0.3388
23950SOL    HW174388   5.941   8.047   7.833  0.2101  0.7940 -0.7129
23950SOL    HW274389   6.078   8.054   7.770  0.2298  0.1429 -0.7391
23951SOL     OW74390   1.578   2.727   3.359  0.4599  0.6974 -0.4973
23951SOL    HW174391   1.641   2.688   3.299  0.1672 -1.3944  0.5199
23951SOL    HW274392   1.632   2.771   3.425  0.8312  0.2971 -0.5302
23952SOL     OW74393  10.117   0.447   7.287 -0.5152 -0.1556  0.2252
23952SOL    HW174394  10.107   0.371   7.230  0.9151 -0.6402  0.5943
23952SOL    HW274395  10.031   0.459   7.327 -0.7163 -1.6444  0.2555
23953SOL     OW74396   0.941   3.344   6.093  0.0235  0.1545  0.1384
23953SOL    HW174397   1.003   3.270   6.093  0.5482  0.5807 -1.1414
23953SOL    HW274398   0.860   3.307   6.058  0.0429 -0.0160  0.2731
23954SOL     OW74399  10.004   0.543   1.990 -0.3859 -0.0569 -0.0263
23954SOL    HW174400  10.039   0.462   1.952 -1.7734 -0.1852 -1.1034
23954SOL    HW274401  10.003   0.605   1.917  0.0668  0.7263  0.6369
23955SOL     OW74402   2.316   5.107   9.361 -0.3106 -0.8293  0.4659
23955SOL    HW174403   2.374   5.109   9.285 -0.4900 -2.8848  0.2406
23955SOL    HW274404   2.321   5.195   9.398 -0.4099  0.2633 -2.0615
23956SOL     OW74405   9.975   7.156   0.513  0.0645  0.0401  0.0646
23956SOL    HW174406   9.985   7.188   0.423 -0.5477  1.2606  0.4251
23956SOL    HW274407  10.056   7.181   0.557  0.2404 -0.2945 -0.0729
23957SOL     OW74408   6.046   2.627   2.074  0.0839  0.0329 -0.4675
23957SOL    HW174409   6.073   2.608   2.164  0.3583 -0.4000 -0.6397
23957SOL    HW274410   5.959   2.666   2.083  0.4594  0.7672  0.0380
23958SOL     OW74411   4.643   5.716   9.670 -0.5472 -0.2399  0.3115
23958SOL    HW174412   4.558   5.760   9.678 -0.4304 -0.1070  0.8466
23958SOL    HW274413   4.682   5.723   9.758 -0.7377 -1.8266  0.5396
23959SOL     OW74414   7.947   7.398   8.880 -0.6416 -0.2425 -0.1813
23959SOL    HW174415   7.889   7.462   8.839 -0.0065  1.4041  1.4414
23959SOL    HW274416   7.907   7.382   8.965 -2.1177 -3.8610 -1.4518
23960SOL     OW74417   9.921   4.167   7.256 -0.0658  0.1942  0.0579
23960SOL    HW174418  10.010   4.171   7.223  0.5878  1.2360  1.8694
23960SOL    HW274419   9.868   4.205   7.185  0.5241 -3.0493 -2.2228
23961SOL     OW74420  10.041   4.069   6.726  0.8456  0.3033 -0.2906
23961SOL    HW174421  10.126   4.111   6.728  0.4745  1.2024 -2.2004
23961SOL    HW274422  10.055   3.989   6.676  0.6439  0.2512 -0.2665
23962SOL     OW74423   5.343   0.204   0.211 -0.2856 -0.2450 -0.6550
23962SOL    HW174424   5.437   0.195   0.195 -0.3957 -1.3397 -0.6730
23962SOL    HW274425   5.333   0.295   0.240  0.2950  0.8785 -3.8704
23963SOL     OW74426   1.706   1.271   8.738 -0.0415  0.5846 -0.0477
23963SOL    HW174427   1.726   1.214   8.813  0.8489  1.8581  0.7051
23963SOL    HW274428   1.777   1.255   8.676  0.4329  1.1628  0.3381
23964SOL     OW74429   7.512   3.463   8.365 -0.3694  0.2261 -0.1304
23964SOL    HW174430   7.541   3.549   8.334  0.3645 -0.2976 -0.9243
23964SOL    HW274431   7.503   3.473   8.460 -0.0101  1.1036 -0.1847
23965SOL     OW74432   6.043   9.896   9.604 -0.2884 -0.1629  0.2749
23965SOL    HW174433   6.090   9.896   9.687 -0.9331  0.3443  0.6460
23965SOL    HW274434   5.954   9.924   9.626 -0.8160 -1.2792 -0.3960
23966SOL     OW74435   5.461   9.900   8.380  0.5899 -0.1914 -0.3814
23966SOL    HW174436   5.455   9.986   8.340  1.2009 -0.1787 -0.4407
23966SOL    HW274437   5.555   9.880   8.382  0.3633 -1.4470 -1.6147
23967SOL     OW74438   2.035  10.034   9.107  0.2303  0.2811  0.1047
23967SOL    HW174439   1.968  10.094   9.140 -1.2494 -1.9388  1.1868
23967SOL    HW274440   2.109  10.046   9.167 -0.6288 -0.1197  1.2493
23968SOL     OW74441   1.514   9.335   4.475  0.4764 -0.1787 -0.3079
23968SOL    HW174442   1.565   9.306   4.550  2.0899  1.9396 -0.5486
23968SOL    HW274443   1.572   9.395   4.428 -2.5661  3.1127 -0.0408
23969SOL     OW74444   9.038   6.876   9.035  0.2429  0.0304 -0.0085
23969SOL    HW174445   9.053   6.788   9.068 -1.1203 -0.2477 -0.1211
23969SOL    HW274446   9.058   6.933   9.109 -0.2895 -0.4505  0.5090
23970SOL     OW74447   9.929   4.060   4.453 -0.4251 -0.4122 -0.6731
23970SOL    HW174448   9.874   4.013   4.515  0.9322 -0.4087  0.5457
23970SOL    HW274449  10.011   4.012   4.452  1.1331  2.0982  0.8812
23971SOL     OW74450   0.828   5.019   1.582 -0.3086 -0.3707  0.4179
23971SOL    HW174451   0.734   5.000   1.585 -0.3032 -0.5337 -0.3240
23971SOL    HW274452   0.868   4.944   1.627 -0.3898 -1.4245 -1.2252
23972SOL     OW74453   8.105   9.093   1.477  0.7060 -0.2776  0.0530
23972SOL    HW174454   8.017   9.059   1.489 -0.3510  2.5517  0.5756
23972SOL    HW274455   8.147   9.082   1.562  0.3483 -0.1347  0.2481
23973SOL     OW74456   1.072   7.583   7.984 -0.3732  0.1794  0.6202
23973SOL    HW174457   1.165   7.569   8.000 -0.5380 -1.4319  0.2832
23973SOL    HW274458   1.036   7.495   7.976 -1.5090  0.8146 -1.6322
23974SOL     OW74459   1.100   6.944   9.350  0.6382 -0.0282  0.4854
23974SOL    HW174460   1.079   6.921   9.259 -1.4215 -0.7158  1.1072
23974SOL    HW274461   1.097   6.861   9.397  1.8280  0.3127  1.1752
23975SOL     OW74462   5.378   3.133   1.609  0.1237  0.0254  0.3162
23975SOL    HW174463   5.469   3.163   1.603  0.2769  0.3077  3.3455
23975SOL    HW274464   5.384   3.049   1.655 -1.0877 -0.2271  0.0156
23976SOL     OW74465   2.695   5.233   1.750 -0.0860 -0.4168 -0.0341
23976SOL    HW174466   2.653   5.199   1.829  1.4519 -1.9110  0.1804
23976SOL    HW274467   2.681   5.327   1.753 -0.1275 -0.4762  1.9842
23977SOL     OW74468   4.558   6.023   9.006  0.0320  0.4753  0.2773
23977SOL    HW174469   4.502   5.983   9.073 -1.3440 -0.3082 -1.2856
23977SOL    HW274470   4.637   5.969   9.006 -1.0905 -1.2118 -0.5940
23978SOL     OW74471   1.403   5.286   7.670 -0.2185 -0.0948 -0.0422
23978SOL    HW174472   1.358   5.277   7.586  0.8623  0.3340 -0.6780
23978SOL    HW274473   1.392   5.379   7.693 -0.3464 -0.1686  0.1976
23979SOL     OW74474   8.913   4.484   8.958  0.2500  0.2956  0.1227
23979SOL    HW174475   8.947   4.573   8.953 -2.4126  1.3095 -0.2886
23979SOL    HW274476   8.868   4.480   9.043  0.4329 -0.6946  0.1844
23980SOL     OW74477   9.834   8.718   5.708  0.0647 -0.3542 -0.0981
23980SOL    HW174478   9.902   8.679   5.763  0.2972  0.9043  0.5280
23980SOL    HW274479   9.845   8.675   5.623  0.1055 -1.8610  0.6486
23981SOL     OW74480   1.788   5.825   0.139  0.1941  0.3700  0.1476
23981SOL    HW174481   1.761   5.742   0.100  1.1253  0.4331 -0.6302
23981SOL    HW274482   1.882   5.818   0.149  0.2777  1.3182  0.1247
23982SOL     OW74483   2.107   9.430   4.000 -0.2357 -0.1365 -0.1678
23982SOL    HW174484   2.090   9.347   4.044  2.3145 -0.4840  0.2524
23982SOL    HW274485   2.078   9.417   3.910 -0.1691 -1.3671 -0.0170
23983SOL     OW74486   5.604   4.914   7.319  0.1428  0.5903  0.3282
23983SOL    HW174487   5.664   4.845   7.291  1.6521  1.7610  0.6673
23983SOL    HW274488   5.635   4.939   7.406 -0.2906  1.8343  0.1329
23984SOL     OW74489   9.601   6.851   3.973  0.2941  0.3105  0.0008
23984SOL    HW174490   9.620   6.757   3.968  0.8167  0.3630  0.9135
23984SOL    HW274491   9.506   6.857   3.964  0.0335 -0.4717  1.9757
23985SOL     OW74492   2.248   2.490   2.464 -0.2723 -0.1604  0.1549
23985SOL    HW174493   2.168   2.456   2.505 -0.5465  2.5711  2.0053
23985SOL    HW274494   2.219   2.568   2.418  1.2338  0.4602  0.2598
23986SOL     OW74495   4.782   8.057   5.274 -0.2835 -0.1867  0.3914
23986SOL    HW174496   4.796   8.028   5.184  0.1365  1.3492 -0.0553
23986SOL    HW274497   4.687   8.070   5.281 -0.5031 -1.8078  0.6601
23987SOL     OW74498   5.222   9.503   9.452  0.3692  0.1167 -0.3113
23987SOL    HW174499   5.202   9.435   9.517  2.2170 -1.0668 -0.9212
23987SOL    HW274500   5.158   9.572   9.468 -1.6938 -1.8619  0.1889
23988SOL     OW74501   3.179   6.955   5.390 -0.6630 -0.1229 -0.3705
23988SOL    HW174502   3.101   6.980   5.341 -0.5089  0.3173 -0.3990
23988SOL    HW274503   3.247   7.014   5.357  0.0841 -1.6165 -1.5386
23989SOL     OW74504   4.975   7.734   6.826  0.2534  0.0408 -0.1085
23989SOL    HW174505   5.045   7.673   6.805  0.4772  0.2715 -0.0296
23989SOL    HW274506   4.955   7.778   6.743 -0.5645 -0.8204 -0.3773
23990SOL     OW74507   0.119   4.543   8.860 -0.2739  0.0916 -0.5061
23990SOL    HW174508   0.085   4.496   8.936 -0.2735 -1.1299 -1.2379
23990SOL    HW274509   0.040   4.572   8.813 -0.2745  1.8594  0.5519
23991SOL     OW74510   6.608   7.359   1.573  0.4719  0.9063  0.5008
23991SOL    HW174511   6.529   7.308   1.560  1.7386 -1.3972  1.5350
23991SOL    HW274512   6.606   7.425   1.503 -1.1519 -0.6161 -0.9366
23992SOL     OW74513   2.255   3.835   6.761 -0.4112 -0.2487  0.0161
23992SOL    HW174514   2.178   3.851   6.816 -0.3887 -0.0834 -0.0002
23992SOL    HW274515   2.258   3.910   6.702  1.5279  1.2681  2.0003
23993SOL     OW74516   4.910   4.110   3.630  0.2888  0.1150  0.3205
23993SOL    HW174517   4.825   4.119   3.587  0.4339  2.4079  0.4343
23993SOL    HW274518   4.967   4.172   3.585  1.1634  0.5773  1.9952
23994SOL     OW74519   9.718   0.203   1.376  0.3338  0.1989  0.0421
23994SOL    HW174520   9.721   0.218   1.470  1.0140 -2.7699  0.5443
23994SOL    HW274521   9.698   0.289   1.339 -1.6977  1.0828  2.9763
23995SOL     OW74522   5.744   5.845   1.148 -0.3219 -0.4628  0.6341
23995SOL    HW174523   5.827   5.849   1.196  1.0698 -2.4770 -1.4982
23995SOL    HW274524   5.731   5.935   1.118  1.9590 -0.3992 -0.3388
23996SOL     OW74525   0.754   1.089   1.728 -0.1780 -0.2659 -0.1191
23996SOL    HW174526   0.761   1.046   1.643  1.7277 -1.0013  0.3824
23996SOL    HW274527   0.704   1.169   1.711 -1.1330 -1.1720 -1.6299
23997SOL     OW74528   6.211   2.801  10.107 -0.5314  0.0700  0.2230
23997SOL    HW174529   6.256   2.765  10.031 -0.1915 -0.8144  0.8418
23997SOL    HW274530   6.270   2.782  10.180 -1.9267 -1.1353  1.0489
23998SOL     OW74531   3.999   4.980   7.131 -0.1751 -0.3484 -0.0762
23998SOL    HW174532   4.074   4.990   7.189  2.0121  1.2625 -3.0642
23998SOL    HW274533   3.979   4.887   7.133  1.3734 -0.6682  1.3584
23999SOL     OW74534   5.144   3.039   4.086 -0.4025 -0.3134  0.2936
23999SOL    HW174535   5.121   3.125   4.050  1.0230 -0.9604 -2.2729
23999SOL    HW274536   5.214   3.057   4.149 -1.8118  0.6561  1.6136
24000SOL     OW74537   7.395   7.122   0.965 -0.3066 -0.9450  0.2104
24000SOL    HW174538   7.374   7.215   0.951  0.7940 -0.8680 -1.0632
24000SOL    HW274539   7.405   7.087   0.877  3.9727 -1.1640  0.6677
24001SOL     OW74540   3.248   9.593   4.878 -0.3307  0.3126  0.3191
24001SOL    HW174541   3.231   9.669   4.823 -1.3158 -0.7518 -0.8795
24001SOL    HW274542   3.337   9.566   4.856  0.2763  1.5300  1.2630
24002SOL     OW74543   2.284   4.554   4.015  0.4382 -0.2153  0.3387
24002SOL    HW174544   2.367   4.536   4.058  1.0361 -0.4415 -0.8921
24002SOL    HW274545   2.274   4.649   4.021  1.2912 -0.0701 -0.4144
24003SOL     OW74546   9.444   0.946   0.256 -0.0771  0.5847 -0.4838
24003SOL    HW174547   9.507   1.013   0.279 -2.2185  2.5520 -0.1968
24003SOL    HW274548   9.441   0.948   0.160  0.0927  0.6949 -0.4863
24004SOL     OW74549   8.528   4.307   1.973 -0.1120  0.0553 -0.5033
24004SOL    HW174550   8.467   4.378   1.993 -1.1802 -0.4111 -2.0412
24004SOL    HW274551   8.570   4.333   1.891 -0.6777 -1.1825 -1.2002
24005SOL     OW74552   0.578   4.660   5.705  0.1785 -0.3623 -0.0585
24005SOL    HW174553   0.542   4.572   5.715  1.0326 -1.0140 -2.5054
24005SOL    HW274554   0.623   4.676   5.788 -1.5107 -1.4906  1.1159
24006SOL     OW74555   6.526   9.514   9.156 -0.6073 -0.1814 -0.2919
24006SOL    HW174556   6.586   9.589   9.160 -1.2893  0.4212 -1.0685
24006SOL    HW274557   6.578   9.440   9.188  0.5622  0.3188 -0.9786
24007SOL     OW74558   1.940   8.752   1.293 -0.5506 -0.1831 -0.1057
24007SOL    HW174559   1.921   8.845   1.282  0.3224  0.2446  1.7513
24007SOL    HW274560   1.854   8.710   1.293 -0.9483  0.6164 -0.9686
24008SOL     OW74561   8.928   7.478   8.155 -0.1140 -0.3585  0.2329
24008SOL    HW174562   8.957   7.500   8.067 -0.2730  0.2839  0.3439
24008SOL    HW274563   8.843   7.522   8.164 -0.3086 -0.7959  0.5400
24009SOL     OW74564   6.540   4.229   2.028  0.2501  0.2094  0.3487
24009SOL    HW174565   6.507   4.215   2.116  1.2072  0.2233  0.7190
24009SOL    HW274566   6.601   4.303   2.037  0.8164 -0.1847 -0.2075
24010SOL     OW74567   7.282   8.884   5.086  0.0606 -0.5237 -0.2622
24010SOL    HW174568   7.295   8.836   5.169 -3.6444 -0.0777  0.6709
24010SOL    HW274569   7.314   8.824   5.019  0.9962 -1.8580  1.3308
24011SOL     OW74570   3.319   0.302   4.921 -0.2461  0.4047  0.3103
24011SOL    HW174571   3.364   0.329   5.001 -0.2573  0.2438  0.3715
24011SOL    HW274572   3.295   0.210   4.937  0.8348  0.0040 -0.3732
24012SOL     OW74573   0.744   1.472   9.647 -0.8657 -0.2166 -0.2066
24012SOL    HW174574   0.827   1.477   9.696 -1.3589  0.8531  0.5602
24012SOL    HW274575   0.765   1.423   9.568  0.8660  1.3096 -0.7255
24013SOL     OW74576   1.958   2.327   9.084  0.7618  0.2086  0.3766
24013SOL    HW174577   1.934   2.256   9.024 -0.2689  1.2781 -0.4760
24013SOL    HW274578   1.920   2.301   9.168  1.8935 -1.1054  0.5081
24014SOL     OW74579   9.028   7.762   4.052 -0.7067  0.2765  0.4533
24014SOL    HW174580   9.061   7.782   3.964  1.0937 -1.0421  0.7930
24014SOL    HW274581   9.058   7.835   4.106 -0.1171  0.1320  0.3330
24015SOL     OW74582   6.834   7.099   5.907 -0.3511  0.4021  0.4593
24015SOL    HW174583   6.849   7.050   5.988 -0.4007  2.5679  1.8274
24015SOL    HW274584   6.909   7.079   5.852 -1.7613 -3.4654 -0.1994
24016SOL     OW74585   9.221   6.720   6.138 -0.0732  0.0718 -0.0958
24016SOL    HW174586   9.301   6.724   6.085 -0.5779  1.7114 -0.7611
24016SOL    HW274587   9.242   6.767   6.218 -0.1088 -0.2040  0.0753
24017SOL     OW74588   4.277   5.247   3.699 -0.0603  0.3475  0.2285
24017SOL    HW174589   4.209   5.233   3.634 -2.2908  1.2686  2.2879
24017SOL    HW274590   4.258   5.334   3.735  1.9855  0.4607  1.0924
24018SOL     OW74591   5.972   4.418   2.861 -0.4781 -0.0069 -0.7302
24018SOL    HW174592   5.936   4.380   2.780  0.8095  2.0232 -2.3016
24018SOL    HW274593   5.906   4.480   2.890 -1.3229 -1.3459  0.2897
24019SOL     OW74594   9.544   0.134   8.726 -0.4683 -0.4598 -0.4446
24019SOL    HW174595   9.593   0.064   8.682  1.1730  1.5540 -1.9383
24019SOL    HW274596   9.601   0.210   8.719 -1.2069  0.5059  3.1803
24020SOL     OW74597   4.496   5.474   3.396  0.3143  0.3901 -0.2071
24020SOL    HW174598   4.496   5.379   3.411  1.1192  0.4892  0.4852
24020SOL    HW274599   4.430   5.488   3.329 -0.3105 -0.5881  0.1913
24021SOL     OW74600   1.680   2.955   3.543  0.5184 -0.0328  0.3690
24021SOL    HW174601   1.770   2.981   3.521  0.6904  0.4454  1.5950
24021SOL    HW274602   1.626   2.997   3.476  1.2509 -0.7539 -0.6850
24022SOL     OW74603   2.375   9.888   5.568  0.0651 -0.2305 -0.2709
24022SOL    HW174604   2.413   9.806   5.537 -1.6012 -1.6132  1.3057
24022SOL    HW274605   2.438   9.920   5.633  1.2351  0.3008 -1.6356
24023SOL     OW74606   7.005   8.777   9.948  0.4102  0.1188  0.0449
24023SOL    HW174607   6.980   8.816   9.864  0.4824 -0.5174 -0.2758
24023SOL    HW274608   7.095   8.748   9.935  0.4498  0.0990  0.3717
24024SOL     OW74609   7.580   3.095   5.426  0.0469 -0.0853 -0.0891
24024SOL    HW174610   7.590   3.055   5.512 -0.2406  2.7041  1.2990
24024SOL    HW274611   7.666   3.131   5.406  0.3533 -1.4880 -1.4138
24025SOL     OW74612   3.791   0.403   2.159  0.2428  0.1721  0.1504
24025SOL    HW174613   3.742   0.481   2.133  0.7994  0.8167  1.0231
24025SOL    HW274614   3.726   0.333   2.161 -0.8845  1.2512  2.4290
24026SOL     OW74615   5.957   0.487   5.274  0.1255  0.5296  0.5981
24026SOL    HW174616   5.962   0.443   5.359  2.8626 -0.5595 -0.0716
24026SOL    HW274617   6.004   0.429   5.214 -1.4658  1.4449 -1.6086
24027SOL     OW74618   6.269   2.755   2.247 -0.2793  0.3142  0.1658
24027SOL    HW174619   6.292   2.761   2.154  1.1225  2.1874  0.5982
24027SOL    HW274620   6.306   2.834   2.286 -0.4016 -0.6945  2.4248
24028SOL     OW74621   3.282   3.636   0.597  0.2884 -0.2713 -0.4703
24028SOL    HW174622   3.344   3.667   0.530  3.0231  0.2201  2.1798
24028SOL    HW274623   3.311   3.547   0.617 -0.3865 -0.3371  0.2149
24029SOL     OW74624   2.615   1.979   8.011  0.1545  0.5271 -0.2484
24029SOL    HW174625   2.686   2.036   7.980 -1.1725  1.8761 -0.8605
24029SOL    HW274626   2.566   2.034   8.073  0.5789 -0.9270  1.4144
24030SOL     OW74627   8.637   1.167   1.558  0.2788 -0.1824 -0.4270
24030SOL    HW174628   8.671   1.177   1.469 -0.8550 -1.6401 -1.0503
24030SOL    HW274629   8.687   1.094   1.595  1.0534  0.7085  0.2873
24031SOL     OW74630   4.966   0.788   7.556  0.3576 -0.0265  0.1216
24031SOL    HW174631   5.029   0.841   7.507  1.2204 -2.1743 -1.1476
24031SOL    HW274632   5.014   0.761   7.634  0.6597 -0.7580 -0.3131
24032SOL     OW74633   9.081   9.257   8.511  0.0593 -0.6217 -0.0930
24032SOL    HW174634   9.175   9.266   8.495  0.4177  0.1121  2.2225
24032SOL    HW274635   9.040   9.314   8.446  1.3881  1.3778  0.7597
24033SOL     OW74636   1.724   0.866   9.472 -0.2646  0.1240 -0.2318
24033SOL    HW174637   1.763   0.781   9.492  0.6481  0.5947 -0.0165
24033SOL    HW274638   1.681   0.854   9.388 -0.9654 -0.8270  0.2529
24034SOL     OW74639   5.622   1.550   5.574 -0.0189 -0.3617  0.2187
24034SOL    HW174640   5.627   1.530   5.480 -0.1281 -2.7295  0.6859
24034SOL    HW274641   5.542   1.507   5.603  1.4722 -2.0552  1.9379
24035SOL     OW74642   3.301  10.014   8.182 -0.7590 -0.0219 -0.3077
24035SOL    HW174643   3.308   9.954   8.108 -1.2537  0.0351 -0.4043
24035SOL    HW274644   3.241  10.082   8.152 -0.7682  0.1335  0.0567
24036SOL     OW74645   8.845   3.512   2.964 -0.2731  0.1480 -0.3589
24036SOL    HW174646   8.918   3.567   2.992  0.0146 -0.1328 -0.5499
24036SOL    HW274647   8.883   3.455   2.897 -0.2454 -1.1340  0.7145
24037SOL     OW74648   2.531   4.730   4.949  0.0960  0.1039 -0.0567
24037SOL    HW174649   2.452   4.743   4.898  0.2870  0.6553 -0.2116
24037SOL    HW274650   2.533   4.804   5.009  0.3109 -0.0983  0.1872
24038SOL     OW74651   9.694   7.651   6.621  0.1948 -0.2753  0.1819
24038SOL    HW174652   9.703   7.743   6.598  1.7492 -0.7184 -1.0639
24038SOL    HW274653   9.766   7.634   6.680 -1.1115 -0.2879  1.8139
24039SOL     OW74654   7.149  10.059   8.909 -0.1237 -0.1086  0.4202
24039SOL    HW174655   7.220  10.116   8.938  0.6251  0.0830 -1.7389
24039SOL    HW274656   7.104  10.034   8.990  0.4543  2.3175  1.5324
24040SOL     OW74657   4.008   8.385   1.086 -0.1661 -0.4867  0.7665
24040SOL    HW174658   3.979   8.462   1.134 -0.4126 -0.0172 -0.1370
24040SOL    HW274659   4.099   8.373   1.113  0.7879  1.8502 -1.3107
24041SOL     OW74660   5.901   2.746   1.794  0.2223  0.0246 -0.1947
24041SOL    HW174661   5.899   2.836   1.761 -0.1211  0.4781  1.0222
24041SOL    HW274662   5.956   2.751   1.872  2.1591 -1.2952 -1.4472
24042SOL     OW74663  10.115   2.089   3.661 -0.1671 -0.2921 -0.3104
24042SOL    HW174664  10.157   2.175   3.655  0.1001 -0.3507  0.6575
24042SOL    HW274665  10.044   2.093   3.596  0.3129  0.3842 -0.8026
24043SOL     OW74666   0.150   8.648   5.990  0.6060  1.1403  0.7595
24043SOL    HW174667   0.219   8.637   6.056  1.5459  0.4691 -0.3135
24043SOL    HW274668   0.163   8.737   5.957  0.7525  1.1296  0.7878
24044SOL     OW74669   4.224   7.331   6.660 -0.1443  0.6745  0.3313
24044SOL    HW174670   4.280   7.409   6.671 -0.6037  0.8687  1.3099
24044SOL    HW274671   4.237   7.306   6.569  0.6089  1.4439  0.2144
24045SOL     OW74672   0.391   7.310   7.116  0.5079  0.0946  0.6635
24045SOL    HW174673   0.432   7.396   7.107  0.3260  0.2365  1.1732
24045SOL    HW274674   0.458   7.248   7.086  0.8395  0.3732  0.8281
24046SOL     OW74675   3.411   7.610   9.234  0.5143 -0.1531  0.0163
24046SOL    HW174676   3.502   7.592   9.211  0.3887  1.1220 -1.5671
24046SOL    HW274677   3.395   7.699   9.202 -1.1501 -0.2017  0.6669
24047SOL     OW74678   4.993   5.959   4.933 -0.0379 -0.2454  0.6467
24047SOL    HW174679   5.038   5.876   4.921 -1.1329 -0.5946 -1.2224
24047SOL    HW274680   4.982   5.994   4.844 -0.8218  1.2280  1.2958
24048SOL     OW74681   4.472   7.845   7.533  0.1385  0.2898  0.0752
24048SOL    HW174682   4.381   7.874   7.542  0.4308  1.2838 -0.1179
24048SOL    HW274683   4.523   7.926   7.530  1.5115 -0.2479  4.7914
24049SOL     OW74684   2.486   4.245   9.366 -0.6615 -0.4527 -0.0085
24049SOL    HW174685   2.418   4.179   9.379  0.0338 -0.9857  0.9702
24049SOL    HW274686   2.529   4.220   9.284 -1.1407 -0.5465 -0.2340
24050SOL     OW74687   8.647   4.130  10.064 -0.2857  0.3052  0.3071
24050SOL    HW174688   8.728   4.172  10.095 -0.8233  1.3733  0.3007
24050SOL    HW274689   8.676   4.046  10.027  0.5484 -0.2931  2.2720
24051SOL     OW74690   3.267   8.640   3.308 -0.0620  0.2575 -0.2893
24051SOL    HW174691   3.190   8.585   3.326 -0.6651  1.4595  0.9084
24051SOL    HW274692   3.326   8.622   3.381  0.6532 -0.3952 -1.0221
24052SOL     OW74693   3.210   5.223   8.812  0.2860  0.4098 -0.3177
24052SOL    HW174694   3.242   5.186   8.730  0.4407  0.8720 -0.4684
24052SOL    HW274695   3.211   5.150   8.874  2.9719  0.7213  0.0632
24053SOL     OW74696   2.441   0.497   4.087 -0.5489  0.4292 -0.3308
24053SOL    HW174697   2.459   0.579   4.040 -0.4546  0.4536 -0.2528
24053SOL    HW274698   2.399   0.525   4.169  1.0743  0.5178  0.4985
24054SOL     OW74699   1.306   4.188   6.921 -0.0694  0.2827  0.2414
24054SOL    HW174700   1.248   4.251   6.963  1.3067  0.5780  1.7336
24054SOL    HW274701   1.377   4.241   6.884  0.3886 -0.2686  0.3198
24055SOL     OW74702   9.888   8.894   1.037  0.0007  0.1643 -0.3759
24055SOL    HW174703   9.918   8.962   0.976  1.4923 -0.0027  0.1489
24055SOL    HW274704   9.963   8.880   1.095 -0.5988 -1.3233  0.0515
24056SOL     OW74705   7.263   8.981   9.537 -0.1842 -0.3148 -0.1917
24056SOL    HW174706   7.351   9.019   9.547 -0.1359 -0.0732 -1.4304
24056SOL    HW274707   7.279   8.889   9.517 -0.2013 -0.2685 -0.4302
24057SOL     OW74708   4.857   5.989   0.064 -0.1741  0.0791 -0.1024
24057SOL    HW174709   4.826   6.078   0.081  0.3423  0.7994 -2.7256
24057SOL    HW274710   4.951   5.994   0.079 -0.3706 -0.4907  1.4480
24058SOL     OW74711   4.863   3.328   3.199 -0.6657 -0.2729  0.0141
24058SOL    HW174712   4.825   3.378   3.271 -0.9345 -3.9069  2.5230
24058SOL    HW274713   4.788   3.297   3.148 -0.6174 -0.0724 -0.1801
24059SOL     OW74714   4.809   2.368   3.081  0.2185  0.2635 -0.6684
24059SOL    HW174715   4.876   2.353   3.015  0.0932  0.3314 -0.8101
24059SOL    HW274716   4.837   2.447   3.127  0.4996  0.0058 -0.3962
24060SOL     OW74717   6.165   2.418   3.035 -0.2636  0.3709 -0.4742
24060SOL    HW174718   6.231   2.403   3.102 -1.0397  1.7279  0.6059
24060SOL    HW274719   6.171   2.341   2.978  0.6493 -0.6116  0.9342
24061SOL     OW74720   5.561   2.782   6.059  0.0670  0.5308 -0.1354
24061SOL    HW174721   5.516   2.720   6.116 -1.4767  1.7273 -0.0225
24061SOL    HW274722   5.499   2.800   5.989  0.1895  2.5325  0.2433
24062SOL     OW74723   1.909   9.364   5.836  0.1601  0.4594  0.4672
24062SOL    HW174724   1.835   9.308   5.812  0.4118  0.5452 -0.5255
24062SOL    HW274725   1.929   9.339   5.926  0.7122 -1.5506 -0.1831
24063SOL     OW74726   8.754   1.637   1.518 -0.4133  0.1330 -0.9864
24063SOL    HW174727   8.660   1.651   1.511 -0.1659  1.1658 -2.4058
24063SOL    HW274728   8.791   1.725   1.521  0.6204 -0.2573 -2.1092
24064SOL     OW74729   4.640   9.099   4.832 -0.1871  0.7274 -0.0835
24064SOL    HW174730   4.728   9.062   4.828 -1.2294 -1.8781  0.1812
24064SOL    HW274731   4.625   9.134   4.744  0.5105 -0.1941 -0.5763
24065SOL     OW74732   6.029   1.993   6.134 -0.7656 -0.5003  0.2523
24065SOL    HW174733   6.070   1.930   6.075 -2.6576 -1.1402 -0.4280
24065SOL    HW274734   6.051   2.078   6.097  0.2214 -0.8218  0.0883
24066SOL     OW74735   3.108   0.667   1.052 -0.0796 -0.2845  0.2366
24066SOL    HW174736   3.197   0.665   1.016 -0.3406 -3.9188 -0.4445
24066SOL    HW274737   3.117   0.628   1.139 -1.1671 -1.7648 -0.3015
24067SOL     OW74738   7.371   1.073   7.435 -0.3917 -0.2647  0.2011
24067SOL    HW174739   7.300   1.082   7.371  1.6872  3.3354 -1.7806
24067SOL    HW274740   7.416   0.992   7.409 -1.6376 -0.6936 -0.6998
24068SOL     OW74741   9.464   7.997   5.033 -0.3301  0.0594 -0.2309
24068SOL    HW174742   9.551   7.974   5.068 -0.0044  2.1692  0.4151
24068SOL    HW274743   9.481   8.070   4.974 -1.4225 -0.8746 -1.7171
24069SOL     OW74744   0.876   6.244   4.897  0.3773 -0.0426  0.3452
24069SOL    HW174745   0.798   6.299   4.902  0.1052 -0.5205  1.4753
24069SOL    HW274746   0.909   6.257   4.808  0.0570  1.6010  0.4526
24070SOL     OW74747   2.751   1.291  10.150 -0.2386 -0.2429  0.8834
24070SOL    HW174748   2.753   1.372  10.099  0.5682 -1.1775 -0.5982
24070SOL    HW274749   2.786   1.224  10.091  1.0789 -1.2887  2.7950
24071SOL     OW74750   7.519   9.085   1.645 -0.3957 -0.0142  0.3739
24071SOL    HW174751   7.586   9.153   1.644 -0.1227 -0.2623  1.2521
24071SOL    HW274752   7.454   9.114   1.580  0.9394 -0.1611 -1.0590
24072SOL     OW74753   5.175   7.712   4.773 -0.2454 -0.5718 -0.0842
24072SOL    HW174754   5.231   7.712   4.850  0.3079  1.9572 -0.4204
24072SOL    HW274755   5.086   7.724   4.808 -0.1139 -0.5197  0.2374
24073SOL     OW74756   2.101   5.139   2.024 -0.4979  0.1933 -0.7105
24073SOL    HW174757   2.082   5.205   2.091 -1.5151 -1.2822  0.5059
24073SOL    HW274758   2.192   5.113   2.041  0.0204  1.4955 -1.4106
24074SOL     OW74759   6.896   5.831   9.997  0.1224  0.0394 -0.0894
24074SOL    HW174760   6.910   5.867  10.084  1.7396 -1.1294  0.1609
24074SOL    HW274761   6.813   5.783  10.004 -1.0486  2.0209  0.0869
24075SOL     OW74762   1.049   8.492   6.992 -0.6606 -0.4390  0.2930
24075SOL    HW174763   1.036   8.399   7.012  0.9109 -0.4570  1.3103
24075SOL    HW274764   1.134   8.513   7.030 -0.3085  1.0440 -1.2673
24076SOL     OW74765   8.108   8.715  10.060 -0.6169  0.2482  0.0273
24076SOL    HW174766   8.140   8.705   9.970 -1.6820 -0.7712 -0.2522
24076SOL    HW274767   8.059   8.797  10.059  0.1734  0.7256 -0.0779
24077SOL     OW74768   2.987   6.217   1.683  0.7574 -0.3399 -0.4095
24077SOL    HW174769   2.895   6.199   1.665  0.2766  1.7174 -0.0983
24077SOL    HW274770   3.034   6.147   1.638 -0.9136 -0.8595 -1.3811
24078SOL     OW74771  10.203   9.037   0.060  0.1897 -0.7248 -0.2616
24078SOL    HW174772  10.234   9.056  -0.028  0.7721 -1.1952 -0.1554
24078SOL    HW274773  10.262   8.970   0.093  0.5023  0.0559  0.7975
24079SOL     OW74774   0.040   8.425   7.708 -0.6425  0.2067 -0.4513
24079SOL    HW174775   0.086   8.416   7.792 -0.2786  0.3284 -0.6369
24079SOL    HW274776  -0.046   8.387   7.724 -0.2954 -0.5140 -0.2460
24080SOL     OW74777   4.334   7.252   8.880 -0.1619 -0.1283  0.3145
24080SOL    HW174778   4.293   7.333   8.850  1.5470  0.7625  0.3267
24080SOL    HW274779   4.426   7.261   8.854 -0.1364 -2.4468 -0.4451
24081SOL     OW74780   7.175   8.905   3.151  0.2704  0.4140  0.2093
24081SOL    HW174781   7.230   8.953   3.213  1.2727  0.4070 -0.6530
24081SOL    HW274782   7.139   8.972   3.094  0.0088  0.3437  0.2935
24082SOL     OW74783   8.583  10.203   3.576 -0.4850 -0.1590 -0.2481
24082SOL    HW174784   8.599  10.129   3.518  0.7387  0.5542 -0.8412
24082SOL    HW274785   8.564  10.276   3.518  0.0560  0.3979  0.2643
24083SOL     OW74786   9.032  10.203   1.078  0.4048 -0.1246 -0.0795
24083SOL    HW174787   8.948  10.223   1.121  0.5480  0.6696 -0.1553
24083SOL    HW274788   9.008  10.149   1.003 -0.2368  1.5664 -1.1189
24084SOL     OW74789   8.591   8.090   9.091  0.1216 -0.0666  0.8464
24084SOL    HW174790   8.542   8.066   9.012  1.1000 -1.5227  0.6580
24084SOL    HW274791   8.571   8.021   9.153  1.5288 -0.4045  0.9377
24085SOL     OW74792   7.542   0.408   2.534  0.1488 -0.6340  0.6855
24085SOL    HW174793   7.600   0.398   2.609  1.0464 -1.3950 -0.0911
24085SOL    HW274794   7.523   0.502   2.531  1.4121 -0.3601  0.8984
24086SOL     OW74795   3.892   8.231   4.154  0.3701  0.5276  0.0370
24086SOL    HW174796   3.863   8.316   4.122 -1.2247 -0.4691 -1.2585
24086SOL    HW274797   3.924   8.248   4.243  0.3040  2.4964 -0.3002
24087SOL     OW74798   9.798   0.007   9.945 -0.3884  0.4482 -0.4397
24087SOL    HW174799   9.822  -0.044   9.868 -0.3469  1.0340 -0.8206
24087SOL    HW274800   9.869   0.070   9.956 -1.1805  1.4503 -0.9099
24088SOL     OW74801   1.770   7.322   2.514  0.0217  0.2028  0.1158
24088SOL    HW174802   1.834   7.358   2.575 -0.6515  0.0150  0.9428
24088SOL    HW274803   1.811   7.243   2.479  0.6332  0.6109 -0.1022
24089SOL     OW74804   4.171   8.555   5.222 -0.2151  0.1590  0.2375
24089SOL    HW174805   4.086   8.550   5.266  0.0456 -0.0768  0.7162
24089SOL    HW274806   4.164   8.632   5.166  0.1786  1.7037  2.2652
24090SOL     OW74807   4.959   0.826   5.827 -0.2152  0.3632  0.7468
24090SOL    HW174808   5.012   0.808   5.749  1.6423 -1.4436  2.3427
24090SOL    HW274809   5.023   0.850   5.894 -1.5623 -0.3527  2.3133
24091SOL     OW74810   1.857   3.382   0.128 -0.4306  0.3391  0.3505
24091SOL    HW174811   1.835   3.436   0.204  1.8995 -0.5923  1.7122
24091SOL    HW274812   1.809   3.300   0.143 -0.5799  0.4355  0.4092
24092SOL     OW74813   2.821   8.662   5.097  0.2970 -0.3991  0.7025
24092SOL    HW174814   2.914   8.672   5.119  0.5156 -1.3336  0.2269
24092SOL    HW274815   2.821   8.644   5.003 -0.4236  0.4597  0.5384
24093SOL     OW74816   7.239   2.049   7.416 -1.0278  0.1895  0.3009
24093SOL    HW174817   7.228   2.058   7.510 -2.0805  1.8256  0.0591
24093SOL    HW274818   7.217   2.136   7.381  1.2726  0.1899 -1.2938
24094SOL     OW74819   6.370   6.264   9.383  0.3347  0.1433  0.0742
24094SOL    HW174820   6.386   6.185   9.331 -1.2087 -0.5216  0.5869
24094SOL    HW274821   6.345   6.330   9.319 -0.8220 -0.4685 -0.1187
24095SOL     OW74822   2.756   3.316   7.785  0.2976 -0.1830  0.1688
24095SOL    HW174823   2.683   3.325   7.723  0.5800 -1.6969 -0.3955
24095SOL    HW274824   2.714   3.294   7.868 -0.1440  2.6380  0.7626
24096SOL     OW74825   3.497   9.447   4.887  0.4670 -0.0817  0.0718
24096SOL    HW174826   3.573   9.462   4.944  0.1630 -0.0977  0.4848
24096SOL    HW274827   3.468   9.358   4.909  0.2174 -0.0070  0.0498
24097SOL     OW74828   3.800   6.807   8.549 -0.0666 -1.1677 -0.1579
24097SOL    HW174829   3.745   6.885   8.535  0.3082 -0.6228  1.3581
24097SOL    HW274830   3.745   6.734   8.520 -1.2828 -0.5472  0.5485
24098SOL     OW74831   9.427   7.539   6.379 -0.2730 -0.2772  0.0636
24098SOL    HW174832   9.446   7.458   6.426  0.4638 -1.4915 -2.2526
24098SOL    HW274833   9.334   7.533   6.359  0.1501 -1.4362 -1.6699
24099SOL     OW74834   7.610  10.077   7.213 -0.0407 -0.8106  0.2501
24099SOL    HW174835   7.687  10.086   7.270 -0.3591  0.3144  0.5169
24099SOL    HW274836   7.556  10.010   7.256 -0.4856  0.3442  1.5261
24100SOL     OW74837   7.299   4.222   9.921  0.0569  0.1148  0.0909
24100SOL    HW174838   7.212   4.187   9.904  0.9277 -1.4867 -1.2703
24100SOL    HW274839   7.350   4.147   9.952  0.4817  1.4358  2.6635
24101SOL     OW74840   8.410   4.834   5.153 -0.5162  0.1054  0.5232
24101SOL    HW174841   8.399   4.922   5.187  0.1223  0.0359  0.9216
24101SOL    HW274842   8.474   4.793   5.212  0.9488  0.1377 -1.0060
24102SOL     OW74843   4.193   7.249   0.016  0.0490 -0.0830  0.9991
24102SOL    HW174844   4.194   7.278  -0.075  2.6200 -1.2272  0.6095
24102SOL    HW274845   4.165   7.158   0.012 -1.0998  0.2369  1.5066
24103SOL     OW74846   9.843   0.537   7.930  0.4055  0.1665  0.0803
24103SOL    HW174847   9.928   0.494   7.935  0.4911  0.0924 -1.5463
24103SOL    HW274848   9.797   0.491   7.859  0.0245  1.8850 -0.8345
24104SOL     OW74849   2.262   3.752   4.042  0.2893  0.2732 -0.3422
24104SOL    HW174850   2.282   3.827   4.097 -1.0565  0.2781  0.1540
24104SOL    HW274851   2.208   3.788   3.971  1.0599  0.0682 -1.0412
24105SOL     OW74852   2.335   3.728   8.036  0.2317 -0.3147 -0.3498
24105SOL    HW174853   2.391   3.668   7.987  1.5205 -0.5621  1.3806
24105SOL    HW274854   2.383   3.812   8.035  1.0317 -0.7051  1.7271
24106SOL     OW74855   4.454   8.154   4.537  0.3781  0.3276 -0.3695
24106SOL    HW174856   4.490   8.164   4.449  0.7302 -1.3737 -0.4378
24106SOL    HW274857   4.527   8.174   4.595  0.2373  1.1356 -0.4753
24107SOL     OW74858   9.928   1.282   3.202 -0.8290  0.2421 -0.4578
24107SOL    HW174859   9.955   1.368   3.171 -0.6819  0.2668 -0.2636
24107SOL    HW274860   9.950   1.282   3.295 -0.1580 -0.2640 -0.6100
24108SOL     OW74861   9.181   2.507   0.746 -0.5849 -0.0412 -0.1870
24108SOL    HW174862   9.249   2.522   0.679 -1.2377 -0.1152 -0.8741
24108SOL    HW274863   9.207   2.424   0.786  0.4930  0.6150  0.5037
24109SOL     OW74864   3.120   1.395   4.527  0.2108  0.3806  0.1040
24109SOL    HW174865   3.122   1.426   4.618  0.5718  0.2088  0.1554
24109SOL    HW274866   3.039   1.343   4.521  1.0260 -1.0111  0.7922
24110SOL     OW74867   0.006   1.771   1.342 -0.3187 -0.0648  0.1753
24110SOL    HW174868  -0.004   1.845   1.402 -1.4910  1.8170 -2.2525
24110SOL    HW274869   0.076   1.798   1.283 -1.3134 -0.5156 -1.2406
24111SOL     OW74870   5.709   7.407   3.491 -0.6168  0.1889  0.1968
24111SOL    HW174871   5.743   7.467   3.558 -1.1663  1.7060 -0.8656
24111SOL    HW274872   5.780   7.401   3.427  0.0484 -1.5375  1.0416
24112SOL     OW74873   5.164   8.869   5.474 -0.1542  0.3726  0.0023
24112SOL    HW174874   5.095   8.861   5.540 -0.1887 -0.6295 -0.1434
24112SOL    HW274875   5.134   8.939   5.416 -0.2782  1.0346  0.8655
24113SOL     OW74876   5.111   8.034   9.489  0.6669  0.0019  0.0291
24113SOL    HW174877   5.037   8.086   9.458  0.1791 -2.6691 -3.5711
24113SOL    HW274878   5.071   7.958   9.531  1.3777  0.3794  1.4118
24114SOL     OW74879   9.802   3.519   5.452  0.0095  0.3047  0.5430
24114SOL    HW174880   9.865   3.563   5.396  0.2967 -0.5196  0.2049
24114SOL    HW274881   9.824   3.548   5.540  1.4229 -0.6156  0.5207
24115SOL     OW74882   9.492   3.936   0.127  0.3261  0.0436 -0.1124
24115SOL    HW174883   9.504   4.011   0.185 -2.5833 -0.6518  1.4846
24115SOL    HW274884   9.409   3.952   0.082  0.1096 -1.7603 -0.4281
24116SOL     OW74885   1.214   1.462   6.616 -0.0806 -0.1408  0.0881
24116SOL    HW174886   1.263   1.544   6.607  0.0760 -0.0845  1.3844
24116SOL    HW274887   1.270   1.396   6.576 -0.2722  0.4036 -1.1039
24117SOL     OW74888   2.008   7.306   3.029  0.0726 -0.7556 -0.7659
24117SOL    HW174889   2.038   7.220   2.998  3.3849  0.9545 -2.5082
24117SOL    HW274890   1.964   7.287   3.112  0.3033 -4.1883 -1.3451
24118SOL     OW74891   3.422  10.114   1.941 -0.3647 -0.1188  0.3542
24118SOL    HW174892   3.418  10.203   1.908 -1.0297 -0.9998 -2.0445
24118SOL    HW274893   3.514  10.101   1.966  0.2522  0.4516 -1.5522
24119SOL     OW74894   7.850   0.987   7.848  0.5067  0.2201 -0.7182
24119SOL    HW174895   7.886   1.075   7.834 -2.8014  1.6648 -0.5013
24119SOL    HW274896   7.815   0.989   7.937 -0.5003 -1.0066 -1.0764
24120SOL     OW74897   7.862   6.063   2.274 -0.1327  0.0811 -0.3259
24120SOL    HW174898   7.828   6.147   2.244  0.6673  0.3432 -0.5217
24120SOL    HW274899   7.933   6.086   2.334 -2.1079 -0.4399  2.2763
24121SOL     OW74900   8.161   2.794   9.344  0.3592 -0.1333 -0.1924
24121SOL    HW174901   8.132   2.884   9.356  1.9091 -0.0627  3.9627
24121SOL    HW274902   8.255   2.801   9.328  0.3110 -0.9728 -0.8649
24122SOL     OW74903   8.746   8.207   1.151  0.1814  0.4681 -0.1456
24122SOL    HW174904   8.707   8.120   1.163 -0.2899  0.4735 -1.5717
24122SOL    HW274905   8.780   8.230   1.238  0.4168 -1.1889  0.2253
24123SOL     OW74906   1.149   3.874   4.396  0.3294  0.0512  0.5503
24123SOL    HW174907   1.168   3.871   4.303 -0.4153  0.3783  0.3806
24123SOL    HW274908   1.139   3.967   4.415 -1.0249 -0.1007  0.6362
24124SOL     OW74909   2.385   2.138   5.866 -0.4533 -0.0902  0.2064
24124SOL    HW174910   2.423   2.184   5.792 -0.1112 -3.1489 -1.6133
24124SOL    HW274911   2.456   2.133   5.930  0.6013 -1.0586 -0.9933
24125SOL     OW74912   6.867   4.816   9.162  0.0885  0.9847  0.9473
24125SOL    HW174913   6.775   4.839   9.167 -0.8546 -2.0278 -1.2504
24125SOL    HW274914   6.887   4.814   9.069  1.3500 -1.9518  1.2096
24126SOL     OW74915   5.057   0.276   8.986 -0.1438 -0.1060 -0.0843
24126SOL    HW174916   5.125   0.209   8.976  1.1564  1.3507 -1.2481
24126SOL    HW274917   5.003   0.245   9.059  3.0590 -0.2015  2.3252
24127SOL     OW74918   8.133   8.771   6.658 -0.4675  0.2822 -0.1885
24127SOL    HW174919   8.118   8.826   6.736  0.9837  0.2059  0.1584
24127SOL    HW274920   8.208   8.716   6.682 -0.3124 -0.0715 -1.4690
24128SOL     OW74921   9.712   9.361   3.038 -0.6456  0.4961  0.6527
24128SOL    HW174922   9.718   9.456   3.045 -0.4109  0.4388  1.2829
24128SOL    HW274923   9.630   9.346   2.992 -0.2047  1.0302 -0.3242
24129SOL     OW74924   7.061   7.294   6.493 -0.3832  0.4355 -0.5371
24129SOL    HW174925   7.055   7.367   6.431 -0.4269  0.8174 -0.0836
24129SOL    HW274926   7.124   7.324   6.558 -0.4527  0.0904 -0.3163
24130SOL     OW74927   8.845   0.261   8.141 -0.3118  0.0313  0.2089
24130SOL    HW174928   8.853   0.204   8.064  0.7910  0.2877  0.1255
24130SOL    HW274929   8.930   0.304   8.148 -0.2951 -0.2201  1.7577
24131SOL     OW74930   0.475   6.249   7.166 -0.2002 -0.8391 -0.3409
24131SOL    HW174931   0.444   6.280   7.081 -0.7638  1.2550  0.5973
24131SOL    HW274932   0.533   6.176   7.145 -0.4414 -0.4491 -2.5133
24132SOL     OW74933   3.145   1.782   7.522  0.3545  0.1346 -0.2392
24132SOL    HW174934   3.225   1.763   7.473 -0.3137  1.3235 -1.8413
24132SOL    HW274935   3.115   1.866   7.487 -1.4552 -0.1596  0.5474
24133SOL     OW74936   6.417   8.740   4.031 -0.5952  0.5481  0.1541
24133SOL    HW174937   6.412   8.700   4.117 -1.4967 -1.4101 -0.7797
24133SOL    HW274938   6.465   8.677   3.977 -1.6815  0.8873 -1.2430
24134SOL     OW74939   9.867   6.982   1.752  0.1955 -0.4652 -0.2977
24134SOL    HW174940   9.954   6.955   1.781 -0.4812 -2.8754 -0.4242
24134SOL    HW274941   9.821   7.005   1.832  0.8823  0.6725 -0.2151
24135SOL     OW74942   0.951   3.853   0.829 -0.3307 -0.3861  0.1956
24135SOL    HW174943   0.983   3.817   0.746 -1.5597 -0.1382 -0.4013
24135SOL    HW274944   0.868   3.807   0.845 -0.2161 -0.2635  1.1676
24136SOL     OW74945   4.792   1.036   1.426  0.3175 -0.3418 -0.1508
24136SOL    HW174946   4.752   0.958   1.466 -0.2937  0.6955  1.3066
24136SOL    HW274947   4.742   1.049   1.346 -0.1385 -0.9556  0.0202
24137SOL     OW74948   8.947   4.110   2.605 -0.1356  0.3884 -0.1453
24137SOL    HW174949   8.922   4.036   2.549 -1.4561  0.7893 -0.0965
24137SOL    HW274950   8.905   4.090   2.689  1.2804  0.1291  0.5107
24138SOL     OW74951   6.239   9.218   9.340 -0.1597  0.5011  0.0870
24138SOL    HW174952   6.286   9.301   9.344  1.0468 -0.1565 -0.3781
24138SOL    HW274953   6.147   9.243   9.352  0.1051  1.9826 -0.7963
24139SOL     OW74954   8.927   4.084   6.925  0.0293 -0.1527 -0.5372
24139SOL    HW174955   8.845   4.085   6.974  1.8663  1.2616  2.6618
24139SOL    HW274956   8.976   4.010   6.962  0.7656 -0.1113 -1.4214
24140SOL     OW74957   1.825   4.372  10.032 -0.2950  0.1847  0.6837
24140SOL    HW174958   1.746   4.357   9.980 -1.2751  0.9460  1.9078
24140SOL    HW274959   1.828   4.296  10.091  0.1359 -0.0581  0.3521
24141SOL     OW74960   1.101   1.663  10.196 -0.0612 -0.4041  0.1687
24141SOL    HW174961   1.052   1.739  10.226  0.0908 -0.9412  1.8327
24141SOL    HW274962   1.166   1.699  10.135 -0.3919  0.7172  0.4649
24142SOL     OW74963   6.571   9.862   7.103  0.5899 -0.4906  0.2332
24142SOL    HW174964   6.526   9.778   7.100 -1.4078  0.5899 -1.6242
24142SOL    HW274965   6.570   9.892   7.012 -1.7437  3.0787  1.3436
24143SOL     OW74966   0.743   2.046   8.016 -0.2019 -0.1634  0.1957
24143SOL    HW174967   0.653   2.064   7.991 -0.2546  0.3424  0.7540
24143SOL    HW274968   0.754   2.087   8.101  0.8477  0.6527 -0.3173
24144SOL     OW74969   4.698   0.566   7.014 -0.5863 -0.3975  0.1699
24144SOL    HW174970   4.678   0.489   7.068  1.5809 -1.3219 -0.3070
24144SOL    HW274971   4.671   0.640   7.068  1.6728 -1.2977  2.6208
24145SOL     OW74972   0.835   3.031   8.457  0.9537  0.0881 -0.3251
24145SOL    HW174973   0.802   3.008   8.544 -0.5328  3.3849  0.0534
24145SOL    HW274974   0.929   3.012   8.462  0.1193 -4.4366  0.3218
24146SOL     OW74975   5.849   1.493   5.245  0.6880  0.5622  0.2904
24146SOL    HW174976   5.870   1.413   5.197 -0.5604  1.0370 -1.0729
24146SOL    HW274977   5.834   1.558   5.178  0.5564  1.6708  1.3727
24147SOL     OW74978   5.149   3.465   9.420  0.1427 -0.4732 -0.2630
24147SOL    HW174979   5.211   3.392   9.421  0.6163 -0.0772 -0.3628
24147SOL    HW274980   5.111   3.465   9.507  1.0398 -0.0824  0.1321
24148SOL     OW74981   2.044   8.569   8.552 -0.0993 -0.0437 -0.4974
24148SOL    HW174982   2.008   8.657   8.544 -1.3912 -0.5984 -0.8404
24148SOL    HW274983   2.137   8.583   8.573 -0.0196  1.3885 -1.7422
24149SOL     OW74984   2.197   7.495   5.975 -0.6016  0.6109 -0.1003
24149SOL    HW174985   2.246   7.474   5.895  0.1251 -1.3998  0.8637
24149SOL    HW274986   2.110   7.521   5.943 -0.2101  0.1791 -1.5626
24150SOL     OW74987   7.577   8.624   5.122 -0.6136 -0.2098 -0.8585
24150SOL    HW174988   7.601   8.567   5.195 -0.4627  0.4410 -0.3944
24150SOL    HW274989   7.505   8.678   5.155 -0.1240  0.5238 -0.9763
24151SOL     OW74990   9.804   9.199   5.174  0.2861 -0.1347  0.1277
24151SOL    HW174991   9.724   9.186   5.122 -0.2337  0.8756  0.6536
24151SOL    HW274992   9.779   9.175   5.263  0.6524 -0.0758  0.2480
24152SOL     OW74993   6.350   0.764   9.492  0.5159 -0.7871 -0.0709
24152SOL    HW174994   6.288   0.697   9.523  0.4497 -0.7319 -0.0825
24152SOL    HW274995   6.431   0.716   9.476 -0.1155 -1.2580 -2.0393
24153SOL     OW74996   6.863   8.498   0.305 -0.2729 -0.4076  0.5034
24153SOL    HW174997   6.835   8.456   0.387 -1.4756 -1.0217 -0.2157
24153SOL    HW274998   6.842   8.590   0.318 -0.4459 -0.4974  0.8993
24154SOL     OW74999   2.266   1.509   1.846  0.5156  0.8244  0.2039
24154SOL    HW175000   2.173   1.519   1.826  0.6001  1.0981 -0.0461
24154SOL    HW275001   2.292   1.593   1.883  0.0102 -0.1235  2.8570
24155SOL     OW75002   8.621   2.350   7.593  0.2698 -0.0366  0.5322
24155SOL    HW175003   8.563   2.344   7.517  0.6600 -0.4871  0.2671
24155SOL    HW275004   8.572   2.403   7.656  0.0614  0.5641 -0.1321
24156SOL     OW75005   2.583   5.482   0.137  0.4774 -0.5638  0.0798
24156SOL    HW175006   2.550   5.439   0.059  0.2176  0.8172 -0.5913
24156SOL    HW275007   2.508   5.533   0.170  0.4310 -1.5184  1.5123
24157SOL     OW75008   4.897   8.875   8.953  0.3237  0.1411  0.0266
24157SOL    HW175009   4.967   8.880   9.017  0.2008  1.6510  0.0569
24157SOL    HW275010   4.942   8.873   8.868  0.4114  0.7529  0.0597
24158SOL     OW75011   0.785   6.913   2.434  0.4277  0.3295 -0.8763
24158SOL    HW175012   0.815   6.829   2.400  0.9987 -0.7143  2.0928
24158SOL    HW275013   0.700   6.894   2.473  1.3881  0.7078  1.4716
24159SOL     OW75014   0.098   0.672   9.828 -0.5558  0.0221  0.1122
24159SOL    HW175015   0.119   0.730   9.755  1.0261 -1.3751 -0.5649
24159SOL    HW275016   0.009   0.641   9.809 -0.8092  1.0165 -0.3209
24160SOL     OW75017   9.872   9.194   8.457 -0.1568  0.1026  0.0243
24160SOL    HW175018   9.867   9.289   8.467 -1.3240 -0.0000  0.5585
24160SOL    HW275019   9.882   9.161   8.547  1.5100 -0.2115 -0.2747
24161SOL     OW75020   4.856   9.941   1.933  0.1050  0.2587  0.0422
24161SOL    HW175021   4.943   9.973   1.908  0.0125  0.0866 -0.5192
24161SOL    HW275022   4.796  10.007   1.898 -0.0478 -0.1756 -0.5202
24162SOL     OW75023   3.460   2.932   2.559 -0.2463  0.2831 -0.1811
24162SOL    HW175024   3.453   2.889   2.474 -2.7185 -1.8838  1.0426
24162SOL    HW275025   3.391   2.999   2.558 -0.5132  0.0182  0.2310
24163SOL     OW75026   3.144   9.692   8.098 -0.8749  0.6270 -0.2964
24163SOL    HW175027   3.219   9.728   8.051 -0.8897  1.3099  0.2035
24163SOL    HW275028   3.179   9.664   8.183 -0.9215 -0.2658 -0.5636
24164SOL     OW75029   6.469   4.220   9.649 -0.2928 -0.5017  0.4048
24164SOL    HW175030   6.431   4.234   9.562  0.7143 -0.0767  0.0271
24164SOL    HW275031   6.543   4.281   9.653 -2.5935  2.2974  3.0150
24165SOL     OW75032   3.121   4.690   5.281  0.3490 -0.3189  0.2138
24165SOL    HW175033   3.050   4.672   5.342  0.8316 -2.3779  0.2063
24165SOL    HW275034   3.122   4.785   5.273 -2.4790 -0.2331  0.1197
24166SOL     OW75035   4.359   8.632   3.311 -0.4802 -0.3659  0.3317
24166SOL    HW175036   4.414   8.573   3.363  0.4138  0.6787  0.5880
24166SOL    HW275037   4.358   8.714   3.360 -3.6094 -0.8312  1.1394
24167SOL     OW75038   9.554   7.763   0.621  0.0443  0.5633 -0.5640
24167SOL    HW175039   9.632   7.818   0.626 -0.4478  1.0990  2.3165
24167SOL    HW275040   9.481   7.826   0.615 -0.3575  0.1847  0.2008
24168SOL     OW75041   9.245   6.208   3.479  0.1205 -0.4390  0.3643
24168SOL    HW175042   9.184   6.143   3.444  0.7255 -0.0167 -1.4932
24168SOL    HW275043   9.317   6.210   3.417  1.2622  0.2771  1.6711
24169SOL     OW75044   8.529   2.975   5.832  0.4681  0.1161 -0.1367
24169SOL    HW175045   8.467   3.016   5.893 -0.7856 -0.9602 -0.6602
24169SOL    HW275046   8.557   2.895   5.877 -0.7954 -0.9058 -1.1270
24170SOL     OW75047   3.247   4.536   4.341 -0.5096  0.2452 -0.0251
24170SOL    HW175048   3.235   4.441   4.343 -2.8715  0.5070  0.1546
24170SOL    HW275049   3.231   4.560   4.250 -0.3829  0.5188  0.0266
24171SOL     OW75050   5.933   2.317   8.188 -0.3729  0.4002  0.2722
24171SOL    HW175051   5.972   2.300   8.274 -1.5660  1.5647  1.0611
24171SOL    HW275052   5.869   2.386   8.204 -0.8109  0.4289 -1.5116
24172SOL     OW75053   7.484   4.691   9.829  0.2074  0.5711  0.3113
24172SOL    HW175054   7.534   4.772   9.816 -0.5597  1.1437  0.8588
24172SOL    HW275055   7.448   4.672   9.742  1.9276 -0.2353 -0.2472
24173SOL     OW75056   9.275   4.519   1.929  0.3874 -0.2767  0.1317
24173SOL    HW175057   9.243   4.604   1.899 -1.7961 -0.9147  0.5676
24173SOL    HW275058   9.231   4.456   1.872  0.4391 -1.2172  1.1387
24174SOL     OW75059   7.410   6.678   6.458 -0.0244  0.0295  0.3827
24174SOL    HW175060   7.315   6.692   6.458 -0.0029  0.1815 -1.3253
24174SOL    HW275061   7.420   6.583   6.471 -0.5354 -0.6635 -3.8280
24175SOL     OW75062   7.693   2.149   8.874 -0.1089 -0.1382  0.1371
24175SOL    HW175063   7.745   2.191   8.942  0.8062  0.7462 -1.0933
24175SOL    HW275064   7.721   2.191   8.793 -1.9951 -0.3734 -0.6658
24176SOL     OW75065   7.468   3.263   4.553 -0.0033 -0.1530 -0.2945
24176SOL    HW175066   7.516   3.254   4.635 -0.2079 -1.6078 -0.3172
24176SOL    HW275067   7.534   3.283   4.488  0.1151  1.3926  0.2776
24177SOL     OW75068   6.936   4.745   4.814  0.0838 -0.4657  0.1277
24177SOL    HW175069   6.843   4.721   4.822 -0.2436  0.0085 -1.9105
24177SOL    HW275070   6.954   4.736   4.720  2.4073 -1.6447  0.6743
24178SOL     OW75071   3.585   6.293   4.051  0.0180  0.5461  0.1244
24178SOL    HW175072   3.600   6.386   4.070  0.4876  0.9206 -1.8848
24178SOL    HW275073   3.661   6.248   4.089  2.2995  1.5559 -3.0178
24179SOL     OW75074   7.444   8.091   4.169 -0.5709 -0.3193  0.0134
24179SOL    HW175075   7.373   8.143   4.130 -0.9842  0.3055  1.5647
24179SOL    HW275076   7.417   8.078   4.260  2.8079  2.8043  1.6289
24180SOL     OW75077   4.168  10.118   4.709  0.4472 -0.0479 -0.0645
24180SOL    HW175078   4.139  10.043   4.656 -2.7071  0.5589  0.7176
24180SOL    HW275079   4.098  10.131   4.772  1.6058  2.7331  0.7076
24181SOL     OW75080   0.236   1.050   3.325  0.6112  0.0502  0.0633
24181SOL    HW175081   0.150   1.090   3.311  0.5500  0.5615  1.7961
24181SOL    HW275082   0.280   1.058   3.240 -0.7210  0.5790 -0.5958
24182SOL     OW75083   6.297   4.888   2.294  0.0037 -0.3563 -0.2547
24182SOL    HW175084   6.314   4.980   2.315  0.6528 -0.5373  0.0333
24182SOL    HW275085   6.209   4.887   2.258 -0.2974  0.2726  0.4612
24183SOL     OW75086   5.572   8.689   8.349 -0.0719  0.7123 -0.0490
24183SOL    HW175087   5.537   8.660   8.265  0.6933 -1.4294  0.3377
24183SOL    HW275088   5.571   8.611   8.404 -3.2297  2.6559  2.8893
24184SOL     OW75089   6.287   6.011   5.768 -0.3651 -0.1380 -0.1526
24184SOL    HW175090   6.201   5.990   5.805 -1.9800  0.6317 -3.3067
24184SOL    HW275091   6.317   5.929   5.729 -0.8161  0.1749 -1.1858
24185SOL     OW75092   8.215   2.342   3.812  0.3054 -0.2877  0.0684
24185SOL    HW175093   8.278   2.394   3.863 -0.0927 -0.0869  0.3528
24185SOL    HW275094   8.135   2.342   3.864  0.1191 -0.6940 -0.2143
24186SOL     OW75095   5.921   6.646   7.632  0.4736 -0.4229 -0.5708
24186SOL    HW175096   5.973   6.612   7.559 -0.5021 -2.8019 -0.1992
24186SOL    HW275097   5.863   6.711   7.593  2.9171  1.4600 -1.1743
24187SOL     OW75098   2.899   0.700   3.459 -0.2537  0.3290  0.2078
24187SOL    HW175099   2.954   0.777   3.473  1.2115 -0.8570  1.1323
24187SOL    HW275100   2.820   0.717   3.509 -0.2660  1.5573 -0.2108
24188SOL     OW75101   7.961   7.457   9.887 -0.1791 -0.4822 -0.1276
24188SOL    HW175102   7.915   7.380   9.920 -0.6334  0.3947  1.3393
24188SOL    HW275103   8.029   7.474   9.953  0.1563  0.1494 -0.6301
24189SOL     OW75104   5.807   4.898   6.722 -0.4248  0.0824 -1.0162
24189SOL    HW175105   5.810   4.819   6.776 -2.2000 -0.6906 -1.9862
24189SOL    HW275106   5.898   4.910   6.693 -0.1536 -1.7542 -1.0308
24190SOL     OW75107   8.519   3.099   6.991  0.3943  0.0840 -0.2718
24190SOL    HW175108   8.449   3.102   7.055 -0.5293 -1.3148 -1.1807
24190SOL    HW275109   8.594   3.063   7.039 -0.2553 -0.8362  0.0688
24191SOL     OW75110   3.062   1.317   8.463 -0.6453 -0.2776 -0.1924
24191SOL    HW175111   3.065   1.381   8.534  0.5336 -0.1075 -0.3985
24191SOL    HW275112   3.044   1.369   8.385  2.2411  0.0797 -0.6732
24192SOL     OW75113   7.061   8.237   0.554 -0.0500  0.0062  0.6142
24192SOL    HW175114   7.132   8.180   0.525  0.9022  0.8050  1.3809
24192SOL    HW275115   6.981   8.192   0.524  0.7980 -0.3780 -1.1355
24193SOL     OW75116   5.676   0.876   0.876  0.1197 -0.5285  0.6538
24193SOL    HW175117   5.733   0.830   0.815 -0.0636 -2.4383  1.8926
24193SOL    HW275118   5.621   0.808   0.914 -1.5067  0.9848  1.0932
24194SOL     OW75119   0.949   1.267   6.207 -0.0344  0.2513 -0.2215
24194SOL    HW175120   0.944   1.363   6.215 -3.2426 -0.0016  1.8598
24194SOL    HW275121   0.913   1.249   6.121 -1.4196  0.8173  0.2247
24195SOL     OW75122   1.421   4.272   8.450  0.0360 -0.3632 -0.7627
24195SOL    HW175123   1.460   4.332   8.514  0.8439 -1.0470 -0.6076
24195SOL    HW275124   1.336   4.311   8.430  0.6197  0.9149 -0.7862
24196SOL     OW75125   6.182   4.154   6.211  0.8734 -0.4903 -0.1253
24196SOL    HW175126   6.108   4.120   6.261  2.6132 -1.9826  1.5044
24196SOL    HW275127   6.147   4.231   6.166 -1.4198 -0.6446  1.3114
24197SOL     OW75128   3.072   8.196   0.886 -0.1375 -0.9630  0.3911
24197SOL    HW175129   3.110   8.169   0.969  0.9428  1.0422  0.5706
24197SOL    HW275130   3.089   8.290   0.881  0.8690 -1.2457 -2.6261
24198SOL     OW75131   7.699   0.647  10.128  0.3228 -0.0822  0.2490
24198SOL    HW175132   7.678   0.737  10.153 -1.0933 -0.1726 -0.5962
24198SOL    HW275133   7.671   0.595  10.203  1.2460  0.1854  0.7864
24199SOL     OW75134   2.904   8.361   1.242  0.0773 -0.1539  0.5439
24199SOL    HW175135   2.855   8.436   1.276  1.1379  0.6396  0.3465
24199SOL    HW275136   2.836   8.301   1.210 -0.7459  1.2744 -0.4548
24200SOL     OW75137   6.317   8.290   8.019 -0.5963 -0.0485 -0.2292
24200SOL    HW175138   6.294   8.346   8.093 -2.4262  1.6360 -2.0286
24200SOL    HW275139   6.352   8.349   7.953 -0.3296 -1.3334 -1.2651
24201SOL     OW75140   7.070   6.414   9.008  0.1832 -0.1125  0.3129
24201SOL    HW175141   7.070   6.318   9.001 -0.2910 -0.0949  0.0753
24201SOL    HW275142   6.988   6.441   8.968  2.3849  0.7515 -3.9106
24202SOL     OW75143   7.006   5.319   7.596 -0.3323 -0.1622 -0.3708
24202SOL    HW175144   7.015   5.265   7.674  0.2899 -0.5761 -0.7288
24202SOL    HW275145   6.913   5.316   7.575 -0.0265 -2.7604 -1.5592
24203SOL     OW75146   2.570   7.797   8.836  0.0790  0.0520  0.5214
24203SOL    HW175147   2.652   7.840   8.860 -0.6885  1.8376  0.0655
24203SOL    HW275148   2.592   7.743   8.761  0.6038  1.4859 -0.3875
24204SOL     OW75149   7.971   8.044   9.160 -0.4843 -0.2203 -0.0422
24204SOL    HW175150   8.034   7.982   9.198 -0.1035  0.0208 -0.2815
24204SOL    HW275151   7.922   7.992   9.096 -1.6423 -0.8245  1.2997
24205SOL     OW75152   4.675   6.432   0.004 -0.3937  0.1973 -0.5819
24205SOL    HW175153   4.670   6.491  -0.071 -1.0793  1.1147  0.1768
24205SOL    HW275154   4.585   6.423   0.034 -0.2627 -1.0071 -0.5006
24206SOL     OW75155   8.903   4.838   5.552 -0.4151 -0.9319 -0.6115
24206SOL    HW175156   8.913   4.925   5.592  0.7254 -1.2065 -0.2616
24206SOL    HW275157   8.876   4.782   5.624 -0.2734 -1.0388 -0.6413
24207SOL     OW75158   0.793   3.641   9.862 -0.4647 -0.1071  0.2074
24207SOL    HW175159   0.716   3.650   9.805  0.1925  2.4832 -0.3773
24207SOL    HW275160   0.837   3.562   9.832 -1.5817 -0.2458 -1.1021
24208SOL     OW75161   8.717   9.061   0.796  0.0418 -0.4379 -0.2532
24208SOL    HW175162   8.721   9.075   0.702 -1.9081 -1.5064 -0.5149
24208SOL    HW275163   8.803   9.089   0.828  1.2370 -1.3741 -2.5165
24209SOL     OW75164   1.086   9.371   2.001 -0.2399  0.3561 -0.1108
24209SOL    HW175165   1.080   9.315   1.924 -1.2356 -1.1726  1.0446
24209SOL    HW275166   1.137   9.447   1.972  2.3390 -1.7529 -1.3861
24210SOL     OW75167   3.181   1.395   4.834 -0.5142  0.0923 -0.5267
24210SOL    HW175168   3.131   1.475   4.848 -0.0685  0.2927 -0.0948
24210SOL    HW275169   3.260   1.405   4.887 -0.1421 -0.3475 -0.9857
24211SOL     OW75170   8.029   8.460   0.296  0.0709 -0.0729  0.1007
24211SOL    HW175171   8.025   8.502   0.210  1.4489  1.1186  0.5870
24211SOL    HW275172   7.952   8.403   0.299 -0.1772  0.1306 -1.7780
24212SOL     OW75173   5.130   3.063   1.233  0.4863  0.3425  0.1120
24212SOL    HW175174   5.034   3.059   1.229  0.1959  2.9674  2.7495
24212SOL    HW275175   5.156   3.107   1.152 -0.6275  0.5661 -0.1287
24213SOL     OW75176   1.928   5.175   2.956 -0.1501 -0.6953 -0.9587
24213SOL    HW175177   2.004   5.127   2.924 -0.0978 -1.5278  0.3784
24213SOL    HW275178   1.861   5.161   2.889 -0.1966 -2.7927 -0.5132
24214SOL     OW75179   0.393   1.487   0.760  0.2991  0.0081 -0.2245
24214SOL    HW175180   0.356   1.542   0.829 -0.5907  1.1998 -1.6101
24214SOL    HW275181   0.483   1.471   0.787 -0.2721 -0.2102  1.5968
24215SOL     OW75182   3.979   8.613   8.698  0.2808  0.1208  0.3979
24215SOL    HW175183   3.936   8.529   8.685  0.3882  0.5850 -3.5890
24215SOL    HW275184   4.073   8.593   8.701  0.2573  0.0097  0.3664
24216SOL     OW75185   4.710   7.517   8.153 -0.2884 -0.0324 -0.3079
24216SOL    HW175186   4.766   7.440   8.150 -1.0422 -0.5852 -0.5879
24216SOL    HW275187   4.764   7.588   8.118  0.9461 -0.0756  1.4905
24217SOL     OW75188   9.239   5.448   5.414 -0.5790 -0.0033  0.1610
24217SOL    HW175189   9.308   5.487   5.360 -0.5877  1.6366  1.2715
24217SOL    HW275190   9.283   5.422   5.495 -0.8975 -0.7917  0.0891
24218SOL     OW75191   3.559   8.893   4.147  0.4632  0.0734 -0.2269
24218SOL    HW175192   3.464   8.892   4.144  0.4738 -0.6722 -0.5375
24218SOL    HW275193   3.582   8.822   4.207  0.8228  0.1608 -0.2571
24219SOL     OW75194   8.894   6.120   8.784  0.3571  0.2750  0.0547
24219SOL    HW175195   8.914   6.212   8.765  1.8615  0.4364  2.1320
24219SOL    HW275196   8.814   6.102   8.736  1.8647  1.6874 -3.1117
24220SOL     OW75197   8.780   5.003   8.459 -0.8652 -0.8681  0.1106
24220SOL    HW175198   8.874   4.994   8.476 -0.8450 -0.0825  0.4343
24220SOL    HW275199   8.739   4.985   8.544 -0.8820  0.9590  0.5015
24221SOL     OW75200   6.794   3.879   0.615 -0.0658 -0.0146  0.4896
24221SOL    HW175201   6.715   3.851   0.661 -0.4978 -1.4535 -1.0863
24221SOL    HW275202   6.866   3.840   0.666 -0.4257  0.1047  1.0964
24222SOL     OW75203   1.462   1.818   5.444  0.0124  0.6382  0.2370
24222SOL    HW175204   1.390   1.784   5.392 -0.0745 -0.1594  0.8828
24222SOL    HW275205   1.541   1.788   5.398 -0.0641 -0.3602  0.7540
24223SOL     OW75206   2.951   9.225   5.945 -0.4459  0.0631 -0.3712
24223SOL    HW175207   2.954   9.167   5.869  1.2618 -0.1183 -0.1852
24223SOL    HW275208   2.967   9.312   5.910  0.3570 -0.0219 -0.2253
24224SOL     OW75209  10.031   9.687   2.664 -0.3890  0.1002  0.1828
24224SOL    HW175210   9.968   9.668   2.734  0.1430  0.8195  0.8725
24224SOL    HW275211  10.112   9.647   2.694 -0.1401  0.4804  0.0159
24225SOL     OW75212   5.916   1.386   7.067 -0.4857  0.5280 -0.0931
24225SOL    HW175213   5.920   1.454   7.000  0.6649 -1.9967 -2.6633
24225SOL    HW275214   5.995   1.335   7.055 -1.8232 -1.9175  1.1023
24226SOL     OW75215   8.890   3.931   8.680 -0.1997  0.1839  0.0153
24226SOL    HW175216   8.887   3.956   8.587 -1.1578  0.9917  0.2466
24226SOL    HW275217   8.800   3.906   8.701  0.5508 -2.6661  0.0436
24227SOL     OW75218   4.487   3.177   8.245  0.1079 -0.1644 -0.4211
24227SOL    HW175219   4.471   3.173   8.150  1.8501  2.0666 -0.8562
24227SOL    HW275220   4.419   3.236   8.278  1.5011  1.6853 -0.8078
24228SOL     OW75221   4.152   0.543   7.900 -0.5136 -0.1138 -0.7416
24228SOL    HW175222   4.177   0.479   7.966 -0.0933  0.5741 -0.2298
24228SOL    HW275223   4.223   0.539   7.835  0.3089  0.9168  0.0638
24229SOL     OW75224   4.379   4.328   6.728  0.3282  0.4369  0.1686
24229SOL    HW175225   4.338   4.292   6.649 -2.1913 -1.5726  2.3078
24229SOL    HW275226   4.460   4.279   6.738  0.6548  0.6966 -1.1503
24230SOL     OW75227   9.079   6.306   0.045  0.5773  0.3120 -0.2577
24230SOL    HW175228   8.992   6.327   0.078  1.2392 -0.6349  2.2426
24230SOL    HW275229   9.097   6.373  -0.020 -2.3025  0.0960 -1.3417
24231SOL     OW75230   0.341   9.545   7.900  0.5955 -0.3020 -0.1488
24231SOL    HW175231   0.278   9.474   7.888 -0.1632  0.4790 -0.9444
24231SOL    HW275232   0.400   9.537   7.825 -0.4044  0.7998 -1.0925
24232SOL     OW75233   4.645   6.770   7.475  0.4733 -0.3634 -0.7063
24232SOL    HW175234   4.563   6.789   7.520  0.8583 -2.1167  0.8370
24232SOL    HW275235   4.707   6.834   7.509  0.2106 -0.2809 -0.3824
24233SOL     OW75236   8.145   9.792   8.877 -0.1868  0.4175  0.6703
24233SOL    HW175237   8.096   9.843   8.941  0.2345  0.8387  0.6606
24233SOL    HW275238   8.236   9.795   8.908  0.1635  1.3430 -0.4030
24234SOL     OW75239   8.010   2.545   3.303 -0.3439 -0.2500  0.5482
24234SOL    HW175240   7.950   2.470   3.301 -0.1911 -0.3517 -1.0270
24234SOL    HW275241   8.096   2.506   3.319 -0.2009 -0.4702 -0.6989
24235SOL     OW75242  10.182   5.694   9.012  0.0806 -0.5348  0.1288
24235SOL    HW175243  10.187   5.664   8.921 -0.7175 -0.3599  0.0296
24235SOL    HW275244  10.093   5.672   9.040 -0.6574  2.0864 -0.0658
24236SOL     OW75245   7.468   7.742   1.311 -0.0943 -0.0363 -0.3715
24236SOL    HW175246   7.383   7.785   1.305 -0.2209 -0.3569 -0.9195
24236SOL    HW275247   7.530   7.814   1.325 -0.5786  0.0803  1.2079
24237SOL     OW75248   3.245   6.961   3.032 -0.3965 -0.0227 -0.3714
24237SOL    HW175249   3.292   6.881   3.053 -0.9059 -0.5607 -1.2668
24237SOL    HW275250   3.238   7.007   3.116  0.4769 -0.5950  0.0207
24238SOL     OW75251   0.846   1.342   2.394  0.1508 -0.8975 -0.2445
24238SOL    HW175252   0.932   1.308   2.416  1.1774  0.7214 -1.6782
24238SOL    HW275253   0.859   1.437   2.386 -1.9704 -0.5088  0.5466
24239SOL     OW75254   0.469   3.857   9.535 -0.9331 -0.0358 -0.0670
24239SOL    HW175255   0.467   3.930   9.596  0.4920  0.1544 -0.2167
24239SOL    HW275256   0.420   3.888   9.459 -0.2926  0.7970 -0.1525
24240SOL     OW75257   3.006   1.064   2.517 -0.4584 -0.2812 -0.3162
24240SOL    HW175258   3.065   1.059   2.592 -0.6097 -1.1158 -0.2528
24240SOL    HW275259   2.948   0.988   2.526 -1.3837  0.3827 -0.5118
24241SOL     OW75260  10.066   5.177   7.662  0.0888  0.0257 -0.3622
24241SOL    HW175261  10.117   5.105   7.698 -0.8945 -0.0511  0.9023
24241SOL    HW275262  10.103   5.255   7.702  0.2822  0.1082 -0.7031
24242SOL     OW75263   1.357   6.887   2.459  0.1761 -0.2868 -0.4686
24242SOL    HW175264   1.380   6.835   2.536  0.8374 -0.6039 -0.8690
24242SOL    HW275265   1.265   6.866   2.442 -0.0519 -0.0098  0.3895
24243SOL     OW75266   0.408   4.716   7.966  0.4931  0.7833  0.1461
24243SOL    HW175267   0.461   4.745   8.040  0.7494 -1.0576  0.7159
24243SOL    HW275268   0.467   4.722   7.891  0.8365  0.8249  0.4165
24244SOL     OW75269   1.630   1.391   5.471  0.2502  0.0257  0.0219
24244SOL    HW175270   1.567   1.333   5.513 -0.2864 -0.2421 -1.1264
24244SOL    HW275271   1.684   1.332   5.418 -1.3991  0.7356 -2.5140
24245SOL     OW75272   6.412   0.496  10.106 -0.8440 -0.0371  0.4873
24245SOL    HW175273   6.326   0.535  10.120 -1.8420 -1.3623 -1.6029
24245SOL    HW275274   6.400   0.404  10.130  0.1597 -0.1073  0.7410
24246SOL     OW75275   5.728   7.232   9.369  0.2810  0.0242 -0.6582
24246SOL    HW175276   5.817   7.268   9.376  0.5508 -0.4971 -1.3179
24246SOL    HW275277   5.678   7.278   9.437  1.3782 -0.6435  0.6157
24247SOL     OW75278   9.230   9.986   3.429 -0.1464  0.2358  0.2881
24247SOL    HW175279   9.218  10.012   3.338 -0.2800  2.0337  0.8058
24247SOL    HW275280   9.156   9.928   3.448 -0.5903  0.5513 -0.4958
24248SOL     OW75281   5.085   2.489   1.023  0.1430 -0.4983  0.2296
24248SOL    HW175282   5.031   2.550   1.072  1.0961 -0.5270  1.3335
24248SOL    HW275283   5.053   2.402   1.049 -1.1512 -0.4955 -1.2714
24249SOL     OW75284   5.621   7.389   3.912 -0.0799  0.2116 -0.0541
24249SOL    HW175285   5.624   7.329   3.838  3.8663 -0.5737  0.6117
24249SOL    HW275286   5.558   7.350   3.973 -1.3435 -0.5321 -1.8068
24250SOL     OW75287   1.607   7.805   4.463  0.8967 -0.3131 -0.1665
24250SOL    HW175288   1.527   7.834   4.421  0.8691 -0.3679 -0.1514
24250SOL    HW275289   1.596   7.828   4.556  1.5023  1.0132 -0.4068
24251SOL     OW75290   4.618  10.146   0.809  0.4355 -0.2347 -0.0314
24251SOL    HW175291   4.608  10.236   0.777  1.2543  0.0097  0.4101
24251SOL    HW275292   4.701  10.117   0.772  1.6407  0.2112  2.2553
24252SOL     OW75293   7.894   7.476   1.962 -0.8799  0.4048  0.4978
24252SOL    HW175294   7.840   7.411   2.007  0.3027  0.4482  2.0248
24252SOL    HW275295   7.856   7.483   1.874 -1.4058 -1.8839  0.5230
24253SOL     OW75296   2.289   2.055   4.588 -0.2391 -0.1956  0.1549
24253SOL    HW175297   2.343   2.093   4.657  1.6554 -1.7211 -0.4332
24253SOL    HW275298   2.275   1.964   4.615 -1.5449 -0.1440 -0.2914
24254SOL     OW75299   7.460   1.092   4.976 -0.1016  0.4919 -0.3737
24254SOL    HW175300   7.459   1.188   4.972 -3.0452  0.5405  0.3429
24254SOL    HW275301   7.376   1.066   4.938 -0.4869 -1.6781  1.8839
24255SOL     OW75302   2.410   1.139   7.215  0.4450 -0.1681  0.4605
24255SOL    HW175303   2.397   1.116   7.307 -0.6614 -0.0348  0.3435
24255SOL    HW275304   2.496   1.182   7.213  0.2274  0.3389  1.5223
24256SOL     OW75305   7.164   2.545   1.375  0.5317  0.1478  0.9409
24256SOL    HW175306   7.217   2.545   1.455  1.1895  1.3118  0.5266
24256SOL    HW275307   7.223   2.512   1.308  0.1816 -0.2117  0.8112
24257SOL     OW75308   8.815   8.961   3.076 -0.0124 -0.7615 -0.1410
24257SOL    HW175309   8.797   9.032   3.014 -0.1060 -0.5226  0.1535
24257SOL    HW275310   8.860   9.005   3.149 -2.1520 -0.5923  1.1007
24258SOL     OW75311   5.103   7.414   1.386  0.0600  0.6924  0.2857
24258SOL    HW175312   5.106   7.374   1.299 -3.3292 -1.0168  0.8616
24258SOL    HW275313   5.161   7.360   1.439 -1.9274 -1.5179  0.2707
24259SOL     OW75314   0.727   6.437   6.684  0.3031 -0.7171 -0.5665
24259SOL    HW175315   0.691   6.491   6.754 -0.3689 -1.5038 -0.2979
24259SOL    HW275316   0.745   6.499   6.613 -1.4598 -0.2747 -0.6519
24260SOL     OW75317   0.293   2.616   8.221  0.1713 -0.0865 -0.0313
24260SOL    HW175318   0.244   2.691   8.254  0.5411 -0.0102  0.3542
24260SOL    HW275319   0.227   2.550   8.202 -0.1172  0.1724  0.0733
24261SOL     OW75320   4.143   6.184   4.795  0.1459 -0.3695  0.2263
24261SOL    HW175321   4.233   6.157   4.814 -0.0811 -1.4523 -0.1744
24261SOL    HW275322   4.111   6.220   4.877  0.7477 -0.5637  0.5491
24262SOL     OW75323   3.405   4.178   7.982  0.2588 -0.6004  0.4915
24262SOL    HW175324   3.456   4.130   7.916 -0.8224 -2.5734  1.0712
24262SOL    HW275325   3.424   4.133   8.064  0.1843  0.7414  1.2623
24263SOL     OW75326   2.609   0.429   0.747  0.0768 -0.0736  0.1548
24263SOL    HW175327   2.518   0.401   0.744 -0.1701  0.7307  0.0026
24263SOL    HW275328   2.632   0.445   0.655 -0.7941  3.3614  0.4402
24264SOL     OW75329   8.459   5.232   6.131 -0.3053  0.8901  0.3082
24264SOL    HW175330   8.473   5.156   6.186 -2.8935  1.1262  1.3933
24264SOL    HW275331   8.401   5.201   6.061 -1.4102  1.8355  0.7806
24265SOL     OW75332   4.805  10.170   4.945  0.0245 -0.1300  0.4783
24265SOL    HW175333   4.786  10.114   5.020  1.9567  1.5687  2.3260
24265SOL    HW275334   4.756  10.251   4.963  0.9804  0.5062  0.2398
24266SOL     OW75335   4.848   0.834   8.943  0.1809 -0.1209 -0.2149
24266SOL    HW175336   4.760   0.873   8.943 -0.2084 -0.9782  0.0236
24266SOL    HW275337   4.878   0.843   9.034 -0.5751 -1.8357  0.2116
24267SOL     OW75338   1.458   6.814   3.301 -0.9051 -0.2150  0.0892
24267SOL    HW175339   1.375   6.773   3.325 -2.0765  2.1498  0.1834
24267SOL    HW275340   1.454   6.901   3.340  1.3736  0.1498 -0.4274
24268SOL     OW75341   3.912   4.879   6.195 -0.1237  0.0111 -0.2134
24268SOL    HW175342   3.830   4.865   6.149  0.6067 -0.3507 -1.4161
24268SOL    HW275343   3.907   4.970   6.226 -1.6098 -0.4715  1.0329
24269SOL     OW75344   0.069   1.757   7.285  0.2372 -0.7515 -0.3961
24269SOL    HW175345   0.149   1.706   7.297 -0.3143 -1.6573 -0.5439
24269SOL    HW275346   0.045   1.744   7.194  0.6620  0.6243 -0.7204
24270SOL     OW75347   8.518   8.049   1.163  0.0735  0.5851  0.3947
24270SOL    HW175348   8.452   8.076   1.100  1.5210  3.2259 -0.0580
24270SOL    HW275349   8.563   7.976   1.121 -0.0181  1.2957 -0.9620
24271SOL     OW75350   6.507   8.295   9.786  0.0521  0.0368 -0.0912
24271SOL    HW175351   6.475   8.245   9.711  0.6875 -1.4338  0.5981
24271SOL    HW275352   6.429   8.313   9.838 -0.3228  0.6420 -0.8503
24272SOL     OW75353   1.981   1.420   0.047  0.3867  0.4596 -0.1470
24272SOL    HW175354   1.932   1.408  -0.034 -1.6359  1.3928  0.9054
24272SOL    HW275355   2.038   1.495   0.031  1.0414 -0.2486 -1.1735
24273SOL     OW75356   8.815   8.217   5.673  0.1051  0.5146 -0.1645
24273SOL    HW175357   8.837   8.137   5.625 -0.2513 -0.4279  1.1970
24273SOL    HW275358   8.733   8.247   5.633 -1.4595 -1.5574  1.3158
24274SOL     OW75359   4.944   9.955   0.051 -0.5430 -0.3866 -0.0428
24274SOL    HW175360   4.981   9.869   0.033 -1.5256 -0.4642 -1.8947
24274SOL    HW275361   4.849   9.940   0.055 -0.6210  0.3511  1.2595
24275SOL     OW75362   5.967   7.815   1.905 -0.6395  0.1044 -0.0913
24275SOL    HW175363   5.967   7.749   1.974  2.1518  0.7533  0.5732
24275SOL    HW275364   5.899   7.786   1.844 -0.9795 -2.1616  1.3246
24276SOL     OW75365   5.573   7.995  10.142  0.2352 -0.0348  0.4400
24276SOL    HW175366   5.522   8.058  10.192  1.3478 -0.2356  1.8385
24276SOL    HW275367   5.557   8.019  10.050 -1.7402  0.3778  0.8785
24277SOL     OW75368   5.639   0.606   8.721 -0.5419 -0.1985  0.4980
24277SOL    HW175369   5.603   0.575   8.804 -0.4046 -0.1030  0.5914
24277SOL    HW275370   5.596   0.690   8.707  0.3331  0.3442  1.0649
24278SOL     OW75371   5.145   1.991   7.950 -0.7982  0.1847  0.2880
24278SOL    HW175372   5.094   1.971   8.028  1.3263 -1.2581  1.3710
24278SOL    HW275373   5.116   1.926   7.886 -1.6499  0.5716  0.2720
24279SOL     OW75374   9.047   2.302   4.488 -0.1127 -0.5281 -0.4611
24279SOL    HW175375   9.056   2.242   4.415 -0.0340 -1.7788  0.5676
24279SOL    HW275376   9.079   2.253   4.564  1.3487  1.2919  0.1569
24280SOL     OW75377   1.791   5.612   4.775  0.2976  0.2821  0.1116
24280SOL    HW175378   1.878   5.650   4.764  1.1231 -1.3638  0.7448
24280SOL    HW275379   1.797   5.525   4.736 -0.9518  0.0015  0.4996
24281SOL     OW75380   1.151   9.536   8.410 -0.5259 -0.4065  0.0886
24281SOL    HW175381   1.063   9.509   8.384 -0.2604  0.3861 -1.7359
24281SOL    HW275382   1.178   9.596   8.341  1.0049  0.2405  1.2448
24282SOL     OW75383   3.477   6.412   7.409 -0.2372 -1.1001  0.4807
24282SOL    HW175384   3.434   6.340   7.363  0.5477 -1.3305  0.1028
24282SOL    HW275385   3.570   6.390   7.406  0.0929  0.3153 -0.3296
24283SOL     OW75386   0.165   4.636   4.958  0.2887  0.5085  0.0602
24283SOL    HW175387   0.122   4.552   4.942  0.7554  0.2355  0.2327
24283SOL    HW275388   0.173   4.675   4.871 -1.3328  1.0743  0.1402
24284SOL     OW75389   0.885   3.506   5.531 -0.1887  0.6356  0.3736
24284SOL    HW175390   0.814   3.450   5.564  0.1908  0.0380  0.1914
24284SOL    HW275391   0.888   3.580   5.591  0.8431 -0.6966  2.0106
24285SOL     OW75392   0.443   6.953   8.302  0.0103  0.1096  0.2180
24285SOL    HW175393   0.402   6.866   8.304 -0.4320  0.3355  1.6414
24285SOL    HW275394   0.437   6.980   8.211 -1.0873 -0.7795  0.0109
24286SOL     OW75395   9.495   1.798   6.666 -0.4768 -0.0619 -0.4955
24286SOL    HW175396   9.462   1.743   6.737  0.9386 -2.1262 -1.3834
24286SOL    HW275397   9.536   1.872   6.710 -1.7334 -0.0830  0.7511
24287SOL     OW75398   6.354   1.406   2.933  0.5440 -0.2439 -0.3338
24287SOL    HW175399   6.393   1.372   3.013 -0.8028 -2.2260 -0.4902
24287SOL    HW275400   6.300   1.334   2.900  0.5370  0.7953 -2.6544
24288SOL     OW75401   3.809   6.658   7.380 -0.2370 -0.5114  0.2307
24288SOL    HW175402   3.862   6.628   7.306  1.5923  0.3822  1.1590
24288SOL    HW275403   3.805   6.753   7.371 -0.2016 -0.4163  1.1576
24289SOL     OW75404   9.904   2.383   7.420  0.5596  0.3407 -0.3602
24289SOL    HW175405   9.967   2.425   7.479  1.5967 -0.1666 -1.0884
24289SOL    HW275406   9.860   2.456   7.377  1.0478  0.7027 -0.2514
24290SOL     OW75407   7.507   4.766   5.271 -0.2168 -0.9275 -0.1419
24290SOL    HW175408   7.486   4.818   5.193  1.3366  1.5770  1.0043
24290SOL    HW275409   7.561   4.694   5.238 -1.8538 -1.4528 -1.7112
24291SOL     OW75410   0.349   8.244   9.218  0.7537 -0.0287  0.0929
24291SOL    HW175411   0.408   8.260   9.292 -0.6646  0.5140  1.1292
24291SOL    HW275412   0.316   8.331   9.195  1.7508 -0.0968 -1.6787
24292SOL     OW75413   8.215   5.194   0.091 -0.1276  0.0885  0.0492
24292SOL    HW175414   8.230   5.141   0.169 -0.1462  0.6310  0.4235
24292SOL    HW275415   8.212   5.284   0.123 -0.8113  0.2625 -0.4785
24293SOL     OW75416   7.799   3.480   9.835  1.2870 -0.1730  0.5199
24293SOL    HW175417   7.729   3.425   9.870  2.7662 -2.0020  0.7119
24293SOL    HW275418   7.848   3.508   9.912  1.3635  0.2458  0.3176
24294SOL     OW75419   1.815   8.313   0.822  0.3783  0.0620  0.0094
24294SOL    HW175420   1.741   8.319   0.761  1.1951 -2.4549 -1.3223
24294SOL    HW275421   1.869   8.389   0.802 -1.1956  1.2274  0.1140
24295SOL     OW75422   4.103   2.350   1.227 -0.2197 -0.0713  0.3266
24295SOL    HW175423   4.050   2.357   1.148  0.4868 -2.8306 -0.4603
24295SOL    HW275424   4.193   2.366   1.198  0.0426 -1.0831  0.5506
24296SOL     OW75425   8.858   3.273   1.028  0.2024  0.0077  0.1665
24296SOL    HW175426   8.846   3.181   1.049 -0.7572  0.3154  1.0676
24296SOL    HW275427   8.854   3.317   1.113 -1.1487  1.0469 -0.4235
24297SOL     OW75428   8.078   8.494   0.948 -0.0145  0.2748  0.3292
24297SOL    HW175429   8.055   8.433   0.878 -0.6259  1.3039 -0.3831
24297SOL    HW275430   8.144   8.551   0.909  3.7928 -2.5663  2.3124
24298SOL     OW75431   1.493   4.956   0.523  0.5354 -0.0799  0.0223
24298SOL    HW175432   1.491   5.035   0.577 -1.3490 -0.8516  1.1171
24298SOL    HW275433   1.419   4.965   0.464 -0.7313 -1.7976  1.3005
24299SOL     OW75434   9.109   9.982   0.121 -0.2184 -0.3965 -0.2293
24299SOL    HW175435   9.101   9.896   0.164  0.3889 -0.4844 -0.2791
24299SOL    HW275436   9.100  10.045   0.192  1.6939 -0.5640  0.1870
24300SOL     OW75437   9.048   1.118   2.821  0.0574 -0.4379 -0.1396
24300SOL    HW175438   9.017   1.144   2.907  1.8211 -0.2599  0.4723
24300SOL    HW275439   9.049   1.199   2.770 -0.5903 -0.4684 -0.1982
24301SOL     OW75440   8.964   5.141   2.804  0.1274  0.2320  0.1001
24301SOL    HW175441   9.007   5.057   2.823 -1.2711 -0.7043 -0.8230
24301SOL    HW275442   8.973   5.191   2.885  3.3688  0.2553 -0.1904
24302SOL     OW75443   9.591   8.372   7.850 -0.2553  0.1816  0.3391
24302SOL    HW175444   9.654   8.441   7.872 -0.3265  0.5161 -0.4836
24302SOL    HW275445   9.532   8.369   7.925  0.4807  0.1619  0.9342
24303SOL     OW75446   1.454   8.471   6.909  0.5517  0.6282 -0.1943
24303SOL    HW175447   1.494   8.384   6.909  1.6300  1.0963 -2.3109
24303SOL    HW275448   1.437   8.489   6.817 -1.9763  1.6312  0.4301
24304SOL     OW75449   2.949   4.601   1.728 -0.0821  0.5472 -0.4618
24304SOL    HW175450   2.905   4.672   1.774  2.1249  1.1915  0.7175
24304SOL    HW275451   2.991   4.643   1.653 -0.4568  0.1307 -0.9124
24305SOL     OW75452   4.339   0.255   2.346  0.1776  0.0664 -0.7228
24305SOL    HW175453   4.308   0.308   2.419 -1.4845 -2.0758  0.1916
24305SOL    HW275454   4.431   0.237   2.366  0.4451  1.6383 -0.4940
24306SOL     OW75455   9.559   7.528   0.772 -0.7512 -0.1180 -0.7993
24306SOL    HW175456   9.576   7.555   0.862  1.4576  1.3393 -1.6142
24306SOL    HW275457   9.556   7.610   0.722  0.9940 -1.0318 -2.4960
24307SOL     OW75458   0.985   7.944   2.166 -0.1248  0.1467  0.4688
24307SOL    HW175459   0.944   7.915   2.084  0.6334 -3.3401  1.2459
24307SOL    HW275460   0.970   8.038   2.168 -0.7151  0.2163 -3.3792
24308SOL     OW75461   7.022   0.123   7.301  0.3885  0.4967 -0.2212
24308SOL    HW175462   7.009   0.211   7.337  1.2536  0.6116 -0.1818
24308SOL    HW275463   7.101   0.090   7.345  0.8615  0.2411 -1.2573
24309SOL     OW75464   0.985   9.936   8.214  0.2945  0.0486 -0.1493
24309SOL    HW175465   1.018   9.869   8.153 -0.5952 -0.0395 -0.5455
24309SOL    HW275466   1.019   9.909   8.299 -0.0160 -0.8963 -0.3132
24310SOL     OW75467   7.908   3.194   4.385  0.3948  0.7705 -0.1580
24310SOL    HW175468   7.832   3.246   4.358  2.7855  2.9393 -3.1435
24310SOL    HW275469   7.970   3.259   4.419  2.3643 -0.4178 -1.3639
24311SOL     OW75470   2.612   0.555   8.841 -0.3512 -0.3255  0.4344
24311SOL    HW175471   2.562   0.608   8.902  0.3635 -0.2805  0.9975
24311SOL    HW275472   2.577   0.466   8.852  0.1965 -0.4327  1.3782
24312SOL     OW75473   0.878   2.649   1.213 -0.0229  0.3250  0.4522
24312SOL    HW175474   0.841   2.737   1.222  1.0237  0.7778  0.5117
24312SOL    HW275475   0.929   2.637   1.293 -1.0499 -0.7785  0.9391
24313SOL     OW75476  10.159   3.107   6.293 -0.0535  0.2092  0.0067
24313SOL    HW175477  10.152   3.016   6.263 -0.0303 -0.5204  2.1574
24313SOL    HW275478  10.083   3.150   6.254 -1.3988 -1.2912  0.9095
24314SOL     OW75479   0.233   3.940   2.458  0.3067 -0.7558 -0.4013
24314SOL    HW175480   0.307   3.926   2.398  0.1328  0.6880 -0.9693
24314SOL    HW275481   0.164   3.884   2.423  0.7590 -1.2563 -0.5183
24315SOL     OW75482   6.123   1.361   6.400  0.0364 -0.8103 -0.2777
24315SOL    HW175483   6.188   1.395   6.463  0.1883  1.2787 -1.5176
24315SOL    HW275484   6.095   1.278   6.437 -2.1518  1.7458  4.1692
24316SOL     OW75485   1.200   8.747   9.847 -0.0748  0.1410 -0.1921
24316SOL    HW175486   1.190   8.819   9.785 -0.6114  0.3582  0.1463
24316SOL    HW275487   1.261   8.779   9.912 -0.0490  0.1672 -0.2286
24317SOL     OW75488   6.235   0.215   4.944  0.2131  0.2446  0.7116
24317SOL    HW175489   6.283   0.178   5.018 -1.1795  2.1220  2.5870
24317SOL    HW275490   6.278   0.298   4.927  0.2069  0.0529 -0.2932
24318SOL     OW75491   2.293   6.776   8.492 -0.3069 -0.0234  0.1188
24318SOL    HW175492   2.252   6.710   8.436  0.7814  0.5393 -1.3662
24318SOL    HW275493   2.269   6.859   8.452  0.4318  0.3908  0.5337
24319SOL     OW75494   9.294   2.346   6.906  0.2653 -0.3102  0.3516
24319SOL    HW175495   9.314   2.298   6.986 -0.2796 -0.0212  0.6669
24319SOL    HW275496   9.211   2.309   6.876 -0.3311  0.6540  0.7844
24320SOL     OW75497   8.328   2.982   5.632 -0.9754 -0.2305  0.1264
24320SOL    HW175498   8.401   2.949   5.685  0.2694  1.3163 -0.5772
24320SOL    HW275499   8.254   2.986   5.692 -0.0568 -0.2449  1.2783
24321SOL     OW75500   7.049   0.718   4.708  0.1048  0.5654 -0.8455
24321SOL    HW175501   7.024   0.805   4.679  1.1158  0.8161 -0.9538
24321SOL    HW275502   7.139   0.707   4.679 -0.2968 -0.8476 -1.5798
24322SOL     OW75503   6.610   5.208   2.128 -0.2997  0.1694  0.3350
24322SOL    HW175504   6.519   5.231   2.145 -0.1554  0.6677  0.4288
24322SOL    HW275505   6.661   5.269   2.181  0.0743 -0.7947  1.1060
24323SOL     OW75506   8.053   2.200   8.590  0.6996  0.5078 -0.3941
24323SOL    HW175507   8.016   2.182   8.504  2.2768  1.9159 -1.3863
24323SOL    HW275508   7.979   2.234   8.641 -0.3059 -0.5870 -1.0828
24324SOL     OW75509   4.054   3.277   8.450  0.2542 -0.7140  0.0421
24324SOL    HW175510   4.100   3.346   8.402 -1.1429 -0.4044 -0.8842
24324SOL    HW275511   4.098   3.196   8.425  1.4108 -0.2557  0.5366
24325SOL     OW75512   8.930   6.900   9.554 -0.0449  0.0166 -0.0060
24325SOL    HW175513   8.952   6.862   9.639  1.9751  0.3264 -0.3618
24325SOL    HW275514   8.892   6.827   9.504  0.9860 -0.7609  0.3398
24326SOL     OW75515   7.243   3.647   9.158 -0.0536 -0.0820  0.2417
24326SOL    HW175516   7.250   3.566   9.108  2.2609 -0.5435  1.2569
24326SOL    HW275517   7.242   3.716   9.092 -0.8731 -0.8516 -0.5807
24327SOL     OW75518   3.679   8.487   4.914 -0.4754  0.2539 -0.1533
24327SOL    HW175519   3.708   8.409   4.961 -1.9820  0.1150  0.5502
24327SOL    HW275520   3.696   8.559   4.974 -0.5264  0.2964 -0.1897
24328SOL     OW75521   0.256   9.316   8.904  0.2026  0.5673 -0.2218
24328SOL    HW175522   0.268   9.268   8.822  2.0334  0.8718 -0.1447
24328SOL    HW275523   0.287   9.256   8.972 -1.1423  0.3858  0.2431
24329SOL     OW75524   5.873   7.320   9.985 -0.1017 -0.8050  0.6287
24329SOL    HW175525   5.813   7.302  10.057  0.6753  0.9747  1.7589
24329SOL    HW275526   5.959   7.324  10.026  0.2474  1.0551 -0.2552
24330SOL     OW75527   0.710   7.734   9.898  0.2025 -0.5213  0.5340
24330SOL    HW175528   0.766   7.658   9.914  0.0988 -0.6288  0.3877
24330SOL    HW275529   0.626   7.697   9.871 -0.1465 -0.3691  1.4023
24331SOL     OW75530   9.381   2.871   5.551 -0.1088  0.5510  0.3978
24331SOL    HW175531   9.472   2.868   5.582 -0.1261 -2.2930  0.3318
24331SOL    HW275532   9.328   2.864   5.631 -0.2807  1.4897  0.3753
24332SOL     OW75533   2.759   5.095   2.506  0.1093 -0.0977 -0.0927
24332SOL    HW175534   2.681   5.052   2.470  0.7628 -1.2712 -0.1238
24332SOL    HW275535   2.831   5.065   2.450  0.9675 -1.0885  1.5137
24333SOL     OW75536   0.478   0.461   0.890  0.3320  0.2195  0.2406
24333SOL    HW175537   0.428   0.512   0.954  0.7350 -0.6723  1.2938
24333SOL    HW275538   0.570   0.475   0.914  0.4412 -1.2851  0.7936
24334SOL     OW75539   6.903   1.167  10.059 -0.0868 -0.1544  0.3025
24334SOL    HW175540   6.924   1.212  10.141 -0.9277  1.3203 -0.2622
24334SOL    HW275541   6.986   1.160  10.013  0.1640  0.2619  0.6849
24335SOL     OW75542   6.535   2.086   1.783 -0.2828 -0.6471  0.9483
24335SOL    HW175543   6.615   2.072   1.734  0.0359 -1.7768  1.7783
24335SOL    HW275544   6.482   2.142   1.727  1.2979  0.5599  0.6295
24336SOL     OW75545   7.404   3.792   4.888 -0.6356  0.0947 -0.2238
24336SOL    HW175546   7.432   3.884   4.881 -1.3443  0.4913  1.6300
24336SOL    HW275547   7.484   3.744   4.908 -0.1315  0.1852 -1.9628
24337SOL     OW75548   0.012   5.524   5.246 -0.2705 -0.0231 -0.2069
24337SOL    HW175549   0.093   5.488   5.211 -0.4416 -0.5628 -0.0525
24337SOL    HW275550  -0.057   5.470   5.208 -0.6181  0.9104 -0.9515
24338SOL     OW75551   9.284   6.442   1.701 -0.3857  0.0757  0.3717
24338SOL    HW175552   9.347   6.509   1.726  1.7699 -0.9119 -2.1681
24338SOL    HW275553   9.209   6.491   1.668  0.3846  1.2564  0.3426
24339SOL     OW75554   6.530   8.940   5.381 -0.1212  0.4106 -0.8561
24339SOL    HW175555   6.576   8.947   5.465 -1.6772 -0.9337  0.1469
24339SOL    HW275556   6.594   8.898   5.323  1.0601  1.5793 -0.4366
24340SOL     OW75557   0.544   1.627   8.657  0.2086  0.0867  0.0156
24340SOL    HW175558   0.579   1.633   8.746  2.8911  0.2832 -1.0015
24340SOL    HW275559   0.499   1.710   8.644  0.0465  0.1811  1.0956
24341SOL     OW75560   7.262   6.395   4.644 -0.0382 -0.5945  0.2422
24341SOL    HW175561   7.338   6.405   4.702 -0.9176  0.0947  1.2965
24341SOL    HW275562   7.246   6.483   4.610 -1.9868 -0.1735  2.1243
24342SOL     OW75563   5.620   0.868   3.160  0.1224 -0.0778 -0.1711
24342SOL    HW175564   5.546   0.826   3.116  0.3321  0.6835 -1.2586
24342SOL    HW275565   5.665   0.795   3.204  0.1229 -0.9015 -1.5188
24343SOL     OW75566   7.018   0.417   7.605  0.0517  0.0128 -0.1601
24343SOL    HW175567   7.085   0.349   7.599  0.3710  0.1565  1.5925
24343SOL    HW275568   6.965   0.406   7.526  2.8115  0.6242 -2.1679
24344SOL     OW75569   0.793   3.328   3.860  0.1162  0.1490  0.1655
24344SOL    HW175570   0.719   3.386   3.842  0.5173  0.6700  0.1860
24344SOL    HW275571   0.871   3.381   3.842  0.4903 -0.9169 -1.5370
24345SOL     OW75572   1.514   6.991   4.204 -0.1977  0.1553  0.0706
24345SOL    HW175573   1.598   6.955   4.235 -0.3043  0.5762  0.8699
24345SOL    HW275574   1.484   7.046   4.276 -1.3216 -0.2407 -0.0862
24346SOL     OW75575   3.503   5.584   0.882  0.2652 -0.2022 -0.1699
24346SOL    HW175576   3.484   5.662   0.935 -1.3344 -0.7090  0.0142
24346SOL    HW275577   3.553   5.527   0.940 -0.4088 -0.2191  0.4033
24347SOL     OW75578   8.693   0.919   4.013 -0.0569 -0.0985  0.3746
24347SOL    HW175579   8.725   0.922   3.923 -0.9283  1.6103  0.1025
24347SOL    HW275580   8.750   0.857   4.057  3.0278  2.1286 -0.3405
24348SOL     OW75581   4.598   9.192   1.325 -0.1630  0.1301 -1.3634
24348SOL    HW175582   4.634   9.140   1.254  0.1428  0.0953 -1.1840
24348SOL    HW275583   4.545   9.259   1.282  1.3073  1.1046 -1.6929
24349SOL     OW75584   5.618   4.582   5.711 -0.4274 -0.1834 -0.3741
24349SOL    HW175585   5.627   4.670   5.750 -0.3866 -0.4549  0.2303
24349SOL    HW275586   5.708   4.553   5.699 -0.4197  0.3919 -1.8024
24350SOL     OW75587   3.293   3.794   3.036 -0.4016 -0.4476 -0.4420
24350SOL    HW175588   3.204   3.766   3.057  0.2645 -1.4764  1.0356
24350SOL    HW275589   3.322   3.843   3.113  0.6047 -0.8255 -0.5670
24351SOL     OW75590   4.304   6.069   2.054  0.1656  0.5629 -0.2102
24351SOL    HW175591   4.235   6.008   2.027  1.0549 -1.8639  2.7106
24351SOL    HW275592   4.380   6.044   2.002 -0.1216  0.7812 -0.7397
24352SOL     OW75593   6.703   0.943   0.058  0.6480  0.0648  0.1043
24352SOL    HW175594   6.684   0.984  -0.026 -0.1184  1.3301  0.8795
24352SOL    HW275595   6.619   0.942   0.104  1.1933  0.0013  1.1170
24353SOL     OW75596   4.386   0.060   4.131  0.7951  0.3015  0.4879
24353SOL    HW175597   4.416   0.120   4.063 -0.7366 -1.3703 -1.7365
24353SOL    HW275598   4.324   0.112   4.182  0.5399  1.0446 -0.5507
24354SOL     OW75599   0.823   5.565   2.969  0.4376 -0.2858  0.2683
24354SOL    HW175600   0.850   5.639   3.024  2.2407 -0.8012  0.0754
24354SOL    HW275601   0.872   5.576   2.888 -2.6740  0.8185 -1.5622
24355SOL     OW75602   3.026   7.218   3.169  0.1907  0.3242 -0.2832
24355SOL    HW175603   3.074   7.301   3.173 -0.1777  0.5585 -0.7829
24355SOL    HW275604   2.936   7.243   3.153  0.3019 -0.2384 -1.8550
24356SOL     OW75605   1.139   6.727   9.495  0.5780 -0.0556 -0.0014
24356SOL    HW175606   1.065   6.678   9.531 -0.5148  2.1073  0.7439
24356SOL    HW275607   1.200   6.735   9.569  1.5600 -1.7521 -0.5901
24357SOL     OW75608   7.055   6.660   6.795 -0.2012  0.3590  0.0935
24357SOL    HW175609   7.100   6.587   6.752  2.1146 -0.9569  4.4692
24357SOL    HW275610   6.979   6.621   6.836  0.0836  0.6973  0.9672
24358SOL     OW75611   0.221   4.378   5.205 -0.3946 -0.1869  0.5220
24358SOL    HW175612   0.172   4.377   5.287 -0.8106 -0.0403  0.2769
24358SOL    HW275613   0.174   4.316   5.148 -0.8022  0.6013 -0.0023
24359SOL     OW75614   0.516   1.058   7.919 -0.1825  0.0095 -0.6109
24359SOL    HW175615   0.608   1.083   7.906  0.1379 -1.7151 -1.8223
24359SOL    HW275616   0.513   1.025   8.009  0.2301  0.7603 -0.3199
24360SOL     OW75617   7.087   9.750   3.008 -0.5923 -0.5549 -0.9160
24360SOL    HW175618   7.031   9.799   2.947 -1.8219  0.7814  1.2541
24360SOL    HW275619   7.167   9.802   3.013  0.0288 -1.3466 -2.3685
24361SOL     OW75620   0.213   1.649   1.823  0.0196  0.0269  0.3370
24361SOL    HW175621   0.248   1.704   1.893  0.6722  0.0247  0.0174
24361SOL    HW275622   0.279   1.581   1.811  0.8592  1.1552 -1.6184
24362SOL     OW75623   1.428   9.015   0.559 -0.1049  0.1949  0.0075
24362SOL    HW175624   1.433   9.044   0.650 -0.2606  3.4807 -0.9697
24362SOL    HW275625   1.334   9.007   0.541 -0.1909  2.1116 -0.5693
24363SOL     OW75626   4.992   0.101   9.814 -0.3317  0.0946  0.3552
24363SOL    HW175627   4.996   0.190   9.848  0.1088  0.3492 -0.3572
24363SOL    HW275628   5.069   0.058   9.851  0.4657  0.5371 -0.7770
24364SOL     OW75629  10.185   6.954   2.573 -0.3764 -0.7000  0.1735
24364SOL    HW175630  10.246   6.912   2.634  1.4195  1.5652  0.0103
24364SOL    HW275631  10.194   6.904   2.492  1.3944 -0.3137  0.1143
24365SOL     OW75632   7.125   2.870   1.662  0.0732  0.1807 -0.1486
24365SOL    HW175633   7.080   2.786   1.648  1.6885 -0.8592  0.7639
24365SOL    HW275634   7.114   2.887   1.755  0.5751  0.4972 -0.1503
24366SOL     OW75635   7.876   7.588   3.767  0.0062 -0.3394 -0.1249
24366SOL    HW175636   7.817   7.649   3.810 -0.1971  0.7953 -1.9828
24366SOL    HW275637   7.894   7.521   3.834 -2.8629 -0.3842  0.6642
24367SOL     OW75638   2.726   2.157   9.621  0.0150 -0.1830 -0.0166
24367SOL    HW175639   2.668   2.210   9.567 -0.6261  0.6635  1.4738
24367SOL    HW275640   2.668   2.097   9.668  0.5972 -1.1785 -0.5721
24368SOL     OW75641   7.506   9.685   9.948 -0.1777  0.0281 -0.0949
24368SOL    HW175642   7.506   9.640  10.033  1.3732  1.0033  0.4405
24368SOL    HW275643   7.444   9.757   9.959  0.7512  0.7477  0.5536
24369SOL     OW75644   0.726   7.032   1.982 -0.2498  0.6288  0.2937
24369SOL    HW175645   0.714   7.123   1.954  0.3085  0.7368  0.4178
24369SOL    HW275646   0.642   6.990   1.962  0.6576  0.2972 -3.1336
24370SOL     OW75647   2.644  10.113   7.185 -0.1605  0.2485  0.3756
24370SOL    HW175648   2.674  10.167   7.258 -0.5587 -0.7804  1.3181
24370SOL    HW275649   2.611  10.176   7.120 -0.4914  1.1326  1.3871
24371SOL     OW75650   2.487   6.745   9.906 -0.6607  0.0735  0.5171
24371SOL    HW175651   2.495   6.663   9.858 -0.3958 -0.0297  0.7343
24371SOL    HW275652   2.397   6.746   9.939 -0.4421 -0.4806  1.1428
24372SOL     OW75653   2.863   8.799   2.724  0.6489 -0.4730 -0.8768
24372SOL    HW175654   2.924   8.785   2.797 -1.2177 -2.3320  0.3961
24372SOL    HW275655   2.776   8.789   2.763 -0.4312  0.0980 -3.0484
24373SOL     OW75656   0.420   4.614   6.108  0.3804  0.3245 -0.0375
24373SOL    HW175657   0.508   4.621   6.071  0.4014 -0.5365 -0.1612
24373SOL    HW275658   0.377   4.546   6.055 -0.8228  1.7351 -0.8966
24374SOL     OW75659   4.508   8.411   4.771  0.1538 -0.4876  0.6826
24374SOL    HW175660   4.550   8.465   4.838  2.1700 -0.8250 -0.2604
24374SOL    HW275661   4.434   8.371   4.815  0.4282  0.6690  2.2329
24375SOL     OW75662   8.944   4.573   6.054  0.1047 -0.6694  0.6702
24375SOL    HW175663   8.975   4.495   6.008  0.0475 -0.7305  0.7346
24375SOL    HW275664   8.959   4.554   6.147  0.0745 -0.6116  0.6869
24376SOL     OW75665   8.354   9.023   7.559  0.1615  0.6863  0.3875
24376SOL    HW175666   8.273   9.056   7.519  0.7086 -0.9430 -2.1425
24376SOL    HW275667   8.423   9.078   7.520  0.4785  0.6825  0.9428
24377SOL     OW75668   3.526   6.174   6.454 -0.5677  0.0676  0.1295
24377SOL    HW175669   3.544   6.167   6.547  2.0419  0.7055 -0.2875
24377SOL    HW275670   3.443   6.223   6.449 -0.5595  0.3074  2.0711
24378SOL     OW75671   9.237   4.983   4.555 -0.2362 -0.4571  0.1628
24378SOL    HW175672   9.178   5.003   4.628  1.1058 -0.5525  1.3030
24378SOL    HW275673   9.293   5.060   4.548 -0.4242 -0.4119 -0.8481
24379SOL     OW75674   7.867   7.845   0.608 -0.3614  0.6046 -0.2082
24379SOL    HW175675   7.789   7.854   0.663  0.0770 -0.6647  0.6410
24379SOL    HW275676   7.863   7.920   0.549 -1.1423  1.6768  1.1820
24380SOL     OW75677   9.312   9.307   9.137 -0.1907  0.8751  0.3705
24380SOL    HW175678   9.315   9.370   9.066  0.0458 -1.0430 -1.3597
24380SOL    HW275679   9.388   9.250   9.122  0.5485  1.1599  2.8299
24381SOL     OW75680   7.850   2.835   9.926 -0.3963 -0.0389 -0.3266
24381SOL    HW175681   7.938   2.836   9.889  0.1125  0.0556  0.8505
24381SOL    HW275682   7.824   2.927   9.929 -0.1723  0.0095  0.1598
24382SOL     OW75683   1.603   2.941   9.420 -0.6753  0.2482 -0.4126
24382SOL    HW175684   1.586   2.876   9.352  0.7382 -0.7657  0.1805
24382SOL    HW275685   1.550   2.913   9.495  1.2828 -1.2514  0.4438
24383SOL     OW75686   2.090   7.717   5.589 -0.4685 -0.0992 -0.1762
24383SOL    HW175687   2.142   7.797   5.598  0.0394 -0.3065 -1.2644
24383SOL    HW275688   2.139   7.662   5.528 -0.7898 -1.2665  0.5869
24384SOL     OW75689   6.683   3.557   0.923  0.4713  0.0699 -0.3162
24384SOL    HW175690   6.612   3.540   0.986  0.5865  0.3509 -0.1081
24384SOL    HW275691   6.709   3.470   0.892 -0.5715  0.0155 -1.0664
24385SOL     OW75692   0.166   9.711   2.204 -0.5293 -0.1605  0.1767
24385SOL    HW175693   0.191   9.661   2.281 -0.9119  1.0848  1.1283
24385SOL    HW275694   0.248   9.723   2.155 -0.0411  0.1513  1.0527
24386SOL     OW75695   3.932   3.555   5.624 -0.0480 -0.1427  0.0632
24386SOL    HW175696   3.963   3.628   5.677  2.2613 -0.9056 -0.1870
24386SOL    HW275697   3.914   3.485   5.686  0.1312 -0.1885  0.0612
24387SOL     OW75698   1.316   6.352   6.474  0.1583 -0.3779 -0.3236
24387SOL    HW175699   1.317   6.355   6.569 -0.0548 -1.4442 -0.2855
24387SOL    HW275700   1.320   6.444   6.447 -0.5940 -0.0339  0.7209
24388SOL     OW75701   1.056   5.365   5.410 -0.2058  0.5185 -0.9628
24388SOL    HW175702   0.979   5.393   5.361  0.2609  1.8322 -0.9577
24388SOL    HW275703   1.052   5.413   5.492 -0.9203 -1.5976  0.2768
24389SOL     OW75704   0.899   2.199   7.805  0.0189 -0.5725  0.0296
24389SOL    HW175705   0.838   2.182   7.733  0.5404 -0.7349 -0.3731
24389SOL    HW275706   0.875   2.134   7.871  1.1424 -2.0538 -0.9836
24390SOL     OW75707   5.219   9.272   6.586  0.6707 -0.1806 -0.1860
24390SOL    HW175708   5.200   9.306   6.498 -1.9576 -0.7771  0.1162
24390SOL    HW275709   5.310   9.245   6.582  0.6520  0.0061 -2.6793
24391SOL     OW75710   7.129   3.438   0.194  0.1385  0.0498 -0.0162
24391SOL    HW175711   7.181   3.447   0.273 -0.8676 -0.1035  0.6759
24391SOL    HW275712   7.053   3.494   0.209  0.0010  0.1149 -0.9227
24392SOL     OW75713   1.108   7.497   1.737 -0.2050 -0.3786 -0.1234
24392SOL    HW175714   1.126   7.507   1.643 -1.1676  0.0970 -0.2661
24392SOL    HW275715   1.060   7.415   1.743 -0.9329  0.0337 -0.1695
24393SOL     OW75716   3.783   0.313  10.202 -0.2464 -0.5452  0.0181
24393SOL    HW175717   3.768   0.335  10.110  0.5487  1.3432  0.3155
24393SOL    HW275718   3.855   0.249  10.200 -1.5218 -1.9798 -0.7743
24394SOL     OW75719   7.139   7.948   9.141  0.4107  0.1775 -0.2285
24394SOL    HW175720   7.162   7.856   9.132  1.9344  0.5142  0.1151
24394SOL    HW275721   7.182   7.975   9.222 -0.1918  1.1357 -0.2292
24395SOL     OW75722   9.405  10.078   9.330  0.0851  0.0724 -0.0305
24395SOL    HW175723   9.326  10.121   9.363 -0.1827 -0.6233  0.2229
24395SOL    HW275724   9.388  10.065   9.237  1.1846  2.8297 -0.6872
24396SOL     OW75725  10.188   4.499   5.763 -0.8330  0.1629  0.0488
24396SOL    HW175726  10.101   4.465   5.741 -0.5697 -1.3404  1.2963
24396SOL    HW275727  10.201   4.474   5.854  1.1508 -0.1037 -0.2984
24397SOL     OW75728   3.918   4.509   7.478 -0.3341 -0.3163 -0.1466
24397SOL    HW175729   3.903   4.604   7.483  0.9043 -0.1556  0.7497
24397SOL    HW275730   3.903   4.478   7.567 -0.4975 -0.9217 -0.3892
24398SOL     OW75731   0.629   2.725   8.434 -0.2593  0.2950 -0.6717
24398SOL    HW175732   0.575   2.647   8.419 -0.9597  0.8039 -0.7906
24398SOL    HW275733   0.696   2.696   8.496 -1.2910 -0.0570  0.2837
24399SOL     OW75734   4.354   5.346   1.978 -0.4625 -0.5457 -0.1937
24399SOL    HW175735   4.320   5.271   1.929 -1.1538 -0.1571 -0.3195
24399SOL    HW275736   4.426   5.310   2.030 -1.7252 -1.6224  0.8662
24400SOL     OW75737   8.221   4.592   6.749 -0.6006  0.1019 -0.5417
24400SOL    HW175738   8.222   4.642   6.831  0.1188  1.1242 -1.1508
24400SOL    HW275739   8.309   4.556   6.742 -0.3141  0.9238 -1.3855
24401SOL     OW75740   0.320   1.109   8.161  0.0598 -0.1418  0.0840
24401SOL    HW175741   0.228   1.094   8.182 -0.4430  0.7913 -1.3362
24401SOL    HW275742   0.338   1.049   8.089  0.4264 -0.0037  0.0591
24402SOL     OW75743   3.759   9.229   9.942 -0.2835 -0.0349  0.2998
24402SOL    HW175744   3.675   9.228   9.895 -0.4206 -0.4502  0.5473
24402SOL    HW275745   3.785   9.137   9.946 -0.3541 -0.0256  1.1713
24403SOL     OW75746   2.884   5.631   4.476 -0.0494 -0.5233 -0.6197
24403SOL    HW175747   2.961   5.670   4.434 -0.8343 -0.5803 -2.1415
24403SOL    HW275748   2.862   5.556   4.421 -1.3442 -0.3465 -0.3621
24404SOL     OW75749   1.783   0.663   6.741 -0.0287 -0.2462  0.9343
24404SOL    HW175750   1.856   0.714   6.775  0.2206  0.3276 -0.4557
24404SOL    HW275751   1.712   0.677   6.805  0.4514  0.7676  1.2386
24405SOL     OW75752   3.582   0.814   4.297  0.4082 -0.6437 -0.2223
24405SOL    HW175753   3.529   0.829   4.375 -0.3802  0.1216 -0.8985
24405SOL    HW275754   3.639   0.891   4.292 -0.2826 -0.1764 -0.9911
24406SOL     OW75755   1.700   1.174   4.095  0.5764 -0.4184  0.2358
24406SOL    HW175756   1.783   1.168   4.047  0.4151 -0.8373  0.0112
24406SOL    HW275757   1.648   1.237   4.044  0.1131 -1.4505 -0.5712
24407SOL     OW75758   2.848   9.272   9.278 -0.5435 -0.2382  0.4974
24407SOL    HW175759   2.807   9.342   9.228 -0.1710 -0.9039 -0.7712
24407SOL    HW275760   2.781   9.242   9.338 -1.0086  0.5648  0.3829
24408SOL     OW75761   1.861   8.966   1.725 -0.0956 -0.2101 -0.5676
24408SOL    HW175762   1.894   8.908   1.793  0.9110  0.3039 -0.6090
24408SOL    HW275763   1.937   8.983   1.669 -0.8940 -0.5805 -1.7825
24409SOL     OW75764   8.136   8.902   6.364  0.3348 -0.7802 -0.2855
24409SOL    HW175765   8.151   8.862   6.450 -0.7762 -1.4881 -0.4154
24409SOL    HW275766   8.067   8.849   6.325  0.3063  0.0074 -1.3093
24410SOL     OW75767   2.081   5.927   8.848  0.0528 -0.2955 -0.2465
24410SOL    HW175768   2.063   6.021   8.843  2.1339  0.1605  0.1358
24410SOL    HW275769   2.019   5.894   8.913 -1.4651  0.6106 -1.2331
24411SOL     OW75770   1.127   3.752   0.287 -0.6607  0.4645 -0.1374
24411SOL    HW175771   1.161   3.752   0.197 -0.1743  0.1786  0.0406
24411SOL    HW275772   1.204   3.735   0.341 -0.9155  0.8594  0.3496
24412SOL     OW75773   1.958   4.208   3.914 -0.0253 -0.1245 -0.3310
24412SOL    HW175774   1.889   4.265   3.881  1.1471  1.8761  0.5316
24412SOL    HW275775   1.923   4.173   3.996 -0.1503  0.6321 -0.0561
24413SOL     OW75776   8.634   5.108   9.091  0.2619  0.3417 -0.5658
24413SOL    HW175777   8.590   5.120   9.176 -0.9813 -2.0292 -0.8310
24413SOL    HW275778   8.582   5.159   9.030  1.3420  2.3193  0.1204
24414SOL     OW75779   5.998   8.829   7.599 -0.1973 -0.3164 -0.4620
24414SOL    HW175780   5.929   8.881   7.557 -0.3665 -0.6175 -0.5540
24414SOL    HW275781   6.024   8.766   7.532 -0.0029 -0.3635 -0.3423
24415SOL     OW75782   4.116   0.051   7.413 -0.1961  0.3283  0.3045
24415SOL    HW175783   4.184   0.054   7.346 -0.5251  2.1498  0.0166
24415SOL    HW275784   4.060  -0.022   7.387  0.5405  0.0517 -0.5396
24416SOL     OW75785  10.154   7.436   7.215  0.3720 -0.0931 -0.3115
24416SOL    HW175786  10.099   7.445   7.138  0.2715  0.5778 -0.1584
24416SOL    HW275787  10.168   7.341   7.223 -1.9895 -0.3842  0.5380
24417SOL     OW75788   4.534   6.141   3.008 -0.0033 -0.3366 -0.1742
24417SOL    HW175789   4.463   6.096   2.961 -0.6780 -0.4424  0.9447
24417SOL    HW275790   4.507   6.140   3.099 -0.1345  2.5047 -0.1372
24418SOL     OW75791   9.343   8.387   4.837 -0.0668  0.3578  0.1414
24418SOL    HW175792   9.294   8.337   4.772  0.6337  0.2487 -0.3134
24418SOL    HW275793   9.312   8.355   4.921  1.1463 -1.6279 -0.1357
24419SOL     OW75794   4.445   6.795   6.903  0.0795  0.0035  0.3170
24419SOL    HW175795   4.359   6.836   6.911  0.3461  0.4699  0.8310
24419SOL    HW275796   4.433   6.727   6.837 -0.1021  1.6341 -1.3747
24420SOL     OW75797   9.203   4.635   9.614  0.3415 -0.1026 -0.1689
24420SOL    HW175798   9.114   4.601   9.621 -0.5340  1.7268 -1.8155
24420SOL    HW275799   9.228   4.619   9.523  0.4289  2.2507 -0.6108
24421SOL     OW75800   5.746   5.034   2.821 -0.2615  0.2690 -0.0183
24421SOL    HW175801   5.807   5.010   2.891  1.1786 -0.7729 -1.5939
24421SOL    HW275802   5.772   5.123   2.796 -0.1277  0.2561  0.0731
24422SOL     OW75803   3.730   9.447   0.355 -0.2648  0.3556 -0.6751
24422SOL    HW175804   3.680   9.468   0.434 -0.6950 -0.5632 -0.6894
24422SOL    HW275805   3.815   9.417   0.387 -0.0094  1.1316 -0.6154
24423SOL     OW75806   6.707   2.013   6.629 -0.3295  0.5997 -0.4147
24423SOL    HW175807   6.715   2.107   6.642  1.0246  0.3631  0.5666
24423SOL    HW275808   6.613   1.996   6.634 -0.4168  1.5659  1.8132
24424SOL     OW75809   5.993   7.774   8.326 -0.1111 -0.1806  0.6723
24424SOL    HW175810   5.902   7.776   8.298 -0.1805 -2.2865  0.6992
24424SOL    HW275811   6.039   7.727   8.257  0.8248  0.1992  1.0222
24425SOL     OW75812   7.919   0.211   8.714 -0.2952  0.0170 -0.3005
24425SOL    HW175813   7.925   0.199   8.808 -2.4161  1.1113  0.0011
24425SOL    HW275814   7.858   0.143   8.685 -0.0807  0.0363 -0.8016
24426SOL     OW75815   4.591   8.795   8.359 -0.2825 -0.1383  0.3475
24426SOL    HW175816   4.685   8.777   8.360 -0.2510 -0.0134  1.8934
24426SOL    HW275817   4.566   8.793   8.267  1.3715  0.5440 -0.1203
24427SOL     OW75818   7.130   2.917   6.373 -0.4194  0.3321 -0.0413
24427SOL    HW175819   7.169   2.904   6.459 -1.2721 -2.4638 -0.0036
24427SOL    HW275820   7.070   2.991   6.385  0.1690  0.5815  1.5074
24428SOL     OW75821   9.216   2.014   8.164  0.7986  0.5027  0.2417
24428SOL    HW175822   9.216   1.969   8.080 -0.4547  2.7894 -1.0541
24428SOL    HW275823   9.305   2.005   8.197  0.9087 -1.6815 -0.6171
24429SOL     OW75824   8.002   0.139   1.317 -0.2559 -0.0397 -0.0812
24429SOL    HW175825   8.040   0.148   1.404 -1.1335  0.0606  0.2996
24429SOL    HW275826   7.911   0.112   1.333 -0.3632 -0.2358 -0.9676
24430SOL     OW75827   5.428   4.963   6.671  0.3156  0.1478  0.5877
24430SOL    HW175828   5.508   4.945   6.620 -0.1470  0.0214 -0.1001
24430SOL    HW275829   5.357   4.938   6.613 -0.2050 -1.4618  1.8712
24431SOL     OW75830   9.365   1.733   4.624 -0.2662  0.1408  0.3547
24431SOL    HW175831   9.327   1.778   4.548 -0.7713  0.0426  0.5527
24431SOL    HW275832   9.460   1.748   4.615 -0.5464  2.7573  1.3494
24432SOL     OW75833   8.438   5.182   0.393  0.5874 -0.0296  0.3703
24432SOL    HW175834   8.531   5.163   0.407  0.8099  0.1987 -0.7592
24432SOL    HW275835   8.407   5.111   0.337  0.2015  0.1675  0.3306
24433SOL     OW75836   4.438   6.819   5.723  0.3110  0.0027  0.2967
24433SOL    HW175837   4.529   6.790   5.723 -0.1645 -1.5407  0.8969
24433SOL    HW275838   4.431   6.879   5.797  0.5656 -0.7793  0.9521
24434SOL     OW75839   6.729   8.739   0.076 -0.0228  0.2877  0.0592
24434SOL    HW175840   6.719   8.811   0.138 -0.2344  0.7421 -0.5010
24434SOL    HW275841   6.820   8.711   0.087 -0.0590  0.3561  0.5746
24435SOL     OW75842   5.752   1.354   4.073  0.2865  0.3796  0.4114
24435SOL    HW175843   5.763   1.374   4.166  0.2428  0.7810  0.3278
24435SOL    HW275844   5.724   1.436   4.033  1.1051  0.4089 -0.1011
24436SOL     OW75845   0.233   6.303   0.396  0.3435 -0.6601  0.0329
24436SOL    HW175846   0.325   6.319   0.377  0.3014  0.7657  0.9719
24436SOL    HW275847   0.205   6.380   0.446 -1.5992 -0.6120 -1.0805
24437SOL     OW75848   8.074   3.078   0.337 -0.0620  0.3185 -0.0128
24437SOL    HW175849   8.164   3.060   0.365  0.6966  1.3216 -1.7452
24437SOL    HW275850   8.026   2.998   0.358  1.3725 -0.4795  0.2997
24438SOL     OW75851   8.551   6.473   1.592  0.1018  0.0082 -1.0081
24438SOL    HW175852   8.551   6.460   1.498 -0.8927 -0.5885 -0.9287
24438SOL    HW275853   8.467   6.516   1.611 -0.5490 -1.6158 -0.1664
24439SOL     OW75854   2.289   0.383   3.171  0.0765 -0.2065 -0.1626
24439SOL    HW175855   2.214   0.414   3.223 -0.2145  2.1334 -1.9044
24439SOL    HW275856   2.264   0.294   3.146 -0.1384 -1.1067  2.9257
24440SOL     OW75857   7.320   2.054   0.720  0.2007  0.3876  0.2337
24440SOL    HW175858   7.231   2.046   0.684 -0.0097  1.3570  0.5480
24440SOL    HW275859   7.349   2.141   0.695  1.4527 -0.2716 -0.7131
24441SOL     OW75860   0.969   5.561   8.062  0.1053  0.2546  0.0985
24441SOL    HW175861   0.986   5.576   8.155  1.6919 -0.9272  0.0224
24441SOL    HW275862   0.905   5.490   8.061 -1.9239  2.0272  0.3087
24442SOL     OW75863   7.290   5.106   9.806 -0.2632 -0.2834 -0.3388
24442SOL    HW175864   7.247   5.140   9.728 -2.0387  0.2257  0.8522
24442SOL    HW275865   7.219   5.086   9.866  1.1366  0.0633  1.4551
24443SOL     OW75866   5.007   9.578   8.184 -0.0305  0.8721  0.0022
24443SOL    HW175867   5.022   9.491   8.149 -0.2412  0.7123  0.3074
24443SOL    HW275868   4.933   9.613   8.134  1.2362  1.6062 -1.4182
24444SOL     OW75869   0.213   7.381   3.615  0.6996 -0.2719 -0.4374
24444SOL    HW175870   0.179   7.344   3.533  0.4831 -0.5682 -0.2129
24444SOL    HW275871   0.135   7.399   3.667  0.8905 -1.0107  0.1063
24445SOL     OW75872   1.223   9.752   4.778 -0.3025 -0.3582  0.2083
24445SOL    HW175873   1.140   9.720   4.814 -0.7229  0.2938 -0.1734
24445SOL    HW275874   1.231   9.841   4.811  0.2644 -0.4309  0.2698
24446SOL     OW75875   0.161   2.454   6.783 -0.1046 -0.5647  0.5413
24446SOL    HW175876   0.092   2.518   6.802 -0.4808 -0.8748  0.2271
24446SOL    HW275877   0.119   2.369   6.797  0.0244 -0.7688 -0.3000
24447SOL     OW75878   0.021   3.804   0.672 -0.0197  0.7368  0.2340
24447SOL    HW175879  -0.039   3.734   0.646 -1.0327  1.2941  1.0550
24447SOL    HW275880   0.093   3.797   0.609 -0.2567 -0.8312  0.1058
24448SOL     OW75881   8.901   2.133   0.957  0.1801  0.1473 -0.4793
24448SOL    HW175882   8.906   2.165   0.867 -0.9947  0.1551 -0.5552
24448SOL    HW275883   8.833   2.187   0.998 -0.6273 -1.1063 -0.1348
24449SOL     OW75884   7.841   9.425   2.027 -0.2806  0.9645  0.5596
24449SOL    HW175885   7.832   9.381   2.111 -1.6093  0.5390  0.2065
24449SOL    HW275886   7.759   9.406   1.981  0.8742  0.2225 -1.2762
24450SOL     OW75887   1.537   0.997   5.691  0.3157  0.0130 -0.1240
24450SOL    HW175888   1.468   0.933   5.711  1.5740 -1.7806 -1.3767
24450SOL    HW275889   1.520   1.024   5.601  0.6081  0.3925 -0.0677
24451SOL     OW75890   5.506   5.241   0.907 -0.0503  0.4863 -0.1796
24451SOL    HW175891   5.440   5.174   0.925 -1.8782  2.7176  1.7105
24451SOL    HW275892   5.551   5.253   0.990 -0.8672  2.7579 -0.0387
24452SOL     OW75893   6.071   3.627   5.651  0.6122 -0.5372  0.2891
24452SOL    HW175894   6.089   3.721   5.645  1.1874 -0.5202  2.0972
24452SOL    HW275895   6.136   3.587   5.593  1.4407  0.0690  0.7875
24453SOL     OW75896   8.092   4.643   0.677  0.3683 -0.1338 -0.0420
24453SOL    HW175897   8.056   4.555   0.671 -1.5655  0.6730 -0.8370
24453SOL    HW275898   8.161   4.637   0.743 -0.2379 -2.0711  0.4337
24454SOL     OW75899   1.916   6.095   2.825  0.0585  0.5179 -0.0159
24454SOL    HW175900   1.911   6.000   2.838 -0.3626  0.7661  1.6457
24454SOL    HW275901   2.000   6.120   2.863 -1.0251  1.1923  1.9746
24455SOL     OW75902   6.579   6.092   7.074 -0.3450 -0.0390 -0.6836
24455SOL    HW175903   6.600   6.068   6.984  1.9477 -0.8476  0.0316
24455SOL    HW275904   6.627   6.173   7.089 -0.8975  0.2116 -0.2570
24456SOL     OW75905   3.744   4.756   0.147  0.1539 -0.1867 -0.0166
24456SOL    HW175906   3.809   4.696   0.183 -1.3279 -1.5312  0.4958
24456SOL    HW275907   3.742   4.829   0.209  0.3817 -0.6518  0.5427
24457SOL     OW75908   5.036   0.010   1.407  0.6703 -0.1420 -0.7681
24457SOL    HW175909   5.108  -0.054   1.406  0.9852  0.2022 -0.3655
24457SOL    HW275910   5.080   0.095   1.407  0.2953  0.0718  1.0110
24458SOL     OW75911   1.641   2.023   3.851 -0.0086 -0.2528 -0.0705
24458SOL    HW175912   1.588   1.978   3.785  0.8746 -0.9231 -0.3331
24458SOL    HW275913   1.722   1.973   3.855  0.1750  0.1258  1.1189
24459SOL     OW75914   8.702   7.671  10.004 -0.1783 -0.4360 -0.4141
24459SOL    HW175915   8.663   7.734  10.064  1.8320 -0.4377  0.9257
24459SOL    HW275916   8.630   7.648   9.944 -0.8426  3.4558 -1.2371
24460SOL     OW75917   1.855   1.993   8.563 -0.2159 -0.4394  0.0246
24460SOL    HW175918   1.811   2.048   8.499  0.2817  0.9131  0.8115
24460SOL    HW275919   1.871   1.910   8.518 -2.5631 -0.5878 -0.6226
24461SOL     OW75920   0.152   1.411   3.625 -0.3718 -0.5647  0.1156
24461SOL    HW175921   0.224   1.348   3.633 -0.6051 -1.0058 -1.1483
24461SOL    HW275922   0.122   1.425   3.714  2.5028  1.0484  0.9027
24462SOL     OW75923   7.203   8.327   7.963  0.0110 -0.6705 -0.0107
24462SOL    HW175924   7.237   8.370   8.041 -1.1637 -1.9228  1.2043
24462SOL    HW275925   7.108   8.328   7.975 -0.1061 -2.2146 -0.7089
24463SOL     OW75926   2.937   7.731   9.516  0.3199 -0.3398 -0.2507
24463SOL    HW175927   2.977   7.801   9.567 -1.0659  0.1481  0.1848
24463SOL    HW275928   2.843   7.739   9.533  0.0334 -1.5163 -1.1864
24464SOL     OW75929   9.507   7.302   3.227  0.3274  1.3386 -0.7876
24464SOL    HW175930   9.422   7.293   3.183  0.1446 -2.2983  0.0746
24464SOL    HW275931   9.571   7.300   3.156 -0.2319  2.1298 -1.3192
24465SOL     OW75932   1.403   2.155   7.254 -0.2155 -0.0683 -0.2263
24465SOL    HW175933   1.343   2.153   7.328 -0.2243  0.7330 -0.2067
24465SOL    HW275934   1.466   2.224   7.276  0.1504 -0.2560 -0.6765
24466SOL     OW75935   1.328   0.380   8.208  0.4232 -0.3380  0.7917
24466SOL    HW175936   1.244   0.335   8.209  0.0835  0.2922  0.5869
24466SOL    HW275937   1.344   0.404   8.299  1.8958 -3.2601  1.3483
24467SOL     OW75938   9.066   5.511   7.565  0.1599  0.7002 -1.0602
24467SOL    HW175939   9.120   5.458   7.624  0.3715  0.6451 -1.3067
24467SOL    HW275940   9.003   5.554   7.623  0.4697  0.7686 -0.7771
24468SOL     OW75941   4.535   1.485   3.193  0.2918 -0.0347  0.0315
24468SOL    HW175942   4.601   1.457   3.256 -0.1916 -0.0222  0.5487
24468SOL    HW275943   4.481   1.408   3.178 -0.8549  0.5135  1.2269
24469SOL     OW75944   2.258   7.912   5.658  0.0925 -0.2747 -0.1470
24469SOL    HW175945   2.305   7.948   5.734 -2.2339  0.0558  1.1943
24469SOL    HW275946   2.297   7.956   5.583  1.0611  0.9259  1.0256
24470SOL     OW75947   4.045   5.179   0.281 -0.1958 -0.4677 -0.3509
24470SOL    HW175948   4.059   5.084   0.275  2.7143 -0.1098 -0.0369
24470SOL    HW275949   4.107   5.216   0.220 -1.6901  1.2572 -0.8529
24471SOL     OW75950   9.996   8.225   0.810 -0.1279  0.6115 -0.3819
24471SOL    HW175951   9.937   8.295   0.782 -2.0360  0.3142  2.7098
24471SOL    HW275952  10.072   8.271   0.845 -0.5196  1.0943 -0.1599
24472SOL     OW75953   9.965   5.065   6.496  0.3285 -0.1889 -0.1101
24472SOL    HW175954  10.006   5.021   6.570  1.2305  0.9162  0.0674
24472SOL    HW275955   9.874   5.078   6.522  0.6314  0.1490  0.7714
24473SOL     OW75956   0.057   7.098   1.399 -0.4729 -0.2719 -0.1048
24473SOL    HW175957   0.022   7.186   1.413  1.8270  0.4951  1.1611
24473SOL    HW275958   0.082   7.097   1.306 -0.7534  0.3191 -0.1880
24474SOL     OW75959   8.991   0.974   2.339 -0.1004  0.3184 -1.1028
24474SOL    HW175960   9.033   0.927   2.412  0.2309  0.3998 -1.2396
24474SOL    HW275961   8.915   0.920   2.316 -0.4162  0.4845 -0.4545
24475SOL     OW75962   9.539   0.768   9.595 -0.2285  0.2767  0.5720
24475SOL    HW175963   9.583   0.853   9.591 -0.7838  0.6157  1.5038
24475SOL    HW275964   9.455   0.783   9.551 -0.7043  0.4561  1.5323
24476SOL     OW75965   2.011   8.031   6.025  0.2437  0.2291  0.2351
24476SOL    HW175966   2.087   8.089   6.032 -0.0443  0.5687  0.5290
24476SOL    HW275967   2.042   7.958   5.971  1.1789 -0.2881  1.4480
24477SOL     OW75968   3.054   4.777   8.775 -0.5874  0.3123  0.2502
24477SOL    HW175969   3.000   4.854   8.793  1.1625  1.4744  0.6562
24477SOL    HW275970   3.105   4.802   8.698 -0.0902 -0.4907  0.3184
24478SOL     OW75971   7.723   7.581   8.694 -0.5790 -0.0221 -0.1252
24478SOL    HW175972   7.762   7.553   8.612 -1.7984  1.0806 -1.1035
24478SOL    HW275973   7.629   7.564   8.683 -0.5249 -2.1430  1.9744
24479SOL     OW75974   8.263   3.214   1.169 -0.0574 -0.9629 -0.4121
24479SOL    HW175975   8.213   3.173   1.098  0.0486 -1.4338 -0.2202
24479SOL    HW275976   8.263   3.148   1.239 -1.6040  0.1503  0.6792
24480SOL     OW75977   9.357   5.354   5.639 -0.3160  0.1463 -0.1132
24480SOL    HW175978   9.293   5.347   5.710 -0.8462  1.7026 -0.4182
24480SOL    HW275979   9.433   5.395   5.680 -0.9648  1.9184 -0.6274
24481SOL     OW75980   8.765   4.352   9.868  0.3810  0.5386  0.1626
24481SOL    HW175981   8.846   4.377   9.824 -0.3023  0.9801 -0.8655
24481SOL    HW275982   8.793   4.310   9.949  1.6282  0.9894 -0.0301
24482SOL     OW75983   3.432   4.263   3.624  0.0142 -0.1311  0.1126
24482SOL    HW175984   3.517   4.221   3.608 -0.2088 -0.5865  0.1128
24482SOL    HW275985   3.394   4.274   3.537  0.4541  0.8816  0.0444
24483SOL     OW75986   0.678   5.156   8.699  0.2635  0.0229 -0.0292
24483SOL    HW175987   0.633   5.237   8.725  0.3500 -0.8675  3.1763
24483SOL    HW275988   0.771   5.174   8.719  0.1953 -1.0536  1.3613
24484SOL     OW75989   5.017   9.005   5.239  0.1894  0.3499 -0.1261
24484SOL    HW175990   4.983   9.093   5.223 -0.7774 -0.2013 -1.2007
24484SOL    HW275991   4.953   8.947   5.197  1.5092 -0.7902 -0.5993
24485SOL     OW75992   5.806   6.102   2.694 -0.4912 -0.3091  0.1718
24485SOL    HW175993   5.774   6.029   2.641 -0.5255  0.2300 -0.5597
24485SOL    HW275994   5.885   6.132   2.648  0.8665 -1.3617  1.7319
24486SOL     OW75995   0.621   2.999   9.359  0.0997  0.3092 -0.7689
24486SOL    HW175996   0.681   2.942   9.408  0.3505  0.9585 -0.3052
24486SOL    HW275997   0.603   2.952   9.278  0.1506 -0.5172 -0.3049
24487SOL     OW75998   1.402   2.821   9.579  0.2762 -0.0285  0.1270
24487SOL    HW175999   1.357   2.742   9.549  1.3730 -0.9782  0.9209
24487SOL    HW276000   1.334   2.872   9.623 -0.0882 -1.3485  1.1191
24488SOL     OW76001   4.540   7.986   5.669 -0.5029  0.8435 -0.4032
24488SOL    HW176002   4.466   8.037   5.702  0.2059  1.9248 -0.4692
24488SOL    HW276003   4.617   8.035   5.698  0.1925 -0.3616 -0.2022
24489SOL     OW76004   7.419   4.041   2.690  0.1264  0.2649  0.4025
24489SOL    HW176005   7.430   4.134   2.709  0.6087  0.2658  0.1195
24489SOL    HW276006   7.327   4.023   2.709 -0.1908  1.0054 -0.4154
24490SOL     OW76007   3.397   2.137   6.356 -0.1846  0.2829 -0.5097
24490SOL    HW176008   3.330   2.199   6.385 -1.8954 -0.7825 -2.0597
24490SOL    HW276009   3.457   2.190   6.304 -0.6880  0.9596 -0.4146
24491SOL     OW76010   2.368   5.557   6.951 -0.2228 -0.9455 -0.0502
24491SOL    HW176011   2.435   5.563   7.020 -0.1873 -0.6199 -0.1138
24491SOL    HW276012   2.404   5.608   6.879 -0.4877 -0.8723 -0.1284
24492SOL     OW76013   2.234   0.251   9.892  0.1378  0.1126 -0.2143
24492SOL    HW176014   2.250   0.342   9.869  0.9185  0.1200  0.3279
24492SOL    HW276015   2.322   0.212   9.898 -0.2322 -1.0215 -1.8614
24493SOL     OW76016   1.464   2.039  10.133 -0.0696 -0.8765  0.2809
24493SOL    HW176017   1.473   2.106  10.065  2.4322 -1.4543  0.0037
24493SOL    HW276018   1.416   2.083  10.204  1.0328  1.0339 -0.1327
24494SOL     OW76019   4.987   0.545   5.706  0.0944  0.2584  0.9364
24494SOL    HW176020   5.079   0.527   5.689 -0.2466 -0.7921  0.1012
24494SOL    HW276021   4.985   0.580   5.795  1.3846  1.1350  0.6316
24495SOL     OW76022   4.856   0.575   4.584 -0.2285  0.0348 -0.3701
24495SOL    HW176023   4.852   0.500   4.525 -0.5023 -0.3110  0.0919
24495SOL    HW276024   4.946   0.575   4.617  0.3818  1.1243 -1.9540
24496SOL     OW76025   6.406   8.928   7.072  0.7495 -0.0109 -0.0755
24496SOL    HW176026   6.453   8.998   7.116 -0.4923 -0.5647  2.2136
24496SOL    HW276027   6.317   8.934   7.106  0.2008 -1.5934 -1.1759
24497SOL     OW76028   3.003   0.399   7.877 -0.5603  0.4843  0.2427
24497SOL    HW176029   2.946   0.462   7.835 -0.9721 -0.7202 -1.0408
24497SOL    HW276030   2.951   0.366   7.951 -1.3808 -0.2641 -0.6419
24498SOL     OW76031   3.838   8.615   9.821 -0.0949 -0.1074  0.2702
24498SOL    HW176032   3.901   8.677   9.857 -1.1734  2.0353 -1.4187
24498SOL    HW276033   3.853   8.535   9.870  0.8428  1.6864  3.0252
24499SOL     OW76034   2.778   5.687   6.421 -0.0616 -0.1452 -0.4976
24499SOL    HW176035   2.723   5.744   6.366 -0.5257  0.1656  0.2781
24499SOL    HW276036   2.818   5.746   6.485  3.5498  0.1077 -2.8569
24500SOL     OW76037   8.044   6.141   1.252  0.2494 -0.7034  0.0235
24500SOL    HW176038   8.037   6.155   1.347  2.7286  0.4398  0.0691
24500SOL    HW276039   7.979   6.200   1.214  0.3320 -0.0175  0.9419
24501SOL     OW76040   4.660   7.677   5.553  0.2391  0.2870 -0.6031
24501SOL    HW176041   4.711   7.725   5.619 -1.8947 -0.4305  1.6369
24501SOL    HW276042   4.722   7.661   5.482  2.4745  1.5163  1.0103
24502SOL     OW76043   5.398   2.648   4.239  0.1907 -0.1164 -0.4018
24502SOL    HW176044   5.425   2.585   4.306  0.7254  0.1922 -0.3254
24502SOL    HW276045   5.386   2.731   4.287 -0.6154 -0.1815 -0.4811
24503SOL     OW76046   5.694   8.241   3.914 -0.0129  0.5847  0.0686
24503SOL    HW176047   5.664   8.152   3.897  0.8652  0.6113 -1.7746
24503SOL    HW276048   5.749   8.233   3.993  1.2443 -0.7818 -0.9193
24504SOL     OW76049   2.695   6.170   5.704 -0.1946 -0.3205  0.0097
24504SOL    HW176050   2.789   6.153   5.694  0.0197 -0.8458  2.5496
24504SOL    HW276051   2.686   6.208   5.792 -2.4727 -1.3102  0.2533
24505SOL     OW76052   4.530   7.173   3.916  0.3316  0.2493 -0.0065
24505SOL    HW176053   4.513   7.142   3.827  0.3100 -1.9515  0.7420
24505SOL    HW276054   4.597   7.114   3.950 -0.2855  0.5411  1.7541
24506SOL     OW76055   7.777   7.614   2.462 -0.2300 -0.1067  0.5576
24506SOL    HW176056   7.693   7.601   2.417  0.4233  0.6786 -0.9277
24506SOL    HW276057   7.815   7.526   2.468 -0.8614 -0.3783  0.6383
24507SOL     OW76058   1.076   3.758   3.067  0.2222 -0.0722  0.0000
24507SOL    HW176059   1.002   3.719   3.021  0.3305  1.9871 -1.9985
24507SOL    HW276060   1.145   3.692   3.061 -0.2756 -0.4801 -1.3993
24508SOL     OW76061  10.012   7.534   9.168 -0.2692  0.3735  0.5066
24508SOL    HW176062  10.051   7.506   9.250 -0.1777 -0.5247  0.1604
24508SOL    HW276063  10.050   7.476   9.102 -0.8685  0.6318 -0.0750
24509SOL     OW76064   6.612   7.311   8.039  0.3670  0.4772  0.4128
24509SOL    HW176065   6.548   7.240   8.050 -1.2066  1.5676 -1.4778
24509SOL    HW276066   6.689   7.280   8.087 -0.9053 -1.7064  1.1586
24510SOL     OW76067   3.994   9.439   6.689 -0.0951  0.0669 -0.1713
24510SOL    HW176068   4.015   9.509   6.751  1.2322 -0.2730 -0.2260
24510SOL    HW276069   4.079   9.404   6.662 -0.7491 -2.2337  0.6030
24511SOL     OW76070   6.431   6.760   1.197 -0.0654 -0.2091  0.3320
24511SOL    HW176071   6.460   6.846   1.167 -1.3352 -0.0938 -0.6199
24511SOL    HW276072   6.398   6.717   1.118 -1.4223 -0.7475  1.1748
24512SOL     OW76073   0.438   3.251   5.915  0.4059  0.4838  0.1277
24512SOL    HW176074   0.504   3.183   5.903 -0.0539 -0.0574  0.6253
24512SOL    HW276075   0.358   3.212   5.880  0.2750  1.0106 -0.1657
24513SOL     OW76076   9.205   2.033   4.515  0.1583 -0.2792  0.1080
24513SOL    HW176077   9.221   1.956   4.460 -0.5313 -0.7782  0.5924
24513SOL    HW276078   9.120   2.016   4.555 -0.6128  1.3347 -0.7824
24514SOL     OW76079   1.394   6.296   5.875 -0.6336  0.0925  0.0727
24514SOL    HW176080   1.397   6.322   5.967  0.3918 -2.9272  0.9522
24514SOL    HW276081   1.330   6.355   5.835 -0.8051  1.7000  2.6242
24515SOL     OW76082   6.559   7.975   7.895  0.5911  0.0663 -0.1411
24515SOL    HW176083   6.487   7.996   7.955  0.1773 -0.2783 -0.5169
24515SOL    HW276084   6.597   8.061   7.873  0.9868  0.1609  0.9037
24516SOL     OW76085   6.582   3.507   0.203  0.7708 -0.0599 -0.2534
24516SOL    HW176086   6.675   3.501   0.184  0.5697  0.5685 -1.5741
24516SOL    HW276087   6.569   3.598   0.229  0.5193 -0.1401 -0.0949
24517SOL     OW76088   7.542   6.526   9.554 -0.3667 -0.3937 -0.7225
24517SOL    HW176089   7.577   6.572   9.630  1.4391 -0.5860 -1.4119
24517SOL    HW276090   7.536   6.593   9.486 -1.4572 -0.3455 -0.5994
24518SOL     OW76091   7.525   1.340   6.220  0.3320 -0.0133 -0.2527
24518SOL    HW176092   7.550   1.426   6.253 -1.5521  0.8649 -1.0656
24518SOL    HW276093   7.520   1.284   6.298 -1.5647  1.4103  0.6820
24519SOL     OW76094   0.938   9.438   9.683  0.3144  0.2207 -0.2666
24519SOL    HW176095   1.002   9.509   9.676  0.8891 -0.2693  0.0296
24519SOL    HW276096   0.906   9.442   9.773  1.4942 -0.8823  0.2076
24520SOL     OW76097   2.295   1.422   2.587 -0.0198  0.5038 -0.1390
24520SOL    HW176098   2.378   1.375   2.590 -0.2802 -0.2159 -3.0190
24520SOL    HW276099   2.288   1.464   2.673  2.1089 -1.4743  1.0452
24521SOL     OW76100   3.874   0.555   3.072  0.3487  0.3533  0.1997
24521SOL    HW176101   3.918   0.501   3.138  0.3820  3.7312  3.0741
24521SOL    HW276102   3.937   0.562   3.001  0.4153 -3.1802 -0.1777
24522SOL     OW76103   0.452   1.808   5.479 -0.0279  0.2790  0.1264
24522SOL    HW176104   0.525   1.790   5.538 -0.7127 -1.5097  0.4565
24522SOL    HW276105   0.384   1.745   5.505 -1.0021  0.6886 -1.3785
24523SOL     OW76106   7.259   7.816   7.046  0.1887  0.5432 -0.1979
24523SOL    HW176107   7.182   7.774   7.084  1.5660 -0.0753  1.9897
24523SOL    HW276108   7.242   7.909   7.053 -2.2039  0.4642 -3.6598
24524SOL     OW76109   6.723   4.740   7.766 -0.0462 -0.1694  0.2700
24524SOL    HW176110   6.769   4.772   7.845  0.1143  1.5366 -0.4856
24524SOL    HW276111   6.782   4.674   7.729  0.9997  0.7476  0.2719
24525SOL     OW76112   7.730   5.045   6.816 -0.1423 -0.4190 -0.4207
24525SOL    HW176113   7.753   5.124   6.767 -0.5167 -1.2057 -1.9201
24525SOL    HW276114   7.637   5.032   6.798 -0.5629 -0.1215  1.4225
24526SOL     OW76115   7.907   1.368   0.918  0.0313 -0.3989  0.2180
24526SOL    HW176116   7.832   1.309   0.908  0.4782 -0.8968 -0.2403
24526SOL    HW276117   7.882   1.427   0.989 -0.4877 -1.0423  0.5714
24527SOL     OW76118   8.303   3.367   9.992  0.2046 -0.1378 -0.6010
24527SOL    HW176119   8.338   3.332  10.074  1.4170  1.4015 -0.4350
24527SOL    HW276120   8.329   3.303   9.925  2.8905  0.6426 -0.3832
24528SOL     OW76121   9.207  10.123   7.956  0.0814 -0.4297  0.1279
24528SOL    HW176122   9.275  10.087   8.012  0.0196 -2.1111 -0.8447
24528SOL    HW276123   9.193  10.056   7.889 -0.7199  1.0036 -1.1723
24529SOL     OW76124   5.044   8.309   0.309 -0.2210 -0.1171 -0.1055
24529SOL    HW176125   4.994   8.383   0.343  0.1405  0.3127 -0.4963
24529SOL    HW276126   5.103   8.285   0.380  0.3306  0.5907 -0.3120
24530SOL     OW76127   6.967   2.816   5.701 -0.1764 -0.3667 -0.3231
24530SOL    HW176128   6.901   2.884   5.716  0.8336  0.5763 -0.0504
24530SOL    HW276129   7.045   2.849   5.746 -0.0205 -2.2959  0.9041
24531SOL     OW76130   1.461   1.388   1.063  0.3062  0.0132 -0.2872
24531SOL    HW176131   1.401   1.447   1.109  0.7566  0.1055  0.1854
24531SOL    HW276132   1.462   1.309   1.116  0.8604  0.1358 -0.1047
24532SOL     OW76133   8.252   6.794   1.396  0.2369 -0.5535  0.8725
24532SOL    HW176134   8.329   6.788   1.340 -0.2696  0.4682  0.0440
24532SOL    HW276135   8.259   6.880   1.438 -1.1841  0.1676 -0.3238
24533SOL     OW76136   8.124   5.742   6.830 -0.6241  0.0957  0.2589
24533SOL    HW176137   8.174   5.663   6.850 -0.7241  0.2275  1.0423
24533SOL    HW276138   8.058   5.747   6.900  1.1558  2.3986  1.8475
24534SOL     OW76139   0.852   8.230   6.378  0.7086 -0.6047  0.1536
24534SOL    HW176140   0.836   8.300   6.442 -1.0873 -0.1462 -0.7520
24534SOL    HW276141   0.947   8.220   6.376  0.9710  1.5362  0.5913
24535SOL     OW76142   9.362   4.657   7.875  0.7123  0.1894 -0.1215
24535SOL    HW176143   9.322   4.680   7.792  0.4305  0.6492  0.1397
24535SOL    HW276144   9.376   4.562   7.870  0.1496  0.1236 -0.4558
24536SOL     OW76145   5.215   9.813   8.019  0.4821  0.2412 -0.1630
24536SOL    HW176146   5.293   9.852   7.981  1.3818 -0.2540  1.1239
24536SOL    HW276147   5.214   9.845   8.109 -0.7852  0.2310 -0.1709
24537SOL     OW76148   2.507   4.891   0.409  0.0633  0.6705  0.4153
24537SOL    HW176149   2.553   4.967   0.442 -0.4378  0.7330  0.9867
24537SOL    HW276150   2.419   4.923   0.389 -0.5552 -0.0496  1.9369
24538SOL     OW76151   8.704   1.956   5.779  0.0828  0.3400  0.0953
24538SOL    HW176152   8.761   1.885   5.751  2.4614  1.6912  1.3127
24538SOL    HW276153   8.639   1.965   5.709  1.5474 -1.0614 -1.4706
24539SOL     OW76154   8.270   2.817   4.510 -0.0259  0.4453  0.6445
24539SOL    HW176155   8.255   2.911   4.496 -1.1299 -0.0100 -1.3983
24539SOL    HW276156   8.188   2.785   4.547  0.4918  0.3538  1.7252
24540SOL     OW76157   2.148   8.590   8.913  0.3406  0.0802 -0.5143
24540SOL    HW176158   2.066   8.618   8.955  1.2945 -1.9214  2.8541
24540SOL    HW276159   2.216   8.642   8.956  1.2791 -1.4220 -0.1530
24541SOL     OW76160   0.419   7.381   2.991  0.7568  0.1739 -0.1976
24541SOL    HW176161   0.335   7.411   2.956  0.9578  0.6916 -0.2293
24541SOL    HW276162   0.398   7.297   3.033  0.4217 -0.2363 -1.1476
24542SOL     OW76163   7.723   5.649   8.587  0.5273  0.2188  0.2691
24542SOL    HW176164   7.751   5.736   8.557 -0.1615  0.2523 -0.3059
24542SOL    HW276165   7.674   5.613   8.512 -0.2207 -0.1679  0.9357
24543SOL     OW76166   8.594   0.227   7.095 -0.2711 -0.2056 -0.0188
24543SOL    HW176167   8.583   0.320   7.073  0.7898  0.1414  0.8808
24543SOL    HW276168   8.688   0.217   7.110 -0.2807 -1.6042 -0.8721
24544SOL     OW76169   3.441   5.086   8.119  0.5781 -0.1229 -0.2740
24544SOL    HW176170   3.463   5.169   8.161  1.3561 -0.4791  0.0375
24544SOL    HW276171   3.477   5.092   8.031 -2.6075  1.3355 -1.5500
24545SOL     OW76172   2.468   4.873   4.570  0.6762  0.5689 -0.0622
24545SOL    HW176173   2.382   4.909   4.551  1.0976  0.8881 -1.4595
24545SOL    HW276174   2.459   4.779   4.551  0.3595  0.4105  0.8266
24546SOL     OW76175   5.433   4.235   0.160 -0.5115  0.1305  0.4624
24546SOL    HW176176   5.490   4.205   0.231  0.2533 -1.0971 -0.6359
24546SOL    HW276177   5.483   4.217   0.080 -1.1659  1.9147 -0.3789
24547SOL     OW76178   0.002   8.232   0.579 -0.1037  0.2716 -0.1997
24547SOL    HW176179  -0.006   8.254   0.671 -1.1249  0.4738 -0.3285
24547SOL    HW276180  -0.076   8.180   0.560  0.6242 -0.6533 -0.6967
24548SOL     OW76181   1.889   9.154   4.605 -0.0862 -0.1741 -0.1671
24548SOL    HW176182   1.975   9.151   4.563  0.9872  0.0725  1.9635
24548SOL    HW276183   1.876   9.245   4.629 -0.5191 -0.3695  0.3640
24549SOL     OW76184   3.280   0.442   5.461  0.3049 -0.2480  0.3859
24549SOL    HW176185   3.364   0.487   5.454 -0.8123  2.0183  1.0893
24549SOL    HW276186   3.228   0.477   5.388  0.1257 -2.0498 -0.3818
24550SOL     OW76187   9.997   5.956   6.460 -0.5486 -1.0513 -0.1983
24550SOL    HW176188  10.041   5.896   6.400 -0.9924 -0.0163 -1.5974
24550SOL    HW276189  10.040   5.942   6.544  0.0175 -2.6093 -0.7230
24551SOL     OW76190   0.706   1.002   5.563 -0.6500 -0.1809  0.2158
24551SOL    HW176191   0.683   1.073   5.623  0.8968  0.2389  0.3521
24551SOL    HW276192   0.763   1.044   5.498 -1.1169 -0.9435 -0.6866
24552SOL     OW76193   1.551   3.097   7.336  0.5982  0.3377  0.0302
24552SOL    HW176194   1.637   3.130   7.312  0.9042  0.0535  0.7323
24552SOL    HW276195   1.547   3.010   7.295  0.6113  0.3825 -0.0673
24553SOL     OW76196   6.989   1.997   2.441 -0.0273 -0.5923  0.2032
24553SOL    HW176197   6.937   2.076   2.422  0.6776 -0.4823 -1.3462
24553SOL    HW276198   7.047   1.989   2.366 -1.0768 -3.4081 -0.3524
24554SOL     OW76199   8.636   0.339   2.977  0.0138  0.2203 -0.5011
24554SOL    HW176200   8.671   0.251   2.989 -0.1537  0.4132  1.4784
24554SOL    HW276201   8.553   0.339   3.024 -0.8625  0.9154 -1.9899
24555SOL     OW76202   7.139   5.915   2.724 -0.5497  0.2799  0.3513
24555SOL    HW176203   7.231   5.897   2.706 -0.6112 -0.6401  0.8933
24555SOL    HW276204   7.131   5.907   2.819 -1.0575  1.0204  0.3821
24556SOL     OW76205   0.139   4.847   3.214  0.0256  0.0880  0.0205
24556SOL    HW176206   0.211   4.909   3.202  0.2828 -0.2009  0.0479
24556SOL    HW276207   0.060   4.901   3.217  0.4581  0.6359  2.5953
24557SOL     OW76208   0.387   3.554   3.657  0.3272  0.0342  0.7309
24557SOL    HW176209   0.353   3.630   3.609  1.2555  1.1435  1.8372
24557SOL    HW276210   0.311   3.495   3.664 -0.2991  0.6737 -0.4461
24558SOL     OW76211   8.739   7.727   4.516 -0.2076  0.0238 -0.4571
24558SOL    HW176212   8.663   7.776   4.485 -0.0834  1.0890  0.8884
24558SOL    HW276213   8.803   7.734   4.445 -0.5916  0.8930 -0.7182
24559SOL     OW76214   8.758   8.146   6.407  0.1184 -0.0447  0.4812
24559SOL    HW176215   8.725   8.235   6.415  0.5358  0.2453 -1.0023
24559SOL    HW276216   8.785   8.123   6.496  1.2864  1.7928  0.6271
24560SOL     OW76217   3.834   6.794   7.978  0.5921 -0.1278  0.2390
24560SOL    HW176218   3.878   6.820   8.058  2.3345  0.3562 -0.8450
24560SOL    HW276219   3.882   6.716   7.948  0.9282  0.5745 -1.1078
24561SOL     OW76220   9.940   2.432   5.794 -0.9407 -0.1523  0.6955
24561SOL    HW176221   9.898   2.380   5.863 -1.9200 -0.1669  0.0959
24561SOL    HW276222   9.926   2.381   5.714  3.0679 -1.8275  0.9128
24562SOL     OW76223   9.629   5.142   5.135  0.0076  0.1294  0.4113
24562SOL    HW176224   9.602   5.216   5.081 -0.7944 -0.5834 -0.1979
24562SOL    HW276225   9.644   5.179   5.222 -0.4103  1.0015  0.1149
24563SOL     OW76226   6.565   9.581   8.162  0.1796  0.2195  0.4635
24563SOL    HW176227   6.567   9.532   8.080 -0.0206  1.1648 -0.1130
24563SOL    HW276228   6.604   9.666   8.140 -0.7245  0.8071  1.1307
24564SOL     OW76229   5.055   5.502   5.870  0.7874 -0.3863 -0.2121
24564SOL    HW176230   5.070   5.577   5.811  0.8013 -0.7157 -0.6275
24564SOL    HW276231   5.119   5.513   5.940 -1.0204  1.5433  1.2285
24565SOL     OW76232  10.009   7.263   3.450  0.4240 -0.4356 -0.2641
24565SOL    HW176233   9.940   7.313   3.494 -0.9865 -0.6638 -2.1270
24565SOL    HW276234  10.035   7.319   3.377  0.2354 -1.5466 -1.1945
24566SOL     OW76235   8.531   0.283   1.605 -0.2025  0.2606 -0.5049
24566SOL    HW176236   8.530   0.195   1.643  0.7607  0.4970  0.0949
24566SOL    HW276237   8.623   0.309   1.608 -0.4046  1.0631 -1.2134
24567SOL     OW76238   0.125   4.307   7.457 -0.2160  0.1529 -0.3252
24567SOL    HW176239   0.075   4.283   7.535  0.4986  0.8848  0.3573
24567SOL    HW276240   0.117   4.402   7.452 -0.6517  0.0618 -1.4133
24568SOL     OW76241   1.512   4.221   9.652  0.2697  0.3535 -0.1661
24568SOL    HW176242   1.509   4.157   9.581 -1.6883  0.9692 -0.6782
24568SOL    HW276243   1.426   4.264   9.649  0.8727  1.7185  1.3483
24569SOL     OW76244   8.040  10.194   7.851 -0.1604  0.5386  0.1671
24569SOL    HW176245   7.946  10.189   7.838 -0.2778  0.8992  0.8653
24569SOL    HW276246   8.075  10.221   7.766 -0.5837 -0.6608 -0.3971
24570SOL     OW76247   8.053   2.977   2.512  0.2552 -0.3677 -0.5037
24570SOL    HW176248   8.020   3.062   2.540 -0.6717 -0.1421 -2.2040
24570SOL    HW276249   7.996   2.913   2.555  1.0501 -0.1517  0.9000
24571SOL     OW76250   1.272   7.225   3.563 -0.5916 -0.1011  0.3805
24571SOL    HW176251   1.202   7.277   3.526 -1.3876 -0.5612  1.2180
24571SOL    HW276252   1.350   7.280   3.555 -0.7464 -0.1867 -1.9124
24572SOL     OW76253   9.158   9.349   7.010 -0.5469 -0.0292  0.0915
24572SOL    HW176254   9.070   9.379   7.034 -0.4862 -0.7358  1.2585
24572SOL    HW276255   9.169   9.375   6.919 -2.2263 -0.5311 -0.2643
24573SOL     OW76256   9.507   6.712   4.855  0.4497 -0.0117 -0.5252
24573SOL    HW176257   9.431   6.754   4.816  1.7187 -0.4454 -3.6154
24573SOL    HW276258   9.486   6.619   4.855  0.6583 -0.0591 -0.6099
24574SOL     OW76259   5.415   7.756   6.546  0.0943  0.0549 -0.9592
24574SOL    HW176260   5.375   7.673   6.519 -1.2905  0.0190  1.0962
24574SOL    HW276261   5.395   7.816   6.474 -1.4439 -0.6294 -1.1232
24575SOL     OW76262   9.675  10.183   1.836  0.3596  0.1757  0.1146
24575SOL    HW176263   9.594  10.182   1.785  0.4016 -0.3269  0.0575
24575SOL    HW276264   9.734  10.125   1.789  0.5875  0.1515  0.4290
24576SOL     OW76265   9.691   2.888  10.166  0.4709 -0.3500  0.1168
24576SOL    HW176266   9.736   2.874  10.249 -0.3637 -0.0116  0.6431
24576SOL    HW276267   9.603   2.917  10.191  0.0083 -0.8428 -0.8773
24577SOL     OW76268   2.581   9.845   7.273 -0.3654 -0.1470  0.1386
24577SOL    HW176269   2.677   9.840   7.269 -0.3593 -1.8021  1.7324
24577SOL    HW276270   2.562   9.937   7.291  0.9749 -0.0779  1.2419
24578SOL     OW76271   3.908   5.001   9.820  0.0549 -0.4486  0.8475
24578SOL    HW176272   3.825   5.010   9.773 -1.1678 -1.2755  2.8190
24578SOL    HW276273   3.915   5.080   9.873  0.2657 -0.6500  1.1180
24579SOL     OW76274   5.793   9.652   8.272 -0.0075 -0.0163  0.3658
24579SOL    HW176275   5.866   9.652   8.211 -0.6471  0.8551 -0.4216
24579SOL    HW276276   5.784   9.743   8.299  0.6288 -0.4858  2.2133
24580SOL     OW76277   3.915   6.496   0.126 -0.1102  0.1895  0.4567
24580SOL    HW176278   3.889   6.572   0.074  0.5839  1.0419  1.3336
24580SOL    HW276279   3.921   6.529   0.215  0.4354 -0.8467  0.8111
24581SOL     OW76280   8.625   9.911   3.777  0.5762 -0.2992 -0.1354
24581SOL    HW176281   8.662   9.843   3.720  2.8340  0.0136  0.9064
24581SOL    HW276282   8.697   9.973   3.790 -1.0240  1.5316  0.1226
24582SOL     OW76283   0.919   4.719   5.522  0.2552 -0.3581  0.0363
24582SOL    HW176284   0.888   4.629   5.511 -2.5552  0.7800 -1.9445
24582SOL    HW276285   0.890   4.744   5.609 -3.5164  0.2727 -1.3221
24583SOL     OW76286   9.267   6.775   4.726 -0.3318  0.6996 -0.0232
24583SOL    HW176287   9.294   6.865   4.745 -0.7275  0.9147 -0.4480
24583SOL    HW276288   9.175   6.783   4.702  0.0464  0.4211 -1.6837
24584SOL     OW76289   8.960   6.531   7.760  0.2861  0.1957  0.4005
24584SOL    HW176290   8.885   6.566   7.711  0.2126 -2.0556 -1.1634
24584SOL    HW276291   8.929   6.527   7.851 -1.3777 -0.3196 -0.1597
24585SOL     OW76292   7.452   6.717   5.943  0.2985 -0.2075  0.1343
24585SOL    HW176293   7.519   6.666   5.988  1.3568 -0.6555 -1.8945
24585SOL    HW276294   7.394   6.748   6.013  2.8040  0.4891  1.9675
24586SOL     OW76295  10.072   9.807   9.735  0.3879 -0.1982  0.0549
24586SOL    HW176296  10.046   9.753   9.810 -1.8727  0.9773  0.1501
24586SOL    HW276297  10.056   9.751   9.659 -0.4603 -0.2243  0.2457
24587SOL     OW76298  10.106   9.237   3.460 -0.3064 -0.4545 -0.4629
24587SOL    HW176299  10.174   9.259   3.396  0.2410  0.4823  0.4403
24587SOL    HW276300  10.092   9.318   3.509 -0.7358 -1.1727  0.5992
24588SOL     OW76301   9.528   5.205   6.344 -0.2660 -0.3488 -0.0113
24588SOL    HW176302   9.590   5.255   6.396  1.2264 -1.2586 -0.8860
24588SOL    HW276303   9.527   5.118   6.383  0.5215 -0.9068 -1.2142
24589SOL     OW76304   1.930   0.583   2.700  0.1572  0.0063 -0.1532
24589SOL    HW176305   1.982   0.530   2.761 -0.6007  0.3045  0.7755
24589SOL    HW276306   1.894   0.520   2.638 -1.5779 -0.7449  1.5520
24590SOL     OW76307   6.284   2.209  10.112 -0.2627  0.0998 -0.2551
24590SOL    HW176308   6.243   2.125  10.093 -2.3176  0.5327  2.0849
24590SOL    HW276309   6.213   2.264  10.146  1.4522  2.1510  0.1295
24591SOL     OW76310   8.173   8.491   4.616  0.2570  0.1564  0.2723
24591SOL    HW176311   8.141   8.559   4.675  1.6071  0.0726  1.1176
24591SOL    HW276312   8.202   8.539   4.539 -1.7479  0.2435 -0.4724
24592SOL     OW76313   6.978   8.619   0.095 -0.3893  0.0437  0.4736
24592SOL    HW176314   6.957   8.554   0.162 -0.6715 -0.2449  0.1073
24592SOL    HW276315   7.060   8.588   0.057 -0.4484 -0.0151  0.3962
24593SOL     OW76316   1.384   3.336   6.533  0.2334 -0.2814 -0.1105
24593SOL    HW176317   1.467   3.379   6.509  0.1580 -0.2313 -0.2804
24593SOL    HW276318   1.361   3.284   6.456  1.0980 -1.8118  0.6506
24594SOL     OW76319   2.832   5.130   5.987  0.0214 -0.0226  0.1014
24594SOL    HW176320   2.748   5.112   6.030 -0.9251  1.2791 -1.1194
24594SOL    HW276321   2.807   5.166   5.901  1.8399 -1.6209 -1.1430
24595SOL     OW76322   2.008   8.021   6.935  0.1110  0.0393  0.2954
24595SOL    HW176323   1.944   8.081   6.898  0.0048 -0.7246 -0.7791
24595SOL    HW276324   2.085   8.076   6.953 -0.6402  0.8468  1.0725
24596SOL     OW76325   9.547   2.822   7.033  0.3287 -0.4834 -0.6181
24596SOL    HW176326   9.622   2.824   6.973 -0.5018  1.8704 -1.6363
24596SOL    HW276327   9.486   2.887   6.997 -1.0681 -0.4920  1.6716
24597SOL     OW76328   5.389   3.809   3.903 -0.1036 -0.4465 -0.0986
24597SOL    HW176329   5.450   3.811   3.829  1.7745 -0.3753  1.4047
24597SOL    HW276330   5.350   3.722   3.899  1.6024 -1.2474  0.0761
24598SOL     OW76331   2.289  10.201   6.643 -0.1967  0.3946 -0.7498
24598SOL    HW176332   2.336  10.157   6.713 -0.1409 -0.3692 -1.2652
24598SOL    HW276333   2.310  10.151   6.564 -1.2562  0.4954 -1.1076
24599SOL     OW76334   1.535   7.054   3.010  0.6057  0.0566  0.3153
24599SOL    HW176335   1.581   7.076   2.929 -1.1027  0.5446 -0.5465
24599SOL    HW276336   1.489   7.134   3.034 -0.8154 -0.7790  0.4466
24600SOL     OW76337   3.670   4.940   0.375 -0.6953  0.1589 -0.0972
24600SOL    HW176338   3.590   4.888   0.370 -0.2944 -0.3951 -0.8768
24600SOL    HW276339   3.704   4.924   0.463 -0.8190 -0.5485 -0.1749
24601SOL     OW76340   5.031   0.936   1.049  0.3789 -0.2290  0.1683
24601SOL    HW176341   5.037   0.971   0.959  2.1189  0.3832  0.5057
24601SOL    HW276342   5.028   0.841   1.037  1.5160 -0.1907 -0.5095
24602SOL     OW76343   5.459   6.724   0.593 -0.1703  0.5425  0.4115
24602SOL    HW176344   5.489   6.665   0.523 -1.7721 -0.1321  0.2732
24602SOL    HW276345   5.395   6.781   0.551 -2.1901 -0.7749  1.5807
24603SOL     OW76346   8.113  10.013   9.671  0.0740 -0.7146  0.0457
24603SOL    HW176347   8.022   9.986   9.679 -0.1285  0.1592  0.8854
24603SOL    HW276348   8.145  10.016   9.761 -0.0926  2.3135  0.0620
24604SOL     OW76349   5.245   0.171   4.024  0.4752  0.7124  0.2294
24604SOL    HW176350   5.246   0.110   3.950 -1.5795 -2.7655  2.9108
24604SOL    HW276351   5.299   0.128   4.091  0.6706  2.8440  1.4813
24605SOL     OW76352   1.074   6.413   9.445 -0.1051  0.8488  0.0656
24605SOL    HW176353   1.025   6.468   9.506  1.8590  2.9419 -0.2064
24605SOL    HW276354   1.068   6.458   9.361  0.2779 -0.1246 -0.4973
24606SOL     OW76355   6.674   4.455   0.953 -0.6759 -0.4294 -0.0929
24606SOL    HW176356   6.761   4.436   0.916 -0.7696 -0.8713 -0.0830
24606SOL    HW276357   6.614   4.401   0.901 -0.7846 -1.2041  0.8341
24607SOL     OW76358   4.107   8.836   8.603 -0.2839 -0.4131 -0.3479
24607SOL    HW176359   4.185   8.781   8.591 -1.0306 -1.8688  1.1008
24607SOL    HW276360   4.044   8.777   8.645 -0.9683  1.6884  1.6646
24608SOL     OW76361   4.218   1.086   7.401  0.2431  0.1529 -0.7991
24608SOL    HW176362   4.290   1.023   7.408  1.4934  1.6179 -0.2295
24608SOL    HW276363   4.214   1.128   7.487 -2.0382 -0.6839 -0.4560
24609SOL     OW76364   5.627   5.541   6.500 -0.3488 -0.2335  0.5402
24609SOL    HW176365   5.630   5.447   6.480  1.8614 -0.1550  0.2926
24609SOL    HW276366   5.686   5.550   6.575  0.7791  1.1848 -0.5040
24610SOL     OW76367   2.552   7.381   9.413 -0.9514  0.3984  0.4519
24610SOL    HW176368   2.641   7.357   9.440 -1.0113 -0.7971 -0.3570
24610SOL    HW276369   2.513   7.423   9.490 -0.2877 -0.6838  1.3792
24611SOL     OW76370   0.015   6.196   3.028  0.4596  0.1998 -0.2073
24611SOL    HW176371   0.005   6.216   2.935 -0.4397  1.0207  0.0547
24611SOL    HW276372   0.102   6.156   3.036  0.1580 -0.7543 -1.5452
24612SOL     OW76373   9.431   9.299   3.756 -0.4448  0.4473  0.3518
24612SOL    HW176374   9.490   9.301   3.832  0.0503  2.4003 -0.0545
24612SOL    HW276375   9.344   9.309   3.793 -0.1019  2.8483  0.6045
24613SOL     OW76376   3.089   2.868   5.131  0.1849  0.5782  0.8410
24613SOL    HW176377   3.074   2.939   5.068 -0.3126  0.2458  0.5844
24613SOL    HW276378   3.033   2.889   5.205 -3.1097 -1.6690 -0.8985
24614SOL     OW76379   3.626   0.480   6.066  0.4763  0.0735 -0.0018
24614SOL    HW176380   3.698   0.538   6.094  0.3467 -0.4167  1.3995
24614SOL    HW276381   3.616   0.419   6.139 -0.3930 -0.7776 -0.8368
24615SOL     OW76382   4.690   8.232   4.654  0.6881  0.2258  0.1943
24615SOL    HW176383   4.643   8.300   4.701  1.5877  1.1050 -0.1543
24615SOL    HW276384   4.737   8.278   4.584  4.0308 -0.2489  2.0183
24616SOL     OW76385   7.694   8.822   6.539  0.1643  0.7258  0.2389
24616SOL    HW176386   7.677   8.913   6.563  2.0827  1.0164  0.6104
24616SOL    HW276387   7.630   8.771   6.589  0.3266  1.7365  1.4908
24617SOL     OW76388   9.169   3.139   8.257  0.3332  0.5379 -0.0472
24617SOL    HW176389   9.185   3.148   8.163 -0.0908  1.1529 -0.0633
24617SOL    HW276390   9.193   3.049   8.277 -2.2877 -0.4843 -1.3023
24618SOL     OW76391   7.287   9.064   9.192  0.5711  0.3085  0.5097
24618SOL    HW176392   7.381   9.052   9.176  0.3427 -0.4607 -0.2643
24618SOL    HW276393   7.263   8.991   9.249 -0.1520 -1.1612 -1.6273
24619SOL     OW76394   8.139   8.326   7.556  0.1812  0.4552 -0.2581
24619SOL    HW176395   8.223   8.325   7.601 -0.2766 -1.7380  0.6026
24619SOL    HW276396   8.150   8.390   7.485  2.9381 -0.6795 -0.9047
24620SOL     OW76397   1.799   0.950   2.874  0.1143  0.1751  0.0430
24620SOL    HW176398   1.797   0.925   2.782  1.8102 -2.1702  0.5973
24620SOL    HW276399   1.869   1.015   2.880 -0.0274  0.3626 -0.3111
24621SOL     OW76400   0.553   5.082   7.916 -0.3363 -0.1584  0.0201
24621SOL    HW176401   0.541   5.000   7.964 -1.6911  0.8474  1.3886
24621SOL    HW276402   0.641   5.111   7.940  0.1848 -1.2421 -0.5396
24622SOL     OW76403   6.559   7.167   2.645  0.1896  0.1300  0.2671
24622SOL    HW176404   6.623   7.116   2.595 -0.3946  0.7976 -1.1862
24622SOL    HW276405   6.481   7.112   2.646 -0.3545  0.8556 -1.0691
24623SOL     OW76406   5.837   1.989   0.275  0.2268  0.0360 -0.4002
24623SOL    HW176407   5.803   1.941   0.350  1.2935 -0.3489 -0.1515
24623SOL    HW276408   5.760   2.022   0.230 -0.4075  1.7993  1.8740
24624SOL     OW76409   9.834   0.310   6.550 -0.4140 -0.2704 -0.1085
24624SOL    HW176410   9.751   0.351   6.528 -1.0675 -1.2861  0.4664
24624SOL    HW276411   9.811   0.226   6.590  0.8315  0.4034  2.0996
24625SOL     OW76412   1.796   0.818   9.933  0.3361 -0.1117 -0.0572
24625SOL    HW176413   1.751   0.875   9.995 -0.5645 -0.9568  0.0716
24625SOL    HW276414   1.842   0.878   9.874  0.8632  0.7002  1.1715
24626SOL     OW76415   3.218   5.485   1.048  0.0640 -0.1331 -0.5504
24626SOL    HW176416   3.154   5.414   1.056  0.5766 -0.4832  0.4851
24626SOL    HW276417   3.303   5.444   1.062  0.2527  0.9312  1.6051
24627SOL     OW76418   1.460   6.739   5.921 -0.0692  0.0842  0.5858
24627SOL    HW176419   1.486   6.830   5.911 -0.8909  0.2995  0.3622
24627SOL    HW276420   1.542   6.692   5.935  0.6238  0.5440 -1.6401
24628SOL     OW76421   9.692   3.781   2.418  0.0147  0.8003 -0.5494
24628SOL    HW176422   9.749   3.709   2.444 -1.7156 -0.3634  0.1381
24628SOL    HW276423   9.617   3.775   2.477 -1.0989  1.9224 -1.8134
24629SOL     OW76424   3.350   1.253   6.225 -0.0761 -0.3237  0.6969
24629SOL    HW176425   3.436   1.254   6.267  0.6142  0.9589 -0.7418
24629SOL    HW276426   3.367   1.272   6.133 -1.8177 -0.8721  0.2391
24630SOL     OW76427   9.956   4.201   3.962 -0.0049 -0.3365  0.9280
24630SOL    HW176428   9.866   4.235   3.962  0.0837 -0.1081  0.8345
24630SOL    HW276429  10.010   4.275   3.937  0.1145 -0.7277  0.0095
24631SOL     OW76430   9.265   0.102   1.522  0.0379  0.4860  0.3705
24631SOL    HW176431   9.272   0.198   1.526 -2.6327  0.7165  0.5175
24631SOL    HW276432   9.193   0.081   1.581 -0.3738 -1.4941 -0.8044
24632SOL     OW76433   2.714   6.993   7.186 -0.4556 -0.7678 -0.1196
24632SOL    HW176434   2.772   7.029   7.253  1.6757 -2.7679 -0.8106
24632SOL    HW276435   2.653   6.937   7.235 -1.6713  1.1526  0.5849
24633SOL     OW76436   9.714   0.448   7.668  0.0747 -0.1697  0.3624
24633SOL    HW176437   9.741   0.511   7.601  2.8072  0.3726  1.9031
24633SOL    HW276438   9.625   0.475   7.690 -0.6043  0.1235 -2.4494
24634SOL     OW76439   7.985   3.574   2.765 -0.3811  0.0318 -0.2714
24634SOL    HW176440   7.975   3.569   2.670 -0.5544  1.3385 -0.3345
24634SOL    HW276441   7.898   3.559   2.800 -0.6140  1.0527 -0.3926
24635SOL     OW76442   5.723   0.155  10.120  1.1605  0.7393 -0.3700
24635SOL    HW176443   5.711   0.240  10.078  0.0644  0.2808 -0.9778
24635SOL    HW276444   5.660   0.155  10.193 -0.3853 -0.4152 -1.6850
24636SOL     OW76445   0.997   6.447   0.781  1.1897 -0.5647 -0.2681
24636SOL    HW176446   1.056   6.514   0.814  1.1517 -0.8653  0.4117
24636SOL    HW276447   0.978   6.474   0.691  1.4607  0.1378 -0.1163
24637SOL     OW76448   4.471   5.739   6.447 -0.3832 -0.0075 -0.5275
24637SOL    HW176449   4.481   5.826   6.486  0.8895 -0.7006  0.7803
24637SOL    HW276450   4.550   5.692   6.476 -2.1661 -2.3023  0.7228
24638SOL     OW76451   2.728   8.616   3.908 -0.8381  0.1498  0.2960
24638SOL    HW176452   2.710   8.710   3.909  0.2401  0.3692  0.8745
24638SOL    HW276453   2.677   8.581   3.981 -0.1808  0.5188  0.9496
24639SOL     OW76454   6.367   0.751   5.458 -0.4837 -0.1951  0.4221
24639SOL    HW176455   6.389   0.695   5.533 -0.9447 -0.1856  0.5633
24639SOL    HW276456   6.277   0.779   5.474 -1.2089 -1.6219 -1.0248
24640SOL     OW76457   2.880   3.774   6.229 -0.0341  0.0414 -0.4680
24640SOL    HW176458   2.926   3.801   6.309  0.9066 -0.9610 -0.6597
24640SOL    HW276459   2.799   3.734   6.260 -0.1813  0.6484 -0.0673
24641SOL     OW76460   5.482   7.231   2.763 -0.3147  0.2656  0.7238
24641SOL    HW176461   5.531   7.167   2.814  1.6191  0.4435 -0.8447
24641SOL    HW276462   5.473   7.307   2.821  2.1421  0.6016  0.7008
24642SOL     OW76463   0.234   6.785   1.598 -0.7817  0.3676 -0.7207
24642SOL    HW176464   0.220   6.758   1.689  2.6636 -1.0633 -0.5613
24642SOL    HW276465   0.255   6.703   1.552  1.7842  1.6634 -1.9115
24643SOL     OW76466   4.769   6.772   8.686  0.4328  0.4008 -0.1870
24643SOL    HW176467   4.812   6.722   8.617  0.1085 -1.2283  0.7547
24643SOL    HW276468   4.811   6.858   8.684  4.4252 -1.4045  1.3122
24644SOL     OW76469   9.357   4.512   2.203  0.1446 -0.5442 -0.3442
24644SOL    HW176470   9.316   4.543   2.122 -1.9589 -0.7265  0.6193
24644SOL    HW276471   9.412   4.439   2.176 -0.2475 -0.3625 -1.6562
24645SOL     OW76472   9.036   5.263   4.615 -0.1850 -0.7024  0.0742
24645SOL    HW176473   8.994   5.323   4.677  1.6469  0.0558  0.6253
24645SOL    HW276474   9.054   5.184   4.666  2.0181  0.2044  0.7711
24646SOL     OW76475   6.289   4.465   5.246  0.3744  0.0540 -0.0567
24646SOL    HW176476   6.372   4.430   5.211  0.2422  0.6702 -1.0024
24646SOL    HW276477   6.292   4.558   5.225  0.6867  0.6369  2.3806
24647SOL     OW76478   3.204   0.871   5.180 -0.3823 -0.3510 -0.6973
24647SOL    HW176479   3.201   0.884   5.275  0.5088  0.7980 -0.8140
24647SOL    HW276480   3.269   0.802   5.167 -1.2872 -1.2741 -0.4142
24648SOL     OW76481   3.165   0.386   1.074 -0.7999 -0.2158  0.0766
24648SOL    HW176482   3.159   0.476   1.043 -1.1221 -0.0422  0.6320
24648SOL    HW276483   3.137   0.333   1.000 -0.6079  0.1438 -0.2525
24649SOL     OW76484   1.797   5.050   4.645 -0.5850  0.3331  0.2779
24649SOL    HW176485   1.806   5.129   4.697  1.5699  0.5598 -0.3663
24649SOL    HW276486   1.881   5.004   4.657 -1.5660 -1.5385  0.1517
24650SOL     OW76487   7.233   8.389   4.904  0.4161  0.4500  0.2250
24650SOL    HW176488   7.280   8.307   4.889 -0.6944 -0.2528  0.5114
24650SOL    HW276489   7.245   8.439   4.823  0.9667 -0.0574 -0.0092
24651SOL     OW76490   7.879   2.181   8.362 -0.1958  0.3671 -0.3538
24651SOL    HW176491   7.913   2.231   8.288 -1.1293 -0.3391 -1.2791
24651SOL    HW276492   7.794   2.221   8.380  0.1223  0.6735  0.4814
24652SOL     OW76493   3.671   8.158   7.675 -0.6870  0.1555  0.0022
24652SOL    HW176494   3.740   8.120   7.730 -1.6376 -0.4615  0.7956
24652SOL    HW276495   3.646   8.238   7.721 -1.3158 -0.2368  0.3590
24653SOL     OW76496   0.149   5.820   9.437  0.1661 -0.3117 -0.6409
24653SOL    HW176497   0.234   5.853   9.466  0.5809 -0.2282 -1.9129
24653SOL    HW276498   0.085   5.872   9.486  0.8410 -1.0517  1.0478
24654SOL     OW76499   0.106   4.346   0.098 -0.3431  0.0420  0.0427
24654SOL    HW176500   0.140   4.329   0.010  1.1731  0.9055  0.4423
24654SOL    HW276501   0.093   4.259   0.136  0.1935 -0.3133 -0.5739
24655SOL     OW76502   1.843   3.157   3.811 -0.1634 -0.2613  0.1971
24655SOL    HW176503   1.832   3.139   3.904 -0.3698  0.8986  0.4042
24655SOL    HW276504   1.861   3.071   3.772 -0.6058 -0.8319  1.2226
24656SOL     OW76505   7.110   2.800   7.838  0.4733  0.9131 -0.0903
24656SOL    HW176506   7.200   2.771   7.820  0.0934 -1.3673  1.5074
24656SOL    HW276507   7.061   2.776   7.759  0.7584 -0.1031  0.0428
24657SOL     OW76508   2.414   5.500   5.230 -0.3284  1.0139  0.2090
24657SOL    HW176509   2.436   5.409   5.250 -0.4082  1.1342  0.8573
24657SOL    HW276510   2.404   5.502   5.135  1.7330  0.7911 -0.0351
24658SOL     OW76511   1.158   0.241   2.189 -0.2570 -0.3932  0.2634
24658SOL    HW176512   1.094   0.173   2.168  0.3731 -0.4932 -1.4692
24658SOL    HW276513   1.239   0.210   2.149  0.4162  0.6408  0.8057
24659SOL     OW76514   9.437   8.034   7.873  0.2211 -0.3502 -1.0517
24659SOL    HW176515   9.519   7.999   7.906  0.1422 -0.0633 -0.5457
24659SOL    HW276516   9.452   8.045   7.779  0.2013 -1.8801 -1.2600
24660SOL     OW76517   9.326   3.989   0.461 -0.0475 -0.5428 -0.1587
24660SOL    HW176518   9.246   3.965   0.414 -0.0387  0.3952 -0.6682
24660SOL    HW276519   9.382   3.912   0.454 -2.4467 -2.7994  3.7051
24661SOL     OW76520   9.494   3.486   0.098 -0.3719  0.2463 -0.1328
24661SOL    HW176521   9.562   3.553   0.109 -0.2608  0.1367 -0.1459
24661SOL    HW276522   9.443   3.490   0.179 -0.6939  0.7137 -0.3605
24662SOL     OW76523   5.133   6.731   9.714 -0.6007 -0.4904  0.5872
24662SOL    HW176524   5.144   6.667   9.784  1.1280  1.8121  2.4933
24662SOL    HW276525   5.050   6.774   9.734 -0.7051 -0.6637  0.5277
24663SOL     OW76526   4.135   1.996   9.714 -0.0324 -0.3716  0.4963
24663SOL    HW176527   4.184   2.057   9.769 -2.9841  1.1210  1.5932
24663SOL    HW276528   4.154   2.024   9.625 -0.5304  1.5501  0.9595
24664SOL     OW76529   4.355   6.694   1.208 -0.1162  0.0582  0.2124
24664SOL    HW176530   4.323   6.782   1.225 -1.1679 -0.1316 -0.7055
24664SOL    HW276531   4.276   6.641   1.199  0.3787 -0.2729 -2.8966
24665SOL     OW76532   2.812   9.688   7.093  0.3282 -0.2206 -0.2838
24665SOL    HW176533   2.769   9.604   7.075  1.6278 -0.4272 -2.6791
24665SOL    HW276534   2.764   9.751   7.041  0.8167  0.1178 -0.3283
24666SOL     OW76535   6.479   4.458   4.223  0.0070 -0.7070 -0.2989
24666SOL    HW176536   6.409   4.440   4.160  0.0716 -0.1707 -0.5288
24666SOL    HW276537   6.446   4.426   4.306 -0.0885 -1.4083 -0.6056
24667SOL     OW76538   9.612   4.471   4.687 -0.2565 -0.7357  0.1424
24667SOL    HW176539   9.548   4.501   4.751 -0.2836  0.0738 -0.2614
24667SOL    HW276540   9.589   4.379   4.673 -1.0123 -0.5932  0.3883
24668SOL     OW76541   0.075   3.443   2.574 -0.2177  0.2156  0.2774
24668SOL    HW176542   0.079   3.525   2.525  0.5311 -0.4365 -0.7683
24668SOL    HW276543   0.146   3.390   2.537 -0.2470 -0.6372  1.4248
24669SOL     OW76544   5.496   5.339   0.161 -0.2650  0.8942  0.1093
24669SOL    HW176545   5.409   5.374   0.178 -0.8122  0.8121 -2.3623
24669SOL    HW276546   5.555   5.395   0.212 -1.6933  1.3447  1.2895
24670SOL     OW76547   7.418   2.782   2.082  0.1852  0.4664 -0.0585
24670SOL    HW176548   7.350   2.796   2.147  0.2147 -0.0188  0.0745
24670SOL    HW276549   7.498   2.814   2.123  1.0205 -3.7052  1.8281
24671SOL     OW76550   0.767   5.110   9.090 -0.8498  0.0710 -0.1546
24671SOL    HW176551   0.777   5.055   9.012 -2.2166  0.0779 -0.3486
24671SOL    HW276552   0.737   5.194   9.055 -0.2259  0.4692  0.2723
24672SOL     OW76553   5.537   0.990   8.115 -0.3925  0.2006 -0.0579
24672SOL    HW176554   5.592   0.938   8.057 -0.6300  1.0735 -1.0934
24672SOL    HW276555   5.591   1.004   8.193  0.3828  0.0034 -0.5494
24673SOL     OW76556   2.722   7.293   3.461 -0.4029 -0.0375 -0.2712
24673SOL    HW176557   2.733   7.360   3.528  0.2834  0.4854 -0.8973
24673SOL    HW276558   2.789   7.228   3.480 -0.8915 -0.4189  0.1723
24674SOL     OW76559   1.490   7.249   1.429  0.2834 -0.1222  0.1463
24674SOL    HW176560   1.422   7.312   1.453 -0.6453 -0.5501 -1.2696
24674SOL    HW276561   1.495   7.255   1.333  0.1910 -2.1719 -0.0107
24675SOL     OW76562   6.027   6.106   6.460 -0.0583 -0.2745 -0.0585
24675SOL    HW176563   5.960   6.091   6.394  0.5779 -0.1566 -0.7267
24675SOL    HW276564   6.064   6.020   6.478 -1.4528 -0.5851  1.4554
24676SOL     OW76565   6.885   7.203   9.135  0.2917  0.8042 -0.2882
24676SOL    HW176566   6.953   7.245   9.083  0.4345  1.8053  0.6815
24676SOL    HW276567   6.932   7.137   9.187  0.3194  0.5902 -0.5866
24677SOL     OW76568   0.836   0.893   4.551 -0.4927 -0.7964 -0.5475
24677SOL    HW176569   0.866   0.900   4.460  0.9036  1.0816  0.0296
24677SOL    HW276570   0.752   0.938   4.551 -0.5601 -0.9139 -0.9273
24678SOL     OW76571   2.788   0.396   8.051  0.6528  0.0231 -0.6349
24678SOL    HW176572   2.722   0.379   8.119  0.1245  1.3657 -0.8002
24678SOL    HW276573   2.827   0.479   8.076  2.2583 -0.7274 -0.5822
24679SOL     OW76574   0.183   9.277   6.749 -0.0004 -0.1695  0.2801
24679SOL    HW176575   0.251   9.228   6.794 -0.9247  0.4665  2.4252
24679SOL    HW276576   0.180   9.239   6.661  0.8536 -2.3949  1.1821
24680SOL     OW76577   7.775   7.175   0.077  0.1460 -0.1671  0.0681
24680SOL    HW176578   7.756   7.082   0.074 -0.1150 -0.0986 -0.5797
24680SOL    HW276579   7.689   7.217   0.078  0.2541  0.0311  1.9154
24681SOL     OW76580   0.375   9.569   2.545 -0.2111 -0.4811 -0.7376
24681SOL    HW176581   0.385   9.574   2.450 -1.6363  3.4920 -0.7760
24681SOL    HW276582   0.453   9.612   2.580 -1.2284  0.9892 -0.2261
24682SOL     OW76583   6.194   0.536   5.963  0.0531  0.5880  0.1287
24682SOL    HW176584   6.270   0.576   6.005  2.2011 -0.3753 -2.7064
24682SOL    HW276585   6.194   0.445   5.996  0.3945  0.4597 -0.2277
24683SOL     OW76586   6.036   1.040   6.951 -0.1919  0.5119 -0.1274
24683SOL    HW176587   6.078   0.989   6.882  1.1734  1.0821  0.2718
24683SOL    HW276588   5.984   1.105   6.905 -0.5745 -0.1492 -0.6282
24684SOL     OW76589   5.332   2.355   2.178  0.2951  0.5135 -0.6409
24684SOL    HW176590   5.323   2.354   2.083 -0.8338  1.4336 -0.5576
24684SOL    HW276591   5.402   2.419   2.195  0.4498  0.3994 -0.8502
24685SOL     OW76592   8.511  10.132   1.905  0.3570 -0.3821 -0.1095
24685SOL    HW176593   8.507  10.167   1.816 -0.1286  0.1395  0.1122
24685SOL    HW276594   8.464  10.049   1.901 -1.3149  0.5374  0.0660
24686SOL     OW76595   7.005   3.901   1.279 -0.2610  0.7786 -0.7124
24686SOL    HW176596   6.975   3.988   1.304 -0.4822  0.3811  0.4228
24686SOL    HW276597   7.097   3.900   1.305 -0.8351 -0.1053  1.3613
24687SOL     OW76598   3.139   8.943   0.081  0.3032  0.4067 -0.1006
24687SOL    HW176599   3.136   8.981   0.169 -1.3044  1.4598 -0.5792
24687SOL    HW276600   3.124   9.018   0.023 -0.2755 -0.5406 -1.1865
24688SOL     OW76601   6.070   8.942   4.083 -0.1747  0.4496  0.3332
24688SOL    HW176602   5.976   8.959   4.083 -0.3555 -0.5252  1.6143
24688SOL    HW276603   6.079   8.853   4.050  0.5199  1.5522 -2.5980
24689SOL     OW76604   5.766   9.808   8.663 -0.0691  0.0483  0.6270
24689SOL    HW176605   5.794   9.810   8.754  0.9391 -0.9178  0.3503
24689SOL    HW276606   5.804   9.727   8.628 -1.7867 -0.4225 -0.2269
24690SOL     OW76607   0.514   1.447   8.222  0.7089 -0.6892 -0.4148
24690SOL    HW176608   0.569   1.384   8.269  1.2359  1.3253  1.7817
24690SOL    HW276609   0.448   1.473   8.286 -1.6257 -1.5430 -2.3882
24691SOL     OW76610   1.722   3.074   5.810  0.7166 -0.1382 -0.3229
24691SOL    HW176611   1.677   3.100   5.891 -1.2910 -0.3190 -1.3407
24691SOL    HW276612   1.694   2.984   5.795  3.2328 -1.0507  0.1935
24692SOL     OW76613   8.371   5.714   0.104  0.2630  0.4017  0.4750
24692SOL    HW176614   8.330   5.640   0.148  1.4822  0.3351  1.5352
24692SOL    HW276615   8.355   5.789   0.162  2.2245  0.2374  1.2758
24693SOL     OW76616   2.473   4.001   3.871  0.1212  0.3855  0.7066
24693SOL    HW176617   2.497   4.090   3.899  0.3499  0.0459  1.6102
24693SOL    HW276618   2.387   3.987   3.910  0.2237  0.0909  0.8219
24694SOL     OW76619   4.894   6.093   6.089  0.1447 -0.1135 -0.7170
24694SOL    HW176620   4.880   6.033   6.162  0.9511  0.9282  0.2987
24694SOL    HW276621   4.863   6.045   6.012 -1.8299 -0.7604  0.4558
24695SOL     OW76622   4.764   9.261   2.813  0.3827 -0.4925  0.0117
24695SOL    HW176623   4.769   9.167   2.795 -2.1728 -0.3158 -1.7245
24695SOL    HW276624   4.744   9.266   2.907 -1.3114 -1.7374 -0.2601
24696SOL     OW76625   9.054   6.061   2.993 -0.1106  0.2712  0.5550
24696SOL    HW176626   9.086   5.996   3.055 -0.8317  0.0612  0.7066
24696SOL    HW276627   9.003   6.122   3.046 -0.6438  0.1461  0.1933
24697SOL     OW76628   4.340   4.839   2.377  0.5643  0.1003 -0.1308
24697SOL    HW176629   4.363   4.927   2.346  0.0046  0.0813 -0.5943
24697SOL    HW276630   4.244   4.841   2.384  0.6579  0.0032  1.2754
24698SOL     OW76631  10.121   8.645   9.180  0.1124  0.1800  0.4084
24698SOL    HW176632  10.066   8.675   9.253 -0.4509 -0.1899  0.1446
24698SOL    HW276633  10.200   8.611   9.222 -0.6624 -1.0115  0.9314
24699SOL     OW76634   9.758   7.435   8.524 -0.2434 -0.4963  0.3965
24699SOL    HW176635   9.816   7.381   8.469  0.0370 -0.7844  0.9721
24699SOL    HW276636   9.818   7.488   8.577 -0.5168  0.3314 -0.1127
24700SOL     OW76637   5.027   6.946   2.027 -0.3714 -0.5683  0.4721
24700SOL    HW176638   5.043   6.853   2.045  1.5531  0.1786  3.0292
24700SOL    HW276639   5.102   6.991   2.067 -1.3462  2.0928 -0.5796
24701SOL     OW76640   2.801   5.918   8.812  0.1013 -0.2330  0.5858
24701SOL    HW176641   2.861   5.852   8.847 -1.2247 -2.5068 -1.2517
24701SOL    HW276642   2.730   5.923   8.876  0.7742  0.2585  1.2930
24702SOL     OW76643   4.084   2.923   2.868  0.2753 -0.0277 -0.2323
24702SOL    HW176644   4.034   2.872   2.805  1.7107  0.9969 -2.3115
24702SOL    HW276645   4.040   3.008   2.870 -0.8362 -0.6353  1.5588
24703SOL     OW76646   7.676   5.393   8.214  0.2193 -0.1703  0.4565
24703SOL    HW176647   7.647   5.434   8.133 -0.2983 -0.5156  0.4663
24703SOL    HW276648   7.669   5.299   8.198  0.0894 -0.2397  0.9095
24704SOL     OW76649   9.477   8.449   5.540  0.4312  0.1017 -0.1985
24704SOL    HW176650   9.551   8.443   5.481  0.6650 -0.2097  0.1276
24704SOL    HW276651   9.515   8.474   5.624  0.0757  0.8024 -0.2339
24705SOL     OW76652   0.161   0.125   3.805 -0.0171 -0.6793  0.7999
24705SOL    HW176653   0.195   0.180   3.876  0.5072 -0.1913  0.1723
24705SOL    HW276654   0.110   0.185   3.751  1.9921 -0.4111 -0.8678
24706SOL     OW76655   9.240   9.095   3.106 -0.6179  0.1889  0.1364
24706SOL    HW176656   9.327   9.057   3.093 -1.8131 -2.8811  0.7241
24706SOL    HW276657   9.220   9.139   3.023  0.5752 -1.0076 -0.8059
24707SOL     OW76658   3.202   2.235   5.444 -0.3528  0.2917  0.1424
24707SOL    HW176659   3.272   2.200   5.388 -0.8097 -1.1308  0.4347
24707SOL    HW276660   3.127   2.179   5.425 -0.9305  0.7369  1.1055
24708SOL     OW76661   1.269   7.634   8.831  0.1980  0.2626 -0.0670
24708SOL    HW176662   1.359   7.610   8.853 -0.1173  0.0866  1.0621
24708SOL    HW276663   1.236   7.679   8.909 -0.9906 -0.4992 -0.1169
24709SOL     OW76664   9.501   5.102   2.883  0.4150  0.5195  0.0910
24709SOL    HW176665   9.561   5.086   2.955 -0.5002 -0.2251  0.6994
24709SOL    HW276666   9.458   5.185   2.905  0.6568  0.6541  0.0500
24710SOL     OW76667   5.881   9.907   4.662  0.7426  0.2461  0.3658
24710SOL    HW176668   5.911   9.983   4.612  1.7739 -0.4726 -0.1368
24710SOL    HW276669   5.924   9.832   4.619 -0.3722 -0.6356  0.7535
24711SOL     OW76670   0.871   6.390   8.389  0.1740  0.1596  0.0067
24711SOL    HW176671   0.873   6.481   8.416  1.0706  0.5973 -1.4784
24711SOL    HW276672   0.787   6.357   8.421 -0.5892  1.7732 -0.2862
24712SOL     OW76673   5.242   4.526   5.108  0.4786  0.2593  0.2749
24712SOL    HW176674   5.283   4.450   5.066 -0.8711 -1.6827  2.2739
24712SOL    HW276675   5.238   4.593   5.040  2.8028 -1.0437 -1.2139
24713SOL     OW76676   5.631   1.187   4.716  0.0967 -0.2844 -0.2424
24713SOL    HW176677   5.675   1.261   4.756 -0.4848  0.5561 -1.1338
24713SOL    HW276678   5.663   1.110   4.764  0.7933  0.5291  0.5929
24714SOL     OW76679   2.930   2.430   7.566 -0.1522 -0.1671 -0.0050
24714SOL    HW176680   2.910   2.497   7.632  0.2655  0.6039 -0.6540
24714SOL    HW276681   2.910   2.473   7.482  3.5743  0.4425 -0.6678
24715SOL     OW76682   5.427   5.073   0.062  0.0028  0.2380  0.3542
24715SOL    HW176683   5.452   5.163   0.083  3.7573 -0.7857  0.7805
24715SOL    HW276684   5.422   5.072  -0.033 -0.9337  1.1128  0.3892
24716SOL     OW76685   1.477   1.599   6.914  0.2167 -0.9146 -0.2546
24716SOL    HW176686   1.396   1.547   6.916 -0.3126 -0.0526  1.8558
24716SOL    HW276687   1.450   1.684   6.880  0.6387 -1.2719 -1.4979
24717SOL     OW76688   7.974   0.155   5.917 -0.0193  0.1045 -0.1023
24717SOL    HW176689   7.992   0.079   5.971  0.1636 -0.5280 -1.0446
24717SOL    HW276690   7.879   0.166   5.921 -0.1540 -0.7720 -0.7531
24718SOL     OW76691   8.577   0.492   0.613  0.1648  0.0700 -0.3255
24718SOL    HW176692   8.526   0.513   0.691 -1.0240 -0.1351 -1.0320
24718SOL    HW276693   8.605   0.576   0.579  0.6282  0.1621  0.2949
24719SOL     OW76694   4.537   2.384   5.703 -0.0354  0.1994 -0.1215
24719SOL    HW176695   4.607   2.341   5.654  0.5261  1.0429 -0.0544
24719SOL    HW276696   4.546   2.477   5.683  0.2447  0.5583  1.6121
24720SOL     OW76697   7.952   5.352   3.394 -0.7935  0.4562  0.2797
24720SOL    HW176698   7.938   5.345   3.300 -3.1342  2.6718  0.4071
24720SOL    HW276699   8.023   5.415   3.404 -1.7892  1.6489  0.0056
24721SOL     OW76700   7.479   8.401   8.682  0.1442 -0.1156  0.3727
24721SOL    HW176701   7.496   8.373   8.592  0.4519  0.0211  0.3896
24721SOL    HW276702   7.564   8.398   8.725  0.2384  1.0890  0.3080
24722SOL     OW76703   8.403   3.254   5.626 -0.4552 -0.7373  0.0983
24722SOL    HW176704   8.349   3.175   5.638 -1.3644 -0.1401  0.0009
24722SOL    HW276705   8.411   3.291   5.714 -1.2531 -0.1491 -0.0749
24723SOL     OW76706   6.916   2.032   1.781 -0.4699  0.1178  0.4673
24723SOL    HW176707   6.961   2.077   1.853  1.2974 -0.4890 -0.2602
24723SOL    HW276708   6.887   2.103   1.723 -1.6008  0.5871  1.5727
24724SOL     OW76709   7.264   5.797   3.683  0.5084  0.1046 -0.3166
24724SOL    HW176710   7.309   5.755   3.756  1.2675  0.1445 -0.7502
24724SOL    HW276711   7.272   5.734   3.611  3.0592  1.6022 -1.4488
24725SOL     OW76712   0.970   9.319   3.294 -0.1076  0.0243 -0.6462
24725SOL    HW176713   1.058   9.348   3.317  0.2745 -0.4415 -1.5072
24725SOL    HW276714   0.934   9.283   3.375  0.7933 -0.5449 -0.4935
24726SOL     OW76715   2.046   5.008   2.484 -0.3684 -0.0063  0.5889
24726SOL    HW176716   2.074   4.953   2.411 -0.5683 -0.3968  0.8050
24726SOL    HW276717   2.063   5.097   2.455 -2.7790 -0.0156 -0.9294
24727SOL     OW76718   6.773   4.740   5.143 -0.2917  0.9628  0.5635
24727SOL    HW176719   6.818   4.808   5.094 -2.1089  1.1571 -0.8792
24727SOL    HW276720   6.824   4.661   5.126  1.3822  1.7708  1.6285
24728SOL     OW76721   1.661   0.826   4.786  0.0673 -0.3405  0.1167
24728SOL    HW176722   1.642   0.816   4.693 -1.0443  1.7375  0.0937
24728SOL    HW276723   1.752   0.796   4.795  0.9876  1.6583 -2.0623
24729SOL     OW76724   5.339   4.014   5.398 -0.2960  0.3350  0.1852
24729SOL    HW176725   5.307   3.931   5.363 -0.2956 -1.1653  3.5700
24729SOL    HW276726   5.433   4.015   5.379 -0.2719 -0.5216  0.2728
24730SOL     OW76727   6.383   4.287   5.417  0.5151 -0.1134  0.8837
24730SOL    HW176728   6.329   4.334   5.354  1.4338 -0.6991 -0.3457
24730SOL    HW276729   6.432   4.355   5.462  1.5132  0.1499 -0.5853
24731SOL     OW76730   5.785   2.729   2.141 -0.1876  0.4183  0.0405
24731SOL    HW176731   5.817   2.819   2.135 -0.2071  0.3746 -0.7949
24731SOL    HW276732   5.699   2.736   2.181 -0.6155  0.8723 -0.9459
24732SOL     OW76733   6.126   6.537   7.825 -0.4573 -0.1377  0.0892
24732SOL    HW176734   6.054   6.574   7.774 -0.2647 -0.0784 -0.1418
24732SOL    HW276735   6.100   6.446   7.840 -0.6049 -0.1017  0.0526
24733SOL     OW76736   3.276   0.294   9.792  0.2405 -0.1839 -0.2332
24733SOL    HW176737   3.349   0.355   9.776 -0.5677  0.6453 -0.7885
24733SOL    HW276738   3.200   0.337   9.754 -0.5507 -1.0544  0.3482
24734SOL     OW76739   9.761   2.816   0.234 -1.1402 -0.0618  0.3279
24734SOL    HW176740   9.766   2.722   0.218  0.7702  0.1002 -0.2581
24734SOL    HW276741   9.738   2.824   0.326  1.3049 -1.1571  1.0866
24735SOL     OW76742   4.849   3.247   4.235  0.4367  0.2390 -0.3908
24735SOL    HW176743   4.923   3.224   4.179  0.3525  1.4210 -1.0000
24735SOL    HW276744   4.824   3.165   4.277  2.1287 -0.1664 -0.1333
24736SOL     OW76745   5.260   8.943   5.102  0.2109  0.2729  0.6821
24736SOL    HW176746   5.207   8.969   5.177 -0.6079  2.0877 -0.5067
24736SOL    HW276747   5.350   8.952   5.131 -0.0742 -1.6060  2.2995
24737SOL     OW76748   5.159   7.560   7.473 -0.1214 -0.4942  0.1339
24737SOL    HW176749   5.120   7.522   7.552 -0.2132 -0.3792  0.1423
24737SOL    HW276750   5.239   7.508   7.460  0.7182  0.4942  1.1956
24738SOL     OW76751   7.264   8.706   2.962  0.5001 -0.0451  0.5045
24738SOL    HW176752   7.263   8.755   2.880  1.5639  1.3428  1.3139
24738SOL    HW276753   7.224   8.765   3.026 -0.8866 -1.3507  0.8922
24739SOL     OW76754  10.026   0.337   8.676 -0.0006 -0.3519  0.0184
24739SOL    HW176755   9.931   0.328   8.678 -0.2268  1.5511 -0.8852
24739SOL    HW276756  10.054   0.280   8.605 -0.7302  0.8701 -1.2850
24740SOL     OW76757   4.001   1.348   0.571  0.5684  0.8013  0.0859
24740SOL    HW176758   4.077   1.310   0.527  1.4513 -0.6100  2.6893
24740SOL    HW276759   4.034   1.378   0.656 -1.6414  0.7176  1.0349
24741SOL     OW76760   9.144   7.559   5.233 -0.0375  0.2034  0.3018
24741SOL    HW176761   9.075   7.626   5.238 -0.7527 -0.3429 -1.7915
24741SOL    HW276762   9.189   7.578   5.151  1.1220 -0.6061  0.7436
24742SOL     OW76763   4.148   9.236   7.961 -0.7387 -0.6610 -0.5022
24742SOL    HW176764   4.229   9.187   7.975  0.2765  0.5563 -1.9593
24742SOL    HW276765   4.152   9.308   8.024  0.3811  0.6633 -2.0601
24743SOL     OW76766   7.245   2.314   5.732  0.2148 -0.9023 -0.6200
24743SOL    HW176767   7.157   2.277   5.720  0.7495 -2.8431  1.2541
24743SOL    HW276768   7.238   2.366   5.812 -0.3130  2.5380 -2.7842
24744SOL     OW76769   4.774   8.976   2.887  0.0025  0.1974 -0.2754
24744SOL    HW176770   4.806   8.950   2.800 -0.3510  1.1664 -0.7019
24744SOL    HW276771   4.682   8.950   2.887  0.1218 -0.2305 -0.0125
24745SOL     OW76772   1.440   1.269   4.737  0.2936 -0.5156  0.0906
24745SOL    HW176773   1.387   1.237   4.810 -1.2916  1.6427 -0.0875
24745SOL    HW276774   1.407   1.221   4.661  1.7894 -2.5932  0.6842
24746SOL     OW76775   6.658   0.740   1.514  0.5468 -0.1454 -0.3572
24746SOL    HW176776   6.719   0.706   1.580 -1.7301  0.5528  2.2035
24746SOL    HW276777   6.707   0.811   1.472  1.9560 -0.4373  0.7228
24747SOL     OW76778   2.764   5.872   2.700  0.3012  0.0786  0.7970
24747SOL    HW176779   2.780   5.959   2.734  0.8814 -0.2967  1.4957
24747SOL    HW276780   2.851   5.831   2.694  0.1593 -0.0427 -0.6468
24748SOL     OW76781   0.906   2.842   7.047 -0.2279  0.2976 -0.6543
24748SOL    HW176782   0.879   2.855   7.138  2.0243 -0.1398  0.1109
24748SOL    HW276783   0.952   2.923   7.024  1.3993 -0.5759 -0.5554
24749SOL     OW76784   0.893   1.323   0.666  0.7667  0.1520  0.4379
24749SOL    HW176785   0.919   1.290   0.580  1.2332  0.4751  0.4505
24749SOL    HW276786   0.964   1.382   0.691  0.3257  0.5474  0.7653
24750SOL     OW76787   7.503   1.801   5.628  0.1433  0.8182 -0.6348
24750SOL    HW176788   7.423   1.824   5.581 -0.2069 -0.6890 -0.7808
24750SOL    HW276789   7.489   1.711   5.657  2.1549  0.2199 -1.4397
24751SOL     OW76790   9.810   2.148  10.069  0.1015 -0.2380 -0.1223
24751SOL    HW176791   9.860   2.189   9.998 -0.0208  0.2121  0.0513
24751SOL    HW276792   9.869   2.080  10.103  2.0521  2.5064  2.3557
24752SOL     OW76793   8.959   8.158   6.613 -0.2054 -0.0088  0.0373
24752SOL    HW176794   8.975   8.252   6.605 -0.1263  0.0888  1.2067
24752SOL    HW276795   8.954   8.143   6.707  0.3562 -1.2738 -0.1267
24753SOL     OW76796   7.442   5.403   1.937 -0.3333 -0.3657  0.7296
24753SOL    HW176797   7.421   5.356   2.017  1.0228 -1.8981  0.2177
24753SOL    HW276798   7.537   5.417   1.941 -0.4472  0.6984  0.0052
24754SOL     OW76799   1.427   9.312   6.343  0.1084  0.2341 -0.2157
24754SOL    HW176800   1.358   9.375   6.363  0.1071  1.0677 -2.5837
24754SOL    HW276801   1.380   9.231   6.324 -0.0883  0.2878  0.0378
24755SOL     OW76802   0.650   7.040   4.066  0.3640 -0.7461  0.1399
24755SOL    HW176803   0.730   7.063   4.114  1.3201  1.8227 -2.5082
24755SOL    HW276804   0.580   7.082   4.115  1.2742  1.5297 -0.4555
24756SOL     OW76805   8.852   3.438   9.405  0.3680  0.4570 -0.4480
24756SOL    HW176806   8.842   3.521   9.453  0.4551  0.4692 -0.4507
24756SOL    HW276807   8.922   3.455   9.342  0.2694  0.4333 -0.5635
24757SOL     OW76808   2.843   4.793   9.928  0.4492 -0.0108 -0.3240
24757SOL    HW176809   2.889   4.770   9.847  1.5462  1.8074 -0.2604
24757SOL    HW276810   2.789   4.869   9.903  0.6269  0.4215  0.5957
24758SOL     OW76811   0.623   9.040   8.465  0.0229  0.1233  0.4708
24758SOL    HW176812   0.611   8.993   8.548 -1.4451  0.4322  0.4422
24758SOL    HW276813   0.631   9.132   8.490 -1.2951  0.3150  0.2116
24759SOL     OW76814   2.371   4.508   9.008  0.1584 -0.0822  0.3601
24759SOL    HW176815   2.417   4.425   8.994 -1.3069 -0.5527 -2.1119
24759SOL    HW276816   2.279   4.482   9.017 -0.6865  1.3875 -3.1082
24760SOL     OW76817   5.480   6.550   0.041  0.3279 -0.2301  0.0319
24760SOL    HW176818   5.550   6.484   0.044 -0.7138 -1.6033 -3.3326
24760SOL    HW276819   5.402   6.504   0.071  0.3760  0.6202  1.4834
24761SOL     OW76820   9.396   7.106   7.240 -0.5091  0.3199  0.2078
24761SOL    HW176821   9.386   7.055   7.159  1.6105 -1.0096  0.7414
24761SOL    HW276822   9.355   7.191   7.220 -1.0447 -0.3909 -1.8550
24762SOL     OW76823   9.761   5.861   9.018 -0.1694  0.3064 -0.2245
24762SOL    HW176824   9.856   5.863   9.002 -0.0696  2.5602  0.4273
24762SOL    HW276825   9.733   5.952   9.007 -2.0455 -0.1118  0.8871
24763SOL     OW76826   7.953   1.005   6.174 -0.2744  0.7742  0.1543
24763SOL    HW176827   7.940   1.000   6.268 -1.4098 -1.6678 -0.1076
24763SOL    HW276828   7.879   1.057   6.142 -0.2191  1.0839  0.5310
24764SOL     OW76829   5.511   2.214   5.215 -0.2899 -0.3374 -0.2413
24764SOL    HW176830   5.478   2.138   5.168 -2.6634  0.0144  0.8093
24764SOL    HW276831   5.552   2.178   5.294 -1.2722 -0.5533  0.1768
24765SOL     OW76832   5.257   7.167   5.065  0.1801 -0.7937  0.2126
24765SOL    HW176833   5.287   7.198   5.150 -0.5742  0.0413  0.1830
24765SOL    HW276834   5.234   7.075   5.080  2.6249 -1.4520  0.2497
24766SOL     OW76835   9.985   1.110   0.167  0.2609  0.6508  0.3219
24766SOL    HW176836  10.027   1.040   0.217  0.0299  0.6661  0.5400
24766SOL    HW276837   9.950   1.067   0.089 -0.9001  0.3005  1.0176
24767SOL     OW76838   3.492   5.153   7.837  0.3869 -0.7532 -0.0231
24767SOL    HW176839   3.549   5.077   7.823  0.4556 -0.6810 -0.1434
24767SOL    HW276840   3.436   5.156   7.760 -1.7302 -2.5083  1.4027
24768SOL     OW76841   5.174   0.331  10.149 -0.6663 -0.4064 -0.1852
24768SOL    HW176842   5.127   0.293  10.223 -0.1457 -2.4271 -0.8796
24768SOL    HW276843   5.256   0.363  10.188 -0.7242 -0.7839  0.2571
24769SOL     OW76844   6.767   6.851   2.879  0.6163 -0.1842 -0.3219
24769SOL    HW176845   6.793   6.916   2.945 -1.8205  1.6405 -1.0910
24769SOL    HW276846   6.825   6.867   2.805  1.4740 -0.3518  0.3044
24770SOL     OW76847   2.901   4.700   7.107 -0.2184  0.2860 -0.0693
24770SOL    HW176848   2.808   4.722   7.107 -0.3844 -0.3816 -0.7188
24770SOL    HW276849   2.905   4.613   7.067  0.9132  1.4345 -2.5668
24771SOL     OW76850   8.806   8.856   4.912  0.4004  0.2615 -0.1038
24771SOL    HW176851   8.747   8.782   4.928  2.3445 -1.1580  0.5545
24771SOL    HW276852   8.833   8.885   4.999  2.5462 -0.6294 -0.4555
24772SOL     OW76853   3.470   0.531   1.733 -0.5361 -0.1510  0.1552
24772SOL    HW176854   3.413   0.492   1.667 -1.8130 -0.1876  1.2507
24772SOL    HW276855   3.558   0.525   1.695 -0.9991 -1.8991 -0.7278
24773SOL     OW76856   2.130   1.113   4.812  0.1453  0.4448  0.8484
24773SOL    HW176857   2.185   1.188   4.789  0.0909  0.4456  0.7258
24773SOL    HW276858   2.064   1.148   4.872 -0.4484  0.6742  0.0558
24774SOL     OW76859   8.430   1.577  10.188 -0.0473 -0.5240  0.1008
24774SOL    HW176860   8.361   1.628  10.146  0.1058  0.7579  1.3676
24774SOL    HW276861   8.500   1.572  10.122 -0.7331 -0.5446 -0.6346
24775SOL     OW76862   9.609   5.862   2.766  0.2781  0.3790 -0.0795
24775SOL    HW176863   9.619   5.807   2.844  1.1619 -0.8919 -1.0554
24775SOL    HW276864   9.529   5.830   2.725  0.2449  0.5075 -0.1162
24776SOL     OW76865   2.523   7.584   6.825 -0.2205 -0.1306 -0.1271
24776SOL    HW176866   2.428   7.572   6.829 -0.2956  0.7878  1.0436
24776SOL    HW276867   2.541   7.597   6.732 -1.4372  1.1509 -0.2103
24777SOL     OW76868   6.929   7.494   1.891 -0.6952 -0.4231  0.4824
24777SOL    HW176869   6.963   7.457   1.972 -1.2217 -1.9128  0.0487
24777SOL    HW276870   6.837   7.468   1.889 -0.3899 -1.4768 -1.1722
24778SOL     OW76871   5.103   0.941   1.843 -0.2817 -0.6436  0.2404
24778SOL    HW176872   5.054   0.868   1.883  2.0302 -2.1902  0.3542
24778SOL    HW276873   5.098   1.011   1.908  1.4354 -2.3349  2.3035
24779SOL     OW76874   5.362   3.318   3.949 -0.4684 -0.4858  0.3430
24779SOL    HW176875   5.427   3.344   3.884 -1.4831  0.2061 -0.4295
24779SOL    HW276876   5.337   3.229   3.923 -1.5212  0.1164 -0.7786
24780SOL     OW76877   8.189   0.162   1.534  0.4121 -0.1346  0.1952
24780SOL    HW176878   8.183   0.248   1.576  2.6184 -0.3557  1.0014
24780SOL    HW276879   8.278   0.132   1.551  0.2072 -1.8583 -1.5274
24781SOL     OW76880   2.814   3.076   6.451 -0.1627  0.1477  0.6143
24781SOL    HW176881   2.722   3.064   6.475 -0.0244 -0.3632  0.8852
24781SOL    HW276882   2.846   3.142   6.513  0.2403 -1.2925  1.9654
24782SOL     OW76883   3.949   4.977   2.069  0.0590  0.1715  0.1002
24782SOL    HW176884   3.926   5.053   2.122  0.1464  0.2645  0.0048
24782SOL    HW276885   3.873   4.963   2.013  0.7882  1.3303 -1.1975
24783SOL     OW76886   9.123   9.135   9.856  0.1063  0.6137 -0.3994
24783SOL    HW176887   9.197   9.148   9.915  0.8122 -0.1444 -1.1020
24783SOL    HW276888   9.148   9.182   9.776 -0.3293  0.6578 -0.5091
24784SOL     OW76889   5.835   5.305   6.340 -0.5866  0.4296  0.5417
24784SOL    HW176890   5.809   5.294   6.431 -1.2148  0.9645  0.4282
24784SOL    HW276891   5.800   5.391   6.315 -0.6301  0.1787 -0.2718
24785SOL     OW76892   8.863   8.197   3.274 -0.5173  0.0748  0.5549
24785SOL    HW176893   8.827   8.112   3.300 -1.0896  1.1167  3.3756
24785SOL    HW276894   8.814   8.221   3.196 -1.3480 -1.5538  0.5629
24786SOL     OW76895   4.968   6.708   7.912  0.4939  0.0512  0.5977
24786SOL    HW176896   5.043   6.657   7.883  1.9559  3.0375 -1.0846
24786SOL    HW276897   4.892   6.652   7.893  2.0375 -1.5399 -1.0420
24787SOL     OW76898   1.134   3.989   8.422 -0.4071  0.0870 -0.1613
24787SOL    HW176899   1.064   4.011   8.361 -1.0150 -1.3748 -0.0300
24787SOL    HW276900   1.118   4.044   8.498 -1.7581 -0.6174  0.0856
24788SOL     OW76901   1.479   0.821   6.015  0.2451 -0.3827 -0.1453
24788SOL    HW176902   1.437   0.815   6.101 -0.0126  1.8028 -0.0856
24788SOL    HW276903   1.551   0.882   6.027  0.6293 -0.5839 -1.3317
24789SOL     OW76904   4.432   8.883   3.780  0.8154 -0.0535 -0.8965
24789SOL    HW176905   4.380   8.962   3.796 -0.2196 -0.7862 -0.6055
24789SOL    HW276906   4.504   8.889   3.844  0.1529  0.1282 -0.1542
24790SOL     OW76907   3.880   5.108   6.385 -0.0752 -0.4711  0.1762
24790SOL    HW176908   3.811   5.050   6.416 -0.3911 -0.0073  0.3527
24790SOL    HW276909   3.944   5.110   6.456  0.2577 -1.1157 -0.0993
24791SOL     OW76910   5.696   1.073   0.118 -0.2913 -0.3426  0.1034
24791SOL    HW176911   5.734   1.076   0.030 -1.4455  0.0875 -0.3843
24791SOL    HW276912   5.704   0.981   0.143  0.6702 -0.3411 -0.1671
24792SOL     OW76913   5.089   2.848   9.450 -0.0783  0.0701  0.4489
24792SOL    HW176914   5.047   2.771   9.411  2.5708 -1.6135  0.8264
24792SOL    HW276915   5.084   2.915   9.382 -1.4222 -0.7568 -0.2987
24793SOL     OW76916   0.985   5.748   8.309  0.0916 -0.2792 -0.4069
24793SOL    HW176917   0.904   5.734   8.359  0.6202  1.1533  0.8699
24793SOL    HW276918   0.969   5.829   8.260  1.7649  1.5997  2.0289
24794SOL     OW76919   1.738   5.419   4.155 -0.0458  0.1806 -0.1091
24794SOL    HW176920   1.644   5.408   4.137 -0.1715  0.0686  0.5917
24794SOL    HW276921   1.740   5.464   4.239  0.5371 -0.0255 -0.0177
24795SOL     OW76922   9.937   4.466   2.904 -0.1723  0.6292 -0.2160
24795SOL    HW176923  10.000   4.437   2.837 -1.1150 -0.2590 -0.7225
24795SOL    HW276924   9.947   4.561   2.905  2.3974  0.3969  0.9188
24796SOL     OW76925   4.117   0.802   2.382 -0.5824 -0.4644 -0.0103
24796SOL    HW176926   4.076   0.746   2.448  1.1007  0.9856  2.3032
24796SOL    HW276927   4.211   0.794   2.398 -0.1238 -0.0788 -2.2653
24797SOL     OW76928   7.281   1.448   4.260 -0.3536  0.0136  0.5138
24797SOL    HW176929   7.307   1.539   4.271 -1.4481  0.4096 -0.1416
24797SOL    HW276930   7.216   1.449   4.190  1.4811 -1.5981 -1.2968
24798SOL     OW76931   1.911   4.425   7.295  0.4067  0.0427 -0.0154
24798SOL    HW176932   1.824   4.436   7.332  0.3898 -0.6286  0.1452
24798SOL    HW276933   1.907   4.342   7.247  1.7458 -1.4191  2.3269
24799SOL     OW76934   1.477   0.733   6.615 -0.1094  0.5071 -0.1448
24799SOL    HW176935   1.447   0.658   6.564 -0.9783  0.4373  0.4646
24799SOL    HW276936   1.500   0.697   6.701  2.5761  0.4050 -0.8457
24800SOL     OW76937   3.310   3.467   6.080  0.3412  0.4408  0.1193
24800SOL    HW176938   3.303   3.395   6.142 -0.5618 -0.8967 -1.4997
24800SOL    HW276939   3.274   3.543   6.126 -1.6651 -0.8444  0.7183
24801SOL     OW76940   0.512   3.553   9.980  0.1642  0.3147  0.2243
24801SOL    HW176941   0.446   3.501   9.934  1.7469 -0.8469 -0.7791
24801SOL    HW276942   0.578   3.574   9.914  1.0498  1.0645  1.3086
24802SOL     OW76943   3.132   1.695   1.871  0.5410  0.0919  0.3645
24802SOL    HW176944   3.060   1.648   1.913  0.8428  0.0452  0.8392
24802SOL    HW276945   3.187   1.626   1.833 -0.4493  0.1962 -1.3052
24803SOL     OW76946   3.339   8.855   5.548  0.6694 -0.0216 -0.1288
24803SOL    HW176947   3.340   8.883   5.640  1.4501  3.8145 -1.1847
24803SOL    HW276948   3.380   8.928   5.501  0.1603 -1.8397 -3.5473
24804SOL     OW76949   7.538   4.932   9.282 -0.0113  0.3602  0.4346
24804SOL    HW176950   7.546   4.836   9.279 -1.6319  0.1586  2.0078
24804SOL    HW276951   7.446   4.948   9.305 -0.0186  2.3177 -0.8937
24805SOL     OW76952   7.937   1.312   5.253 -0.7007  0.3269 -0.6714
24805SOL    HW176953   7.981   1.247   5.198 -1.3639 -0.1414 -0.6505
24805SOL    HW276954   7.913   1.264   5.332 -2.8601  0.1214 -1.4259
24806SOL     OW76955   4.922   1.382   0.466 -0.3364  0.5898 -0.2365
24806SOL    HW176956   4.864   1.440   0.417  1.1695  1.3145 -1.1626
24806SOL    HW276957   4.973   1.337   0.399  0.3878  0.1624  0.5928
24807SOL     OW76958   6.471   8.607   8.731 -0.0264 -0.1404 -0.0342
24807SOL    HW176959   6.560   8.625   8.760 -0.5753  0.8344  1.1001
24807SOL    HW276960   6.422   8.686   8.754 -1.1345 -0.5712 -0.8551
24808SOL     OW76961   5.300   8.503   9.715 -0.0297 -0.0719  0.1112
24808SOL    HW176962   5.372   8.484   9.655 -0.4001  1.6161 -0.9341
24808SOL    HW276963   5.221   8.477   9.666 -0.3950  2.0979 -0.5496
24809SOL     OW76964   2.996   3.675   1.528 -0.1263 -0.0644 -0.2085
24809SOL    HW176965   2.978   3.750   1.472 -0.7645  0.3523  0.5326
24809SOL    HW276966   3.005   3.713   1.616  0.0743 -0.7887  0.0895
24810SOL     OW76967   1.886   4.326   4.909  0.2079 -0.0113 -0.1346
24810SOL    HW176968   1.799   4.321   4.869  0.5996 -1.8584 -0.7460
24810SOL    HW276969   1.878   4.399   4.971 -2.3821 -1.4154  1.2628
24811SOL     OW76970   8.489   5.388   5.850 -0.4862 -0.0943 -0.3801
24811SOL    HW176971   8.495   5.483   5.859 -1.9149  0.0691 -1.0315
24811SOL    HW276972   8.506   5.371   5.757 -0.3602 -0.4642 -0.2906
24812SOL     OW76973   7.559   2.839   9.348  0.2995  0.2029 -0.3228
24812SOL    HW176974   7.501   2.912   9.367  0.4818  0.4372 -0.6670
24812SOL    HW276975   7.582   2.850   9.255  0.8271  0.0646 -0.2092
24813SOL     OW76976   8.675   3.424   4.979 -0.3429 -0.0571  0.3026
24813SOL    HW176977   8.586   3.412   5.011  0.2538  1.1656  2.4827
24813SOL    HW276978   8.729   3.429   5.057  1.6079 -0.3135 -0.9826
24814SOL     OW76979   8.093   2.469   0.910 -0.0366  0.4855  0.0665
24814SOL    HW176980   8.078   2.497   1.000 -1.4113 -2.6344  0.8913
24814SOL    HW276981   8.042   2.388   0.902  0.2001  0.6269 -3.4723
24815SOL     OW76982   3.137   3.977   1.416 -0.4009  0.6356 -0.2678
24815SOL    HW176983   3.199   4.001   1.348 -1.5357  1.6991 -0.9378
24815SOL    HW276984   3.114   4.059   1.458 -0.7027  0.1378  0.5584
24816SOL     OW76985   7.554   5.545   8.406 -0.1441 -0.0270 -0.0651
24816SOL    HW176986   7.607   5.488   8.351 -0.5712  0.6567 -1.1988
24816SOL    HW276987   7.464   5.521   8.387 -0.2831 -0.2014  0.7916
24817SOL     OW76988   9.071   9.088   8.175  0.7049 -0.2302 -0.3080
24817SOL    HW176989   9.090   8.994   8.171 -0.0969 -0.5223  1.9184
24817SOL    HW276990   9.107   9.123   8.094  1.4445 -2.3891 -0.9545
24818SOL     OW76991   0.868   9.071   9.331 -0.0136  0.0801  0.1179
24818SOL    HW176992   0.848   9.112   9.247  0.9405  1.0770  0.3605
24818SOL    HW276993   0.841   9.136   9.397  1.5335  0.3672  0.5046
24819SOL     OW76994   2.977   1.142   0.447  0.3757 -0.1353 -0.3638
24819SOL    HW176995   2.899   1.189   0.419  0.2425  0.4227  0.9252
24819SOL    HW276996   2.944   1.060   0.484  0.3452  0.3861  0.7811
24820SOL     OW76997   9.487   2.213   2.091  0.4859  0.2467  0.3463
24820SOL    HW176998   9.509   2.174   2.176 -1.5434  0.6207  1.0795
24820SOL    HW276999   9.501   2.307   2.104  0.7879  0.2385  0.0717
24821SOL     OW77000   4.566   2.638   3.412 -0.7281 -0.0066 -0.1900
24821SOL    HW177001   4.530   2.552   3.390  0.6818 -0.4927 -0.6685
24821SOL    HW277002   4.521   2.663   3.492 -0.5534 -1.5684  0.4179
24822SOL     OW77003   9.659   3.304   4.099  0.4015  0.0908  0.1414
24822SOL    HW177004   9.694   3.293   4.010  0.8798  2.2931  0.0226
24822SOL    HW277005   9.711   3.375   4.136 -0.4375 -0.1692  1.8489
24823SOL     OW77006   4.804   7.523   8.831 -0.3464  0.0780  0.5481
24823SOL    HW177007   4.726   7.486   8.788  0.4849 -0.9216 -0.1144
24823SOL    HW277008   4.768   7.583   8.897 -1.6942 -1.1510  0.9584
24824SOL     OW77009   6.173   4.571   9.657  0.2729 -0.2864  0.0309
24824SOL    HW177010   6.078   4.584   9.665 -0.0475 -1.7079 -1.1949
24824SOL    HW277011   6.205   4.653   9.618 -0.8413 -0.7645 -1.9601
24825SOL     OW77012   1.614   6.911   8.138  0.4517  0.6221 -0.1759
24825SOL    HW177013   1.532   6.917   8.089  0.7142 -1.8091 -0.9400
24825SOL    HW277014   1.588   6.926   8.229 -0.8596 -0.2504 -0.3921
24826SOL     OW77015   3.610   1.423   9.482  0.1601  0.3947 -0.3151
24826SOL    HW177016   3.590   1.504   9.529  3.0266  1.1026 -0.2574
24826SOL    HW277017   3.623   1.451   9.392  1.3144  0.0363 -0.2641
24827SOL     OW77018   1.244   1.017   2.897 -0.1104  0.3020 -0.3753
24827SOL    HW177019   1.151   1.019   2.920  0.2149  1.0701  0.9029
24827SOL    HW277020   1.280   1.098   2.934  0.9812  0.2251 -1.2350
24828SOL     OW77021   7.646   5.821   5.758  0.5278 -0.0903  0.0991
24828SOL    HW177022   7.735   5.840   5.731  0.3684  0.6597  0.1035
24828SOL    HW277023   7.636   5.865   5.843  0.2093 -0.3146  0.1830
24829SOL     OW77024   4.579   1.836   0.927 -0.3934 -0.2616 -0.0048
24829SOL    HW177025   4.554   1.788   0.848 -1.0937  0.8757 -0.4811
24829SOL    HW277026   4.563   1.774   0.998 -0.9716 -0.8437 -0.6339
24830SOL     OW77027   0.886   1.894   5.586 -0.4702 -0.2337  0.7769
24830SOL    HW177028   0.981   1.895   5.573 -0.3109  0.8323  1.8802
24830SOL    HW277029   0.850   1.915   5.500  0.3196 -0.0652  0.4796
24831SOL     OW77030   6.746   0.078   2.630  0.6950  0.2554 -0.5059
24831SOL    HW177031   6.840   0.088   2.644  0.7990 -1.1267 -0.1174
24831SOL    HW277032   6.732  -0.017   2.627 -0.4524  0.4515 -2.2189
24832SOL     OW77033   0.426   5.201   6.859 -0.3214 -0.1737  0.3499
24832SOL    HW177034   0.383   5.249   6.930  1.3066  0.9435  0.6261
24832SOL    HW277035   0.467   5.126   6.903 -0.3380 -0.1494  0.4067
24833SOL     OW77036   6.049   7.247   7.591  0.0070  0.1429  0.3308
24833SOL    HW177037   6.056   7.163   7.638  0.9033 -0.6464 -1.1760
24833SOL    HW277038   6.122   7.299   7.624  0.0551 -0.0469  0.5255
24834SOL     OW77039   5.200   4.082   6.285 -0.1912  0.1232 -0.4979
24834SOL    HW177040   5.105   4.076   6.274  0.0007 -1.7224 -1.2031
24834SOL    HW277041   5.223   4.164   6.242 -1.4625  0.6056 -0.3010
24835SOL     OW77042   5.877   6.119   7.767  0.4413  0.7870  0.3843
24835SOL    HW177043   5.807   6.142   7.706  1.1499 -0.3585 -0.8874
24835SOL    HW277044   5.831   6.086   7.845 -0.4450 -0.0089 -0.4594
24836SOL     OW77045   7.762   0.509   7.842  0.3432 -0.5117 -0.2447
24836SOL    HW177046   7.700   0.574   7.808 -0.5484 -0.1060  1.9871
24836SOL    HW277047   7.848   0.548   7.829 -0.1212  0.6273  0.0250
24837SOL     OW77048   1.144   8.443   2.556 -0.0860 -0.1402  0.4070
24837SOL    HW177049   1.219   8.385   2.563  0.9297  1.0614 -0.3848
24837SOL    HW277050   1.160   8.512   2.620 -0.6231 -0.0028  0.3984
24838SOL     OW77051   1.108   7.527   2.196  0.6445 -0.2247  0.0397
24838SOL    HW177052   1.173   7.528   2.126  0.2015 -0.5545 -0.3771
24838SOL    HW277053   1.116   7.613   2.237  1.9663 -0.5891  0.5711
24839SOL     OW77054   7.552   8.911   5.613 -0.2312  0.3994  0.1180
24839SOL    HW177055   7.522   8.820   5.612 -1.2552  0.7319 -0.6517
24839SOL    HW277056   7.613   8.915   5.687  0.4252 -1.0957 -0.3073
24840SOL     OW77057   9.154   2.547   4.660 -0.6811  0.2304  0.0541
24840SOL    HW177058   9.217   2.526   4.729  0.9557 -0.7915 -1.7249
24840SOL    HW277059   9.084   2.481   4.670  0.1298 -0.6475  0.0160
24841SOL     OW77060   8.687   7.836   5.083  0.3612 -0.3049  0.6864
24841SOL    HW177061   8.723   7.750   5.063  0.9916 -0.1882  1.3014
24841SOL    HW277062   8.692   7.843   5.178  0.2863  0.3966  0.6434
24842SOL     OW77063   1.640   2.445   0.535  0.3994 -0.7398 -0.2239
24842SOL    HW177064   1.669   2.483   0.618 -0.5803  1.1188 -0.7047
24842SOL    HW277065   1.712   2.464   0.474  0.7457 -1.3561 -0.0118
24843SOL     OW77066   9.594   8.585   6.215 -0.2073  0.3215 -0.1014
24843SOL    HW177067   9.555   8.521   6.274  0.4145 -0.2295 -0.2823
24843SOL    HW277068   9.532   8.592   6.142 -1.4148  1.6518  1.0133
24844SOL     OW77069   6.745   2.830   2.047 -0.0198  0.1972 -0.0734
24844SOL    HW177070   6.800   2.823   2.126  1.2965  1.7721 -0.8279
24844SOL    HW277071   6.777   2.760   1.990 -0.3431 -0.3431  0.3943
24845SOL     OW77072   8.629   9.062   9.809  0.0911  0.4693  0.9541
24845SOL    HW177073   8.710   9.028   9.847  0.4095  1.5343  1.2238
24845SOL    HW277074   8.622   9.152   9.841 -1.4798  0.2256  1.3718
24846SOL     OW77075   1.925   0.008   5.239 -0.0269 -0.4042  0.0395
24846SOL    HW177076   1.967  -0.055   5.180 -0.1234  0.1993 -0.6669
24846SOL    HW277077   1.906  -0.044   5.318  0.6667 -1.0550 -0.2081
24847SOL     OW77078   2.603   5.803  10.084  0.1484  0.5418 -0.3847
24847SOL    HW177079   2.585   5.831  10.174  0.1988  2.4843 -0.9611
24847SOL    HW277080   2.531   5.744  10.063 -0.5762  1.0904  0.4875
24848SOL     OW77081   0.891   6.734   4.352  0.4915 -0.2035  0.2098
24848SOL    HW177082   0.971   6.749   4.301  0.1618  0.8142 -0.0253
24848SOL    HW277083   0.829   6.799   4.319 -0.8299 -1.7567 -0.4537
24849SOL     OW77084   2.799   3.284   5.025  0.0612 -0.2855 -0.0361
24849SOL    HW177085   2.846   3.264   5.106  1.5918 -1.3481 -1.1346
24849SOL    HW277086   2.717   3.325   5.053 -0.0283 -1.8450  2.0853
24850SOL     OW77087   7.000   1.094   6.405 -0.2216  0.7701  0.1032
24850SOL    HW177088   6.958   1.009   6.397  0.4355  0.6556 -2.4294
24850SOL    HW277089   7.011   1.106   6.499 -1.4139 -1.3898  0.5529
24851SOL     OW77090   8.334   0.435   6.569  0.4266 -0.8989  0.5543
24851SOL    HW177091   8.317   0.507   6.630 -1.4249 -0.8710  0.0584
24851SOL    HW277092   8.361   0.362   6.624  1.0176 -0.2122  1.1840
24852SOL     OW77093   8.992   3.594   1.675 -0.0555  0.5392 -0.7084
24852SOL    HW177094   9.086   3.576   1.676  0.0296  0.9858 -0.4868
24852SOL    HW277095   8.960   3.552   1.595  0.3437  0.4399 -0.8158
24853SOL     OW77096   4.745   7.042   0.105 -0.1687  0.1393  0.3582
24853SOL    HW177097   4.694   7.123   0.102 -0.3577 -0.0427 -1.8622
24853SOL    HW277098   4.724   6.997   0.024  1.5716 -1.1493  0.5882
24854SOL     OW77099   2.231   4.048   3.975 -0.4589  0.6570 -0.6159
24854SOL    HW177100   2.242   4.143   3.967 -1.5356  0.7293 -1.3155
24854SOL    HW277101   2.138   4.037   3.994  0.1144 -0.1193  2.0114
24855SOL     OW77102   2.273   0.216   8.094  0.2900 -0.1555 -0.5998
24855SOL    HW177103   2.282   0.269   8.014  0.0605  0.4048 -0.2594
24855SOL    HW277104   2.179   0.200   8.102  0.2443  0.3319 -0.0983
24856SOL     OW77105   0.053   4.462   9.889  0.3871 -0.0993 -0.2161
24856SOL    HW177106  -0.005   4.404   9.940 -0.8587 -0.8317 -2.3920
24856SOL    HW277107   0.101   4.403   9.831  1.2741  0.7891 -0.4022
24857SOL     OW77108   1.305   6.709   8.915 -0.5536  0.4154 -0.3872
24857SOL    HW177109   1.223   6.717   8.962 -0.8743  1.3463 -1.0958
24857SOL    HW277110   1.282   6.723   8.823  0.3361  0.3647 -0.6234
24858SOL     OW77111   0.552   7.922   4.502  0.6299  0.4343 -0.1104
24858SOL    HW177112   0.624   7.860   4.513  0.5405  0.4450  0.5563
24858SOL    HW277113   0.522   7.908   4.412  1.2383  0.1888 -0.2769
24859SOL     OW77114   8.650   5.023   1.559 -0.4158  0.0972  0.2359
24859SOL    HW177115   8.733   5.055   1.596 -1.7526  2.6175  1.1383
24859SOL    HW277116   8.654   5.046   1.467 -0.7028  1.5116  0.5678
24860SOL     OW77117   7.013   8.756   0.914 -0.5409  0.0230  0.6131
24860SOL    HW177118   7.080   8.726   0.853 -1.0502 -0.1918  0.1577
24860SOL    HW277119   7.056   8.754   0.999  0.5960  1.6088  0.1060
24861SOL     OW77120   8.624   2.119   5.981 -0.1065  0.0075  0.1512
24861SOL    HW177121   8.646   2.089   5.892 -2.2461 -1.2273  0.0177
24861SOL    HW277122   8.640   2.042   6.036  0.5158  0.5614  0.7527
24862SOL     OW77123   7.861   9.230   3.454  0.2398 -0.1529 -0.1714
24862SOL    HW177124   7.920   9.164   3.419 -1.2949 -0.9908 -1.2565
24862SOL    HW277125   7.903   9.313   3.434  1.8169 -0.7585  0.5130
24863SOL     OW77126   3.798   9.132   1.908 -0.1485  0.7449  0.1971
24863SOL    HW177127   3.755   9.074   1.844  0.1791  1.3187 -0.5490
24863SOL    HW277128   3.758   9.217   1.892  0.0741  0.9302  0.6421
24864SOL     OW77129   8.909   3.047   6.845 -0.4342  0.1334  0.3876
24864SOL    HW177130   8.821   3.071   6.817  0.0454  0.5256 -0.8473
24864SOL    HW277131   8.924   2.961   6.806  0.5276  1.0194 -1.2463
24865SOL     OW77132   7.600   9.600   1.924  0.3306 -0.0588 -0.3843
24865SOL    HW177133   7.634   9.563   1.843 -1.5145  0.5424 -1.4803
24865SOL    HW277134   7.514   9.560   1.934 -0.8305  2.2859 -0.4862
24866SOL     OW77135   1.728   8.814   7.292 -0.0641  0.2218  0.1199
24866SOL    HW177136   1.778   8.751   7.344 -3.3050 -1.7394  1.0289
24866SOL    HW277137   1.689   8.874   7.355  0.8913  1.5850 -0.5548
24867SOL     OW77138   7.592   0.823   8.349 -0.3206  0.1691  0.3763
24867SOL    HW177139   7.567   0.910   8.319 -0.5551  0.7548  2.2437
24867SOL    HW277140   7.508   0.777   8.359 -0.1976 -0.2914 -0.6063
24868SOL     OW77141   0.562   8.378   8.929 -0.3464 -0.1005  0.1377
24868SOL    HW177142   0.511   8.307   8.968  0.4047 -0.2402  0.8771
24868SOL    HW277143   0.501   8.420   8.867 -1.1990 -0.5768  0.6374
24869SOL     OW77144   6.698   6.019   3.693 -0.1940 -0.7129  0.6374
24869SOL    HW177145   6.650   6.047   3.771 -0.3810 -0.5432  0.4597
24869SOL    HW277146   6.789   6.018   3.721  0.0606  2.1467  0.0252
24870SOL     OW77147   3.932   0.893   5.069  0.1097 -0.0478 -0.0507
24870SOL    HW177148   3.864   0.925   5.009 -1.2006 -1.8089  0.4460
24870SOL    HW277149   3.956   0.970   5.121 -1.4685  0.6310 -0.2850
24871SOL     OW77150   9.666   6.529   7.151  0.5218 -0.3191  0.2980
24871SOL    HW177151   9.744   6.474   7.139 -0.2033 -1.3706  0.3491
24871SOL    HW277152   9.633   6.506   7.238 -0.3880 -0.5860 -0.1090
24872SOL     OW77153   5.874   9.576   1.039  0.5821  0.8190  0.3193
24872SOL    HW177154   5.885   9.551   1.131  1.2320  1.0339  0.3058
24872SOL    HW277155   5.962   9.570   1.002  0.4353  1.3530 -0.1283
24873SOL     OW77156   2.740   5.276   8.662 -0.5844  0.1167 -0.1162
24873SOL    HW177157   2.740   5.251   8.570 -0.2625 -2.9934  0.6677
24873SOL    HW277158   2.666   5.230   8.700 -0.0730  0.5052  1.4098
24874SOL     OW77159   5.847   9.473   5.673  0.0611  0.5497 -0.4148
24874SOL    HW177160   5.849   9.430   5.759  0.3438 -1.0765 -1.2173
24874SOL    HW277161   5.937   9.502   5.659 -0.0579  1.1307 -0.0232
24875SOL     OW77162   3.395   3.794   4.232 -0.3543  0.5156 -0.1913
24875SOL    HW177163   3.418   3.854   4.161  1.5586  1.4187  1.1501
24875SOL    HW277164   3.464   3.727   4.230 -3.3054 -2.6474 -2.6922
24876SOL     OW77165   1.206   4.239   3.645 -0.2879 -0.2624  0.5390
24876SOL    HW177166   1.261   4.161   3.651 -0.0931 -0.0276  2.1739
24876SOL    HW277167   1.261   4.309   3.682 -0.9236  0.3869  0.2694
24877SOL     OW77168   3.021   1.881   7.103 -0.1198  0.1862  0.2069
24877SOL    HW177169   2.987   1.922   7.023  1.4593  0.9565 -0.0989
24877SOL    HW277170   3.110   1.916   7.111 -0.3833  0.3563  2.4840
24878SOL     OW77171   5.306   6.924   6.350  0.0886 -0.0903 -0.4829
24878SOL    HW177172   5.255   6.946   6.428 -0.7737  0.3966 -1.1761
24878SOL    HW277173   5.247   6.870   6.298  0.8526 -0.8688 -0.5560
24879SOL     OW77174   8.964   9.245   8.751  0.1735 -0.1831 -0.1646
24879SOL    HW177175   8.984   9.332   8.784  0.7534 -0.9185  1.4758
24879SOL    HW277176   8.999   9.244   8.661 -2.4700  2.2253 -1.2785
24880SOL     OW77177   4.308   4.588   6.827  0.0826 -0.3874  0.0561
24880SOL    HW177178   4.305   4.500   6.789 -0.1768 -0.1077 -0.5881
24880SOL    HW277179   4.236   4.589   6.890  0.9602 -1.0872  1.0863
24881SOL     OW77180   9.913   2.123   7.524 -0.0412 -0.0352 -0.0478
24881SOL    HW177181   9.918   2.209   7.482  1.0361  0.9929  2.0914
24881SOL    HW277182   9.966   2.066   7.468  1.4859  1.3409 -0.0452
24882SOL     OW77183   8.624   6.535   8.936 -0.3720 -0.8093 -0.7245
24882SOL    HW177184   8.617   6.453   8.887 -0.8978 -1.9738  1.2480
24882SOL    HW277185   8.559   6.528   9.006  1.5482 -0.0007  1.2491
24883SOL     OW77186   6.799   6.902   2.223  0.4993 -0.2235 -0.3110
24883SOL    HW177187   6.748   6.959   2.166  2.5671  1.3317 -0.6861
24883SOL    HW277188   6.813   6.823   2.171  0.1975  0.1662 -0.9879
24884SOL     OW77189   7.528   6.710   7.238 -0.2393 -0.0831  0.3862
24884SOL    HW177190   7.451   6.764   7.217 -0.8573 -1.1277 -0.1026
24884SOL    HW277191   7.522   6.695   7.332 -1.6797 -1.6920  0.0708
24885SOL     OW77192   6.094   3.206   5.502 -0.4468  0.6330 -0.5018
24885SOL    HW177193   6.124   3.249   5.582  1.0122  1.0564 -1.2391
24885SOL    HW277194   6.160   3.231   5.437 -1.5739  0.2288 -1.8065
24886SOL     OW77195   1.867   1.233   0.624  0.0519 -0.0342 -0.8837
24886SOL    HW177196   1.789   1.256   0.573  0.5145  0.8281 -1.2114
24886SOL    HW277197   1.921   1.312   0.622 -0.2205  0.2626  1.5200
24887SOL     OW77198   6.409   8.434   7.773  0.2568 -0.1484 -0.3856
24887SOL    HW177199   6.315   8.448   7.786  0.1758 -1.3578  0.3821
24887SOL    HW277200   6.437   8.507   7.717 -0.7757  1.2395  0.8826
24888SOL     OW77201   3.472   1.649   8.573  0.0838 -0.0526  0.7998
24888SOL    HW177202   3.565   1.650   8.552  0.2764  2.4102  1.4936
24888SOL    HW277203   3.428   1.626   8.491  1.2084  1.1042 -0.1450
24889SOL     OW77204   9.094   0.478   9.350  0.4142  0.3195  0.1539
24889SOL    HW177205   9.172   0.491   9.295 -0.0687  0.7838 -0.4377
24889SOL    HW277206   9.116   0.404   9.406  1.8382  1.3699  1.0098
24890SOL     OW77207   0.657   1.492   9.168  0.1061 -0.1706  0.4826
24890SOL    HW177208   0.690   1.451   9.088  1.1574 -0.2962  0.9647
24890SOL    HW277209   0.714   1.458   9.237  2.1904  3.4679  0.6522
24891SOL     OW77210   3.740   1.580   2.281 -0.2768 -0.0060  0.3097
24891SOL    HW177211   3.714   1.489   2.262  0.9398 -0.3766  0.3587
24891SOL    HW277212   3.836   1.578   2.276 -0.2724  1.4163 -0.3131
24892SOL     OW77213   3.834   5.278   3.934  0.0487 -0.2381  0.0674
24892SOL    HW177214   3.771   5.209   3.917 -0.4602 -0.0078  0.9730
24892SOL    HW277215   3.908   5.233   3.976  0.2584 -0.4213 -0.4936
24893SOL     OW77216   6.393   7.455   9.377  0.0698 -0.3606  0.4211
24893SOL    HW177217   6.385   7.550   9.381 -0.0741 -0.3701  0.3317
24893SOL    HW277218   6.320   7.427   9.322  0.7156 -0.4331 -0.4205
24894SOL     OW77219   0.886   2.602   1.964  0.1496  0.0670 -0.5994
24894SOL    HW177220   0.955   2.578   1.902 -0.4885  2.4696 -2.3217
24894SOL    HW277221   0.924   2.674   2.015  0.2124 -1.0613  0.9827
24895SOL     OW77222   2.118   8.207   0.848 -0.6082  0.3161  0.0536
24895SOL    HW177223   2.024   8.199   0.833 -0.7649  1.1072  0.6049
24895SOL    HW277224   2.141   8.294   0.816 -0.0867  0.1733  0.0325
24896SOL     OW77225   0.399   5.876   9.505 -0.4462 -0.1975  0.2655
24896SOL    HW177226   0.442   5.949   9.549 -0.5275 -0.1068  0.1945
24896SOL    HW277227   0.465   5.807   9.503  0.8975  1.0821 -2.9199
24897SOL     OW77228   2.647   6.122   6.183  0.3835 -0.0810  0.0399
24897SOL    HW177229   2.597   6.070   6.246  0.8309  2.0683  2.2443
24897SOL    HW277230   2.597   6.116   6.101  0.1241 -3.4090  0.3932
24898SOL     OW77231   6.862   9.901   2.870  0.0570 -0.1251 -0.0149
24898SOL    HW177232   6.883   9.841   2.799 -1.0476 -1.2674  0.5785
24898SOL    HW277233   6.771   9.926   2.854 -0.5055 -1.1261  1.4690
24899SOL     OW77234   2.335   3.868   3.075 -0.1552  0.2497 -0.0238
24899SOL    HW177235   2.364   3.927   3.006 -1.5405  0.0824 -0.7704
24899SOL    HW277236   2.415   3.842   3.121  0.7946  0.2132 -1.6929
24900SOL     OW77237   6.128   4.929   4.975  0.1361 -0.5681  0.1807
24900SOL    HW177238   6.193   4.862   4.957  1.7430  1.3024 -1.1502
24900SOL    HW277239   6.054   4.907   4.919  1.3040 -0.2955 -1.4913
24901SOL     OW77240   7.272   2.815   9.174 -0.1131  0.1221  0.4583
24901SOL    HW177241   7.318   2.760   9.238  1.4173  1.9857  1.0126
24901SOL    HW277242   7.224   2.878   9.227 -0.7646  0.1750 -0.1951
24902SOL     OW77243   5.783   9.940   6.343 -0.3821 -0.0797  0.4741
24902SOL    HW177244   5.841   9.991   6.286 -0.1955 -0.9843 -0.1519
24902SOL    HW277245   5.702   9.991   6.347  1.3795  2.7089  3.6885
24903SOL     OW77246   6.070   3.622   1.730  0.1150  0.0031 -0.1067
24903SOL    HW177247   6.063   3.543   1.784  0.9644  0.2019  0.2948
24903SOL    HW277248   6.064   3.591   1.640  0.4833 -0.5205  0.0494
24904SOL     OW77249   1.584   8.668   9.975 -0.1261  0.1335  0.4983
24904SOL    HW177250   1.591   8.741   9.913 -0.3789 -0.0566  0.2477
24904SOL    HW277251   1.668   8.670  10.022  0.9103 -0.9681 -1.2352
24905SOL     OW77252   4.123   7.719   1.846 -0.5382  0.1715 -0.1425
24905SOL    HW177253   4.173   7.776   1.905  0.6190  1.6429 -2.4284
24905SOL    HW277254   4.038   7.761   1.838  0.2713  1.5983 -1.7243
24906SOL     OW77255   6.142   9.478   9.629 -0.3638 -0.2266  0.4801
24906SOL    HW177256   6.173   9.527   9.705 -0.0038 -0.3033  0.3838
24906SOL    HW277257   6.078   9.535   9.587  0.5111  0.4290  0.0066
24907SOL     OW77258   5.793   3.340   3.958  0.2321 -0.0446 -0.5862
24907SOL    HW177259   5.715   3.285   3.963  0.0402  0.3472  1.0878
24907SOL    HW277260   5.866   3.280   3.970  0.1405 -0.2437 -1.0037
24908SOL     OW77261   3.637   6.566   4.074 -0.2324  0.3780  0.1058
24908SOL    HW177262   3.620   6.600   3.987  0.2961  0.6334  0.1021
24908SOL    HW277263   3.732   6.564   4.082 -0.2406 -1.3903 -0.0089
24909SOL     OW77264   9.886   6.772   5.949  0.0363  0.0299 -0.6362
24909SOL    HW177265   9.977   6.801   5.956 -0.1022  0.7820 -1.7293
24909SOL    HW277266   9.868   6.727   6.031  1.1013  0.7127 -0.0255
24910SOL     OW77267   1.079   0.090   6.004  0.1306 -0.1402 -0.0560
24910SOL    HW177268   1.018   0.162   6.020  1.4848  0.6312  1.8441
24910SOL    HW277269   1.143   0.125   5.942 -0.4366 -0.4144 -0.7948
24911SOL     OW77270   7.976   4.059  10.007  0.0529  0.1243 -0.4011
24911SOL    HW177271   7.930   4.143  10.000  1.5145  1.0611  1.0191
24911SOL    HW277272   8.069   4.082  10.006  0.4639 -1.4001  0.8064
24912SOL     OW77273   6.458   4.568   9.814  0.0130  0.1191 -0.5308
24912SOL    HW177274   6.446   4.521   9.897  0.2588  0.4662 -0.2948
24912SOL    HW277275   6.369   4.578   9.779  0.0079 -1.0504 -0.8854
24913SOL     OW77276   9.481   3.946   3.547  0.1340 -1.0989  0.2663
24913SOL    HW177277   9.418   3.966   3.616  0.0511 -0.3008 -0.0369
24913SOL    HW277278   9.558   3.998   3.569 -1.4753  2.7667 -2.6946
24914SOL     OW77279   4.099   0.708   1.840 -0.2762  0.3007  0.0613
24914SOL    HW177280   4.098   0.613   1.826 -0.7099  0.3024  0.0723
24914SOL    HW277281   4.062   0.719   1.927 -0.5025  0.5010 -0.0616
24915SOL     OW77282   6.778   6.945   0.271  0.4073 -0.2700 -0.7878
24915SOL    HW177283   6.764   6.870   0.328 -0.3473  0.8290  0.5117
24915SOL    HW277284   6.808   7.015   0.329  0.4342  0.6370 -1.8610
24916SOL     OW77285   1.255   2.461   9.968 -0.1402  0.6078 -0.1152
24916SOL    HW177286   1.333   2.456  10.023 -0.2227 -1.2221 -0.1133
24916SOL    HW277287   1.240   2.554   9.955  0.3345  1.0585  2.3207
24917SOL     OW77288   1.273   3.653   1.416  0.0374  0.3678  0.5299
24917SOL    HW177289   1.288   3.578   1.359 -0.2813  0.2627  0.5844
24917SOL    HW277290   1.244   3.723   1.358  0.4795  0.4954  0.4584
24918SOL     OW77291   2.931   7.197   0.786 -0.1408  0.0541  0.1359
24918SOL    HW177292   2.935   7.240   0.701 -2.8485 -0.4251 -0.3077
24918SOL    HW277293   2.848   7.150   0.784  1.3735 -2.7840  1.7463
24919SOL     OW77294   8.730   9.114   2.085 -0.4154 -0.0639  0.5585
24919SOL    HW177295   8.821   9.095   2.105 -0.2581 -1.4319 -1.3399
24919SOL    HW277296   8.713   9.068   2.002 -2.2992  1.6537 -0.0602
24920SOL     OW77297   3.138   1.074   3.101  0.2571 -0.1284  0.1215
24920SOL    HW177298   3.211   1.057   3.160 -0.4749  3.0026  2.0742
24920SOL    HW277299   3.089   0.992   3.098  1.6969 -1.0776  1.9188
24921SOL     OW77300   3.100   8.895   2.149 -0.2251  0.4145 -0.4369
24921SOL    HW177301   3.021   8.869   2.103 -1.6683 -1.4243  2.8694
24921SOL    HW277302   3.083   8.986   2.177 -0.0371  0.9398 -1.9980
24922SOL     OW77303   5.903   1.359   4.527 -0.3341  0.3236 -0.3916
24922SOL    HW177304   5.988   1.380   4.487 -0.1342 -0.6601 -0.4951
24922SOL    HW277305   5.897   1.264   4.520 -1.1456  0.3318  0.2327
24923SOL     OW77306   2.889   4.902   8.140  0.2272 -0.2952 -0.6253
24923SOL    HW177307   2.963   4.856   8.100  0.5246  1.4527 -2.1307
24923SOL    HW277308   2.912   4.907   8.233  0.8918 -1.8372 -0.6824
24924SOL     OW77309   1.773   4.089   4.089 -0.1181  0.3446  0.3539
24924SOL    HW177310   1.851   4.037   4.109 -1.3466 -1.9870 -0.6597
24924SOL    HW277311   1.702   4.043   4.133 -1.2080  1.3984 -0.2756
24925SOL     OW77312   9.715   6.882   3.661 -0.3236 -0.0009 -0.6303
24925SOL    HW177313   9.664   6.892   3.581 -0.2671  1.1921 -0.5167
24925SOL    HW277314   9.768   6.961   3.666 -1.2655  0.5364  1.2682
24926SOL     OW77315   8.891   0.952   3.401  0.2492 -0.5246 -0.0966
24926SOL    HW177316   8.859   1.001   3.326  0.3544 -0.7549 -0.2923
24926SOL    HW277317   8.898   1.016   3.471 -0.3316 -0.4068 -0.1457
24927SOL     OW77318   3.444   7.004   1.778 -0.0787 -0.4231 -0.2663
24927SOL    HW177319   3.452   6.914   1.808 -0.6746  0.3956  2.5436
24927SOL    HW277320   3.356   7.009   1.741 -0.1481 -0.9229 -0.1742
24928SOL     OW77321   3.117   3.183   1.180 -0.3976  0.1434 -0.2524
24928SOL    HW177322   3.063   3.119   1.225 -0.0418  0.1296  0.1574
24928SOL    HW277323   3.055   3.242   1.136 -0.7149 -1.1791 -1.6209
24929SOL     OW77324   5.218   0.452   9.709 -0.2040 -0.4440 -0.5917
24929SOL    HW177325   5.226   0.438   9.615  2.5964 -0.0773 -0.4714
24929SOL    HW277326   5.279   0.524   9.728 -1.2726 -0.0181  1.3826
24930SOL     OW77327   3.331   1.206   6.580  0.0792  0.3541 -0.0728
24930SOL    HW177328   3.266   1.154   6.533 -0.8471 -0.7494  2.3478
24930SOL    HW277329   3.361   1.149   6.651  3.1591  1.1255 -0.6826
24931SOL     OW77330   4.149   3.490   0.570  0.3884  0.3252  0.3367
24931SOL    HW177331   4.100   3.513   0.491  0.0504 -1.8148 -0.1010
24931SOL    HW277332   4.082   3.487   0.639  0.3110 -0.0954  0.2431
24932SOL     OW77333   3.641   3.363   6.752 -0.1025  0.3745  0.1171
24932SOL    HW177334   3.639   3.325   6.840  2.0443  1.2720  0.5638
24932SOL    HW277335   3.581   3.437   6.756 -0.1411  0.3077  0.7666
24933SOL     OW77336   5.359   2.939   6.296 -0.3322  0.3838  0.1101
24933SOL    HW177337   5.332   3.025   6.326  0.3197  0.0089  1.7918
24933SOL    HW277338   5.287   2.910   6.238 -0.1076  2.4125 -1.2194
24934SOL     OW77339   5.832  10.099   8.122 -0.3583 -0.1883 -0.1217
24934SOL    HW177340   5.883  10.145   8.055 -0.4851 -1.7822 -1.3468
24934SOL    HW277341   5.858  10.140   8.204 -1.2474  2.7449 -1.2522
24935SOL     OW77342   5.378   3.605   9.647 -0.2264  0.4611 -0.5792
24935SOL    HW177343   5.323   3.672   9.689  0.8173  0.6791  0.4911
24935SOL    HW277344   5.462   3.613   9.693  0.1593 -1.0087 -1.0384
24936SOL     OW77345   0.306   6.739   6.969  0.5238  0.6560  0.4313
24936SOL    HW177346   0.239   6.792   7.013  0.8699  1.1211  0.3983
24936SOL    HW277347   0.256   6.673   6.921  0.0195  1.8827 -0.7725
24937SOL     OW77348   9.483   1.675   1.676 -0.2069  0.1660  0.1997
24937SOL    HW177349   9.493   1.761   1.717  0.9094 -0.0713  0.4589
24937SOL    HW277350   9.566   1.661   1.631 -0.8270 -0.2731 -0.8165
24938SOL     OW77351   5.109   4.585   2.764 -0.3776  0.2137 -0.0038
24938SOL    HW177352   5.080   4.609   2.852  1.0503 -0.8633  0.7923
24938SOL    HW277353   5.197   4.622   2.757 -1.1005  1.6579 -1.5830
24939SOL     OW77354  10.102   5.438   1.257 -0.3051  0.2505  0.4754
24939SOL    HW177355  10.063   5.358   1.292 -0.2089  0.3260  0.7582
24939SOL    HW277356  10.152   5.409   1.180 -0.8902  0.1525  0.1335
24940SOL     OW77357   4.984   6.785   0.037  0.8052 -0.2953 -0.0386
24940SOL    HW177358   4.978   6.844   0.111  1.6996 -0.0138 -0.1813
24940SOL    HW277359   4.933   6.708   0.063 -0.7992  0.7327 -0.0603
24941SOL     OW77360   0.377   6.421   4.527 -0.2593 -0.1298 -0.2982
24941SOL    HW177361   0.301   6.376   4.564  0.2984  0.3893  1.5667
24941SOL    HW277362   0.342   6.504   4.495 -0.7513 -0.5733 -0.9315
24942SOL     OW77363   2.089   6.919   7.501 -0.2256 -0.3560  0.6179
24942SOL    HW177364   2.142   6.891   7.425 -1.3593 -1.4992  0.2280
24942SOL    HW277365   2.129   7.001   7.529 -0.5933  0.7978 -2.0618
24943SOL     OW77366   4.600   2.867   6.492 -0.5003 -0.3737  0.2774
24943SOL    HW177367   4.663   2.931   6.461  0.0189  0.0565  2.2029
24943SOL    HW277368   4.653   2.795   6.527 -1.0765 -0.3737  1.1673
24944SOL     OW77369   9.725   9.758   9.079  0.5305 -0.0592 -0.0088
24944SOL    HW177370   9.720   9.802   9.164 -0.2839  0.0381 -0.1037
24944SOL    HW277371   9.816   9.728   9.073  0.6697  0.1979  0.7626
24945SOL     OW77372   2.366   8.752   0.692 -0.2392 -0.0514 -0.0404
24945SOL    HW177373   2.387   8.769   0.783 -0.9386  0.3876  0.0410
24945SOL    HW277374   2.440   8.701   0.659  0.5022  0.6744  0.4876
24946SOL     OW77375   9.566   1.089   6.493  0.3455  0.5429 -0.1667
24946SOL    HW177376   9.613   1.054   6.417 -0.4958  0.7360 -0.7869
24946SOL    HW277377   9.617   1.165   6.520 -0.4017  1.6649 -1.7780
24947SOL     OW77378   2.250   4.570   0.384 -0.0714 -0.1041  0.1354
24947SOL    HW177379   2.211   4.622   0.314 -0.5639 -1.4487 -0.6091
24947SOL    HW277380   2.176   4.542   0.437  0.2708  0.6367  1.0102
24948SOL     OW77381   7.054   4.827   9.686 -0.7694 -0.4721  0.4115
24948SOL    HW177382   7.100   4.748   9.714 -0.2067 -0.5807 -0.7774
24948SOL    HW277383   6.979   4.834   9.745 -0.3163 -1.3884  1.0990
24949SOL     OW77384   1.211   8.208   8.343  0.3072 -0.4557 -0.4670
24949SOL    HW177385   1.132   8.195   8.290  1.1401 -0.1798 -1.8090
24949SOL    HW277386   1.227   8.122   8.382 -0.7947 -0.4490  0.0189
24950SOL     OW77387   2.545   0.727   0.439  0.5740 -0.5511  0.0382
24950SOL    HW177388   2.468   0.706   0.386 -1.1720  1.5652  1.6481
24950SOL    HW277389   2.596   0.786   0.384 -0.2843  0.1424 -0.0210
24951SOL     OW77390   6.720   1.501   0.812 -0.2264  0.0581  0.3854
24951SOL    HW177391   6.687   1.513   0.901 -0.9193 -1.6285  0.3680
24951SOL    HW277392   6.785   1.430   0.819  0.4596  0.6010 -0.2816
24952SOL     OW77393   8.537   0.996   4.205 -0.2122 -0.0654  0.2528
24952SOL    HW177394   8.548   1.090   4.222  0.6280 -0.0662 -0.2548
24952SOL    HW277395   8.580   0.982   4.121  1.7295 -1.3330  1.4121
24953SOL     OW77396   3.003   4.405   5.624  0.0370 -0.0903 -0.6552
24953SOL    HW177397   3.093   4.380   5.642  0.1315 -0.1389 -1.1716
24953SOL    HW277398   2.970   4.441   5.706  0.1471 -1.1704 -0.1309
24954SOL     OW77399   9.597   8.326   9.491  0.3536  0.1791  0.2452
24954SOL    HW177400   9.527   8.390   9.503  0.2768  0.6208 -2.3548
24954SOL    HW277401   9.598   8.308   9.397  3.3514 -0.2407  0.3103
24955SOL     OW77402   3.664   7.833   7.880  0.1484  0.0864  0.3712
24955SOL    HW177403   3.705   7.773   7.817 -1.1938 -1.9702  1.3880
24955SOL    HW277404   3.717   7.824   7.959 -0.3315 -0.1264  0.6706
24956SOL     OW77405   9.813   4.225   8.285  0.1518 -0.3575 -0.3422
24956SOL    HW177406   9.835   4.291   8.220  0.3964  0.9354  1.0107
24956SOL    HW277407   9.719   4.210   8.274  0.2622 -0.4329 -1.2314
24957SOL     OW77408   4.194   0.201   4.231  0.0212  0.1946  0.4421
24957SOL    HW177409   4.159   0.282   4.195 -1.7600 -0.0296  1.6296
24957SOL    HW277410   4.119   0.158   4.273  1.3144 -1.2047  1.3875
24958SOL     OW77411   7.295   4.628   4.413 -0.2342 -0.3591 -0.2883
24958SOL    HW177412   7.221   4.580   4.450 -1.1859 -0.0036 -1.6919
24958SOL    HW277413   7.359   4.561   4.390 -0.0831 -0.6627  0.9614
24959SOL     OW77414   5.953   4.424   0.861  0.0005  0.5974  0.2742
24959SOL    HW177415   5.962   4.495   0.797  0.2116  0.0740 -0.2876
24959SOL    HW277416   6.031   4.431   0.916  0.8407 -0.1923 -0.7947
24960SOL     OW77417   9.954   4.889   1.964 -0.2206 -0.4358  0.1676
24960SOL    HW177418   9.926   4.980   1.955 -0.5759 -0.7728 -2.7605
24960SOL    HW277419   9.878   4.838   1.934  0.6785 -1.6239 -0.1132
24961SOL     OW77420   1.554   6.726   1.013  0.0049 -0.3665 -0.3813
24961SOL    HW177421   1.600   6.649   1.047 -0.8824 -0.9696 -0.5318
24961SOL    HW277422   1.528   6.701   0.925 -0.2397  0.1319 -0.4501
24962SOL     OW77423   0.073   4.237   8.097  0.1942 -0.6022  0.2640
24962SOL    HW177424   0.076   4.186   8.016  0.4561 -0.7734  0.3827
24962SOL    HW277425   0.164   4.253   8.120  0.1537 -1.6629  1.2194
24963SOL     OW77426   3.413   8.455   7.121  0.3029  0.2289  0.0488
24963SOL    HW177427   3.384   8.546   7.118  2.4605  0.8793 -1.9030
24963SOL    HW277428   3.363   8.417   7.193 -0.1542  3.0993  1.3152
24964SOL     OW77429   3.081   9.082   2.483  0.3437  0.1234  0.8850
24964SOL    HW177430   3.166   9.041   2.500 -0.6146 -2.4274 -0.3472
24964SOL    HW277431   3.095   9.137   2.406  1.6166  2.1657  2.5115
24965SOL     OW77432   8.026   6.619   8.532 -0.3883  0.1045 -0.0320
24965SOL    HW177433   8.038   6.528   8.505  3.0741  0.2847  0.6731
24965SOL    HW277434   7.984   6.661   8.456  0.5281 -1.4603 -1.4343
24966SOL     OW77435   3.278   4.377   5.605  0.5060 -0.0059  0.1062
24966SOL    HW177436   3.308   4.455   5.651  2.0361  0.5273 -1.7546
24966SOL    HW277437   3.316   4.304   5.654 -4.0391  0.0931  4.2010
24967SOL     OW77438   7.008   4.054   6.755 -0.0209  0.0648 -0.1119
24967SOL    HW177439   6.920   4.091   6.753  1.5122  3.8401 -1.0074
24967SOL    HW277440   7.011   3.995   6.679 -2.9305 -3.0702  2.1077
24968SOL     OW77441   4.560   4.916   7.269  0.2165  0.0753 -0.2888
24968SOL    HW177442   4.548   4.884   7.359 -1.1036 -1.4321 -0.9706
24968SOL    HW277443   4.632   4.979   7.275 -0.1408  0.3171  1.8982
24969SOL     OW77444   6.238   3.817   1.530 -0.5245  0.2828  0.3394
24969SOL    HW177445   6.169   3.881   1.514  1.5437  2.3459 -0.6059
24969SOL    HW277446   6.199   3.754   1.591 -2.6363  2.3854  1.2166
24970SOL     OW77447   2.548   7.428   2.982 -0.0445  0.1313  0.5750
24970SOL    HW177448   2.575   7.338   3.004  0.8237  0.8449  2.5584
24970SOL    HW277449   2.627   7.480   2.997 -1.8275  1.9159  4.1506
24971SOL     OW77450   9.005   2.317   8.435  0.0121 -0.6711 -0.4877
24971SOL    HW177451   8.920   2.322   8.391 -0.3263  0.6656  0.3003
24971SOL    HW277452   9.040   2.405   8.429 -0.0773 -0.4390  1.9727
24972SOL     OW77453   2.547   1.554   5.852 -0.6347  0.4316  0.3684
24972SOL    HW177454   2.486   1.605   5.798  1.4643  3.5713  0.8013
24972SOL    HW277455   2.529   1.582   5.942 -0.7206 -1.0192  0.8165
24973SOL     OW77456   2.992   1.580   5.286  0.6774  0.4370 -0.2520
24973SOL    HW177457   3.014   1.658   5.236 -1.5407  0.6748 -0.9170
24973SOL    HW277458   2.902   1.561   5.262  0.5816 -1.2464  1.3273
24974SOL     OW77459   9.365   4.650   4.524 -0.4107 -0.7055  0.5744
24974SOL    HW177460   9.315   4.580   4.566  1.0932 -1.9399  0.3549
24974SOL    HW277461   9.339   4.647   4.432 -0.4139 -0.9218  0.5822
24975SOL     OW77462   2.222   3.248   0.771 -0.0323 -0.3051  0.1289
24975SOL    HW177463   2.165   3.244   0.848 -0.7178 -2.0993 -0.4272
24975SOL    HW277464   2.274   3.327   0.783 -1.4092  0.4156  1.5345
24976SOL     OW77465   0.155   5.165   5.357  0.5763 -0.2142 -0.2382
24976SOL    HW177466   0.171   5.141   5.266 -2.2975  0.5612 -1.0301
24976SOL    HW277467   0.226   5.125   5.406  1.2833 -2.0239 -2.6422
24977SOL     OW77468   2.402   7.369   2.001 -0.3951 -0.0093  0.0564
24977SOL    HW177469   2.315   7.372   1.960 -0.3778 -0.0348  0.0186
24977SOL    HW277470   2.450   7.441   1.960 -0.5641  0.3312  0.4453
24978SOL     OW77471   3.868   6.808   6.680  0.5087  0.0249  0.5917
24978SOL    HW177472   3.806   6.778   6.614  1.1427  0.2861 -0.1403
24978SOL    HW277473   3.922   6.732   6.699  0.0363 -0.1731  1.1490
24979SOL     OW77474   0.285   7.923   4.652  0.0149 -0.0559  0.5005
24979SOL    HW177475   0.363   7.926   4.597 -0.5495  0.1419 -0.2960
24979SOL    HW277476   0.316   7.888   4.736  1.1327  0.8668  0.4939
24980SOL     OW77477   1.979   7.620   9.984 -0.8253 -0.0211 -0.3808
24980SOL    HW177478   1.885   7.614   9.970 -0.3675 -1.2265 -3.3006
24980SOL    HW277479   2.018   7.583   9.905  2.1420  3.5242 -0.7354
24981SOL     OW77480   0.200   5.576   4.516  0.5758  0.6688 -0.6593
24981SOL    HW177481   0.259   5.515   4.472  0.5321  0.3752 -0.3095
24981SOL    HW277482   0.256   5.649   4.542  1.1800 -0.5591  1.5229
24982SOL     OW77483   9.316   4.633   6.374  0.2662 -0.5610 -0.4416
24982SOL    HW177484   9.324   4.712   6.428  0.0629 -0.2245 -0.9027
24982SOL    HW277485   9.374   4.570   6.417  0.1352 -0.2877  0.1544
24983SOL     OW77486   9.321   1.852  10.119  0.2127  0.7732 -0.1406
24983SOL    HW177487   9.279   1.834  10.035 -0.5949  1.5683  0.0906
24983SOL    HW277488   9.376   1.929  10.103  0.8220  0.3331 -0.1879
24984SOL     OW77489   0.748   7.781  10.158  0.2003  0.3580 -0.2833
24984SOL    HW177490   0.754   7.766  10.063  1.0285 -0.0076 -0.1826
24984SOL    HW277491   0.665   7.743  10.183 -0.0658  0.5323 -0.8832
24985SOL     OW77492   7.331   2.413   0.081 -0.2736 -0.0646  0.5856
24985SOL    HW177493   7.386   2.373   0.013  0.1210 -0.7594  1.3113
24985SOL    HW277494   7.371   2.386   0.163 -0.3689  1.3081  1.0954
24986SOL     OW77495   7.858   3.152   3.760 -0.2958 -0.3854  0.1066
24986SOL    HW177496   7.820   3.100   3.831 -1.5338 -2.0215 -1.6982
24986SOL    HW277497   7.928   3.096   3.725 -0.5707 -0.1646 -0.8074
24987SOL     OW77498   6.320   3.433   0.724 -0.1329  0.8349  0.5737
24987SOL    HW177499   6.241   3.388   0.753 -1.7075  1.6110 -2.3596
24987SOL    HW277500   6.383   3.362   0.707 -0.8606  0.0874  0.9864
24988SOL     OW77501   2.875   8.539   9.350  0.0067  0.3278  0.2806
24988SOL    HW177502   2.907   8.597   9.419  1.7956 -1.6401  1.1564
24988SOL    HW277503   2.954   8.505   9.309 -0.9964 -1.9853  0.2153
24989SOL     OW77504   0.630   8.167   4.593 -0.5393  0.2691  0.5182
24989SOL    HW177505   0.570   8.238   4.569 -0.5988 -0.2201 -0.8491
24989SOL    HW277506   0.590   8.088   4.556 -0.9870 -0.6465  2.8985
24990SOL     OW77507   0.785   3.110   7.137  0.1345 -0.3084  0.2749
24990SOL    HW177508   0.702   3.114   7.089 -0.8410  0.3814  1.9761
24990SOL    HW277509   0.769   3.049   7.209  0.9027  0.3058  0.9809
24991SOL     OW77510   9.979   3.190   4.707  0.1390  0.1789 -0.5374
24991SOL    HW177511  10.060   3.159   4.747 -0.6593  0.7982  1.6226
24991SOL    HW277512   9.914   3.123   4.730 -0.5798  1.1308  0.2246
24992SOL     OW77513   7.759   3.371   1.005 -0.0169 -0.1859 -0.0849
24992SOL    HW177514   7.826   3.305   1.018  0.2517 -0.4507 -2.5644
24992SOL    HW277515   7.799   3.453   1.035  0.1183 -0.9056  1.7425
24993SOL     OW77516   6.202   6.345   4.978  0.7877  0.0501  0.0211
24993SOL    HW177517   6.159   6.428   4.958  0.0979 -0.5746 -1.1455
24993SOL    HW277518   6.182   6.330   5.070  1.9026  1.7354  0.5713
24994SOL     OW77519   5.435   1.952   7.842  0.3589  0.1273 -0.0822
24994SOL    HW177520   5.464   1.867   7.809 -0.7027 -0.0823 -0.4958
24994SOL    HW277521   5.339   1.949   7.836  0.1991  0.5763  1.8125
24995SOL     OW77522   0.501   5.164   5.139 -0.1658 -0.1741  0.3340
24995SOL    HW177523   0.448   5.241   5.159  0.8230  1.4283 -2.7885
24995SOL    HW277524   0.471   5.097   5.200 -3.6021  1.6081  0.7171
24996SOL     OW77525   6.465   8.573   1.040 -0.2298  0.2276 -0.2647
24996SOL    HW177526   6.498   8.660   1.059  0.5801 -0.1464  0.0594
24996SOL    HW277527   6.520   8.514   1.092 -1.8405 -0.3528  0.7958
24997SOL     OW77528   2.149   4.961   7.986 -0.2978 -0.1295 -0.6610
24997SOL    HW177529   2.182   5.051   7.990 -0.9522  0.1480 -1.3165
24997SOL    HW277530   2.112   4.945   8.072  0.7675 -0.1475 -0.1922
24998SOL     OW77531   3.144   8.811   7.431  0.1642  0.5350 -0.2895
24998SOL    HW177532   3.163   8.738   7.489  2.9007  0.8810 -0.7063
24998SOL    HW277533   3.112   8.770   7.350  0.5797 -0.1356 -0.1091
24999SOL     OW77534   4.295   4.440   4.817  0.6102  0.2339  0.0789
24999SOL    HW177535   4.274   4.363   4.870 -1.0954  0.7461  0.1766
24999SOL    HW277536   4.381   4.468   4.848  1.0131 -1.3072  0.4078
25000SOL     OW77537   7.801   8.195   0.520  0.4273 -0.3212 -0.1064
25000SOL    HW177538   7.839   8.135   0.456  0.5285  1.3463 -1.6545
25000SOL    HW277539   7.766   8.267   0.467 -0.6645  0.4576  1.6326
25001SOL     OW77540   8.336   7.228   8.369  0.1709  0.0448  0.3638
25001SOL    HW177541   8.386   7.288   8.314  1.3269 -0.3617  0.9525
25001SOL    HW277542   8.394   7.210   8.443 -0.5527 -1.0278  0.6763
25002SOL     OW77543   6.471   4.947   7.177  0.3461  0.4798 -0.4524
25002SOL    HW177544   6.449   5.031   7.216 -0.3138  0.6610 -1.2010
25002SOL    HW277545   6.498   4.967   7.087  1.0008 -0.0188 -0.3719
25003SOL     OW77546   7.238   6.283   2.392  0.1876  0.3933  0.7313
25003SOL    HW177547   7.167   6.344   2.409 -0.9747 -0.7329 -0.0479
25003SOL    HW277548   7.219   6.208   2.449  1.0922  0.3423  0.9786
25004SOL     OW77549   8.913   3.081   6.521 -0.5608  0.0380 -0.2072
25004SOL    HW177550   8.920   3.140   6.596  0.5199  0.5590 -0.7100
25004SOL    HW277551   9.002   3.046   6.509 -0.9113 -0.6971 -0.7167
25005SOL     OW77552   8.440   9.232   2.497  0.0030 -0.3279  0.5633
25005SOL    HW177553   8.442   9.327   2.508 -0.6509 -0.1726 -0.6686
25005SOL    HW277554   8.532   9.206   2.495  0.1977  0.4100 -0.2015
25006SOL     OW77555   6.542   0.394   9.618 -0.7676  0.0252  0.1177
25006SOL    HW177556   6.482   0.388   9.693 -0.6192 -1.9575  0.1168
25006SOL    HW277557   6.542   0.305   9.581  1.2497  0.3119 -0.5986
25007SOL     OW77558   3.692   2.442   1.008  0.2073  0.4547 -0.2271
25007SOL    HW177559   3.733   2.380   0.947  2.1076  1.7321 -0.2950
25007SOL    HW277560   3.766   2.490   1.045 -1.1774  1.9013  0.6625
25008SOL     OW77561   1.858   9.388   0.693  0.1409  0.4132  0.1177
25008SOL    HW177562   1.921   9.439   0.743 -0.5250  1.3902 -0.0385
25008SOL    HW277563   1.888   9.395   0.602  1.1582 -1.0847  0.3246
25009SOL     OW77564   4.430   7.249   2.296  0.2620 -0.2835 -0.4004
25009SOL    HW177565   4.335   7.258   2.291 -0.0911 -0.3094  4.0233
25009SOL    HW277566   4.444   7.170   2.349  2.6955  1.1074  1.1026
25010SOL     OW77567   6.552   0.966   8.336  0.7316 -0.2316 -0.6411
25010SOL    HW177568   6.619   0.984   8.270  2.0392  0.0293  0.7349
25010SOL    HW277569   6.591   0.901   8.393 -0.0066  0.2975  0.4737
25011SOL     OW77570   4.988   3.508   0.501 -0.3145 -0.2486  0.1265
25011SOL    HW177571   4.985   3.439   0.434 -1.7375 -0.3690  0.2928
25011SOL    HW277572   5.069   3.555   0.483 -0.3211 -0.7221 -1.2379
25012SOL     OW77573   3.776   1.531   9.072 -0.1979 -0.2580 -0.6559
25012SOL    HW177574   3.708   1.566   9.130 -0.6091  1.2240 -1.9966
25012SOL    HW277575   3.733   1.457   9.028 -0.1466 -0.8716  0.3216
25013SOL     OW77576   8.170   3.333   0.438 -0.0765 -1.0850  0.3568
25013SOL    HW177577   8.117   3.272   0.387 -1.4781 -1.3593  2.0732
25013SOL    HW277578   8.230   3.277   0.488 -0.3086 -0.9766  0.7642
25014SOL     OW77579   2.896   1.546   4.683 -0.2385 -0.2612 -0.4959
25014SOL    HW177580   2.879   1.563   4.776 -0.0512  0.5109 -0.6052
25014SOL    HW277581   2.831   1.479   4.660 -0.1510 -0.6133  0.2391
25015SOL     OW77582   5.854   1.916   0.961 -0.8603 -0.2213  0.1625
25015SOL    HW177583   5.787   1.966   1.007 -1.8507 -2.1834  0.8539
25015SOL    HW277584   5.916   1.890   1.029 -0.3146  0.0687 -0.2113
25016SOL     OW77585   4.189   3.277   6.621  0.0986  0.3963 -0.1824
25016SOL    HW177586   4.121   3.265   6.553  0.7234 -1.3584 -0.5294
25016SOL    HW277587   4.140   3.283   6.703 -0.5466  0.0621 -0.5362
25017SOL     OW77588   3.716   1.337   8.915 -0.2673 -0.2096 -0.1060
25017SOL    HW177589   3.720   1.318   8.822 -0.0693 -0.7118  0.0048
25017SOL    HW277590   3.758   1.262   8.957 -1.3907 -0.5343  0.4624
25018SOL     OW77591   5.183   6.609   7.816  0.1586 -0.0574  0.4970
25018SOL    HW177592   5.266   6.572   7.787 -0.1796  0.8491 -1.7778
25018SOL    HW277593   5.119   6.577   7.752 -0.9751  0.5251  1.3144
25019SOL     OW77594   4.518   1.204   1.410  0.2008  0.1355 -0.2397
25019SOL    HW177595   4.442   1.154   1.378  0.8438 -0.7972 -0.3378
25019SOL    HW277596   4.524   1.181   1.502  1.2847 -1.0150 -0.5796
25020SOL     OW77597   0.879   7.253   9.777 -0.0708  0.1199 -0.1621
25020SOL    HW177598   0.963   7.281   9.814 -0.0561 -1.1642  0.8256
25020SOL    HW277599   0.832   7.214   9.851 -0.3734 -1.7507 -1.2987
25021SOL     OW77600   2.804   2.474   3.579  0.3709 -0.2266 -0.1363
25021SOL    HW177601   2.751   2.508   3.651  1.4088 -0.5561  0.7964
25021SOL    HW277602   2.741   2.430   3.522 -0.4582  0.0150  0.5797
25022SOL     OW77603   5.185   5.178   4.806  0.0698  0.4501 -0.1188
25022SOL    HW177604   5.175   5.246   4.739 -1.0077 -1.0987 -1.5605
25022SOL    HW277605   5.199   5.097   4.757  0.6933 -0.4915  1.5602
25023SOL     OW77606   0.532   8.067   8.064 -0.1216 -0.6990 -0.0156
25023SOL    HW177607   0.541   8.039   7.973 -0.4781 -2.0897  0.3620
25023SOL    HW277608   0.441   8.096   8.072  0.0566 -0.0750 -0.2333
25024SOL     OW77609   0.109   7.861   5.980 -0.1253  0.7579 -0.2122
25024SOL    HW177610   0.198   7.870   5.945 -0.4845  0.2121 -1.2777
25024SOL    HW277611   0.077   7.779   5.943 -0.9576  0.7846  0.4388
25025SOL     OW77612   1.416   3.054   2.640 -0.2446  0.2599 -0.5017
25025SOL    HW177613   1.453   3.015   2.561 -2.4470  1.1377 -2.0055
25025SOL    HW277614   1.328   3.016   2.647 -0.7591  1.6021  0.4844
25026SOL     OW77615   8.261   3.426   6.261  0.7202 -0.2036  0.0791
25026SOL    HW177616   8.291   3.343   6.223  1.9632 -0.2642  1.1356
25026SOL    HW277617   8.318   3.492   6.222 -1.3077  0.3588 -1.9565
25027SOL     OW77618   0.799   1.070   4.325 -0.1678 -0.1788  0.0693
25027SOL    HW177619   0.792   1.118   4.242 -0.8634 -0.5423 -0.0903
25027SOL    HW277620   0.781   1.135   4.392 -2.6638 -0.4993 -0.2113
25028SOL     OW77621   9.414   8.729   5.991 -0.0485  0.2507  0.6261
25028SOL    HW177622   9.339   8.754   5.937  0.3505  2.3463  1.0173
25028SOL    HW277623   9.468   8.674   5.933 -0.7777  0.5719 -0.3620
25029SOL     OW77624   0.417   9.689   6.570  0.3179  0.0489  0.5036
25029SOL    HW177625   0.370   9.773   6.568  0.4956  0.1433  0.0704
25029SOL    HW277626   0.374   9.639   6.639 -0.0920  0.3269  0.4573
25030SOL     OW77627   2.697   5.753   3.468 -0.1634  0.3107  0.3372
25030SOL    HW177628   2.721   5.676   3.520  0.0615  1.1227  1.4536
25030SOL    HW277629   2.706   5.827   3.529 -0.9308  1.1570 -0.5593
25031SOL     OW77630   3.402   4.679   7.984  0.0789 -0.3688  0.2046
25031SOL    HW177631   3.366   4.591   7.972 -1.2889  0.2465 -0.3727
25031SOL    HW277632   3.325   4.734   8.000  0.8255  0.8719 -0.3805
25032SOL     OW77633   4.686   0.798   6.454  0.5153  0.0033 -0.5484
25032SOL    HW177634   4.743   0.871   6.431  1.0171 -0.3924 -0.5935
25032SOL    HW277635   4.744   0.721   6.451 -0.6034 -0.7895 -3.2555
25033SOL     OW77636  10.179   8.100   2.857  0.2700 -0.1859 -0.0194
25033SOL    HW177637  10.186   8.012   2.821  0.0712  0.6297 -2.1358
25033SOL    HW277638  10.266   8.119   2.891  0.4788 -0.9635 -0.1083
25034SOL     OW77639   5.581   7.416   5.615 -0.7703 -0.2366  0.0503
25034SOL    HW177640   5.542   7.329   5.605 -0.6453 -0.0814 -1.9335
25034SOL    HW277641   5.543   7.467   5.543 -2.0809  1.8119  2.1332
25035SOL     OW77642   5.145   0.289   5.915 -0.2602 -0.2076 -0.4029
25035SOL    HW177643   5.151   0.237   5.995  0.1827  1.3245  0.5776
25035SOL    HW277644   5.157   0.225   5.845  0.6714 -1.3681  0.7718
25036SOL     OW77645   9.642   4.406   9.160  0.5153  0.1786 -0.1993
25036SOL    HW177646   9.680   4.389   9.073  1.1918  1.9933 -0.2647
25036SOL    HW277647   9.629   4.500   9.163 -1.1235 -0.0597  1.0319
25037SOL     OW77648   3.613   9.207   1.485 -0.0780  0.3326  0.1097
25037SOL    HW177649   3.685   9.265   1.509  0.5334 -0.6716  0.7405
25037SOL    HW277650   3.655   9.124   1.466 -1.0607 -0.2315  0.3808
25038SOL     OW77651   7.524   7.778   5.695  0.1718  0.3087  0.0142
25038SOL    HW177652   7.491   7.704   5.644  2.0134  0.2664 -1.1500
25038SOL    HW277653   7.502   7.756   5.785 -0.4393 -1.0432 -0.4442
25039SOL     OW77654   0.268   5.235   4.267 -0.7443  0.7365  0.2021
25039SOL    HW177655   0.202   5.263   4.330 -1.8440  2.2819 -1.5541
25039SOL    HW277656   0.304   5.317   4.232  0.3566 -0.0822 -0.6336
25040SOL     OW77657   4.653   5.276   0.557  0.2437  0.0768 -0.2169
25040SOL    HW177658   4.586   5.263   0.624  0.2925  1.2343  0.0580
25040SOL    HW277659   4.649   5.369   0.536  1.1371 -0.0234 -0.8637
25041SOL     OW77660   7.110   4.623   1.050 -0.0918  0.0421  0.3216
25041SOL    HW177661   7.186   4.625   1.109  0.2528  0.7732 -0.1375
25041SOL    HW277662   7.138   4.675   0.974 -0.5034 -0.9498 -0.5189
25042SOL     OW77663   5.320   7.515   9.843  0.1396  0.0662  0.0623
25042SOL    HW177664   5.228   7.499   9.824  0.0646  0.5905 -0.0233
25042SOL    HW277665   5.332   7.483   9.933 -0.5634  1.6829  0.7537
25043SOL     OW77666   3.680   6.310  10.056  0.3211  0.5293 -0.0061
25043SOL    HW177667   3.749   6.245  10.046  0.8161  1.1730 -0.7823
25043SOL    HW277668   3.651   6.330   9.967 -0.4131  0.7526  0.2720
25044SOL     OW77669   6.836   8.248   4.544 -0.1367 -0.2408  0.1394
25044SOL    HW177670   6.862   8.340   4.535  1.6375 -0.7062  0.3877
25044SOL    HW277671   6.744   8.252   4.571 -0.5203  1.4366 -1.2846
25045SOL     OW77672   7.985   6.081   4.612  0.3815 -0.2699 -0.4837
25045SOL    HW177673   7.956   5.993   4.588  1.1497 -0.4092 -0.9369
25045SOL    HW277674   7.924   6.109   4.680 -0.0712 -1.0222 -0.5757
25046SOL     OW77675   8.692   5.282   5.493  0.1939 -0.4103 -0.0391
25046SOL    HW177676   8.610   5.321   5.526  1.4505  1.4747  0.9365
25046SOL    HW277677   8.707   5.207   5.551 -0.1100  0.0651  0.6662
25047SOL     OW77678   0.788   4.244   7.165 -0.4136  0.1186 -0.2055
25047SOL    HW177679   0.708   4.294   7.180  0.0856  0.5378  1.1140
25047SOL    HW277680   0.850   4.309   7.130 -0.4970 -0.1030 -0.7741
25048SOL     OW77681   4.665   7.021   5.031  0.0445  0.2572 -0.4887
25048SOL    HW177682   4.676   7.103   5.079  1.2856  0.4162 -1.0263
25048SOL    HW277683   4.747   6.973   5.046  0.2635  0.1102 -2.0375
25049SOL     OW77684   9.447   2.758   8.699 -0.0535  0.1524 -0.2355
25049SOL    HW177685   9.511   2.773   8.629  1.1461  0.0023  0.8141
25049SOL    HW277686   9.425   2.846   8.730 -1.1100  0.2581 -1.2510
25050SOL     OW77687   2.000   6.749   3.509  0.3013  0.5260 -0.4775
25050SOL    HW177688   2.061   6.714   3.443  0.1976 -0.4886 -0.0513
25050SOL    HW277689   1.944   6.809   3.461  0.3300 -0.0879 -1.2787
25051SOL     OW77690   6.946   9.378   3.282 -0.0388  0.7564 -0.3079
25051SOL    HW177691   6.860   9.382   3.325  0.2734  1.6531  0.2527
25051SOL    HW277692   6.956   9.464   3.242  0.5581  0.6169 -0.4542
25052SOL     OW77693   6.477   8.954   3.888 -0.0863  0.2193 -0.7562
25052SOL    HW177694   6.466   8.921   3.799 -1.0146 -1.1656 -0.1395
25052SOL    HW277695   6.480   8.876   3.943  3.7792  0.8885  0.1224
25053SOL     OW77696   6.009   5.766   0.505  0.5390 -0.6181  0.1644
25053SOL    HW177697   5.987   5.793   0.416  2.0385 -0.3314 -0.1153
25053SOL    HW277698   5.994   5.844   0.559 -1.2137 -1.0325  0.3190
25054SOL     OW77699   2.939   6.186   9.951  0.1433  0.6793 -0.0801
25054SOL    HW177700   2.914   6.128   9.879  0.4503  1.5321 -0.8912
25054SOL    HW277701   3.035   6.189   9.947  0.1217  1.3644 -0.1489
25055SOL     OW77702   4.948   3.481   3.479  1.0439 -0.2598 -0.2045
25055SOL    HW177703   4.957   3.549   3.546 -0.8562  0.5731 -0.7470
25055SOL    HW277704   4.887   3.519   3.416  0.9411 -1.9994 -1.1639
25056SOL     OW77705   6.888   8.209   9.214 -0.5634 -0.1079  0.0684
25056SOL    HW177706   6.860   8.229   9.304  0.5196  1.1924  0.1301
25056SOL    HW277707   6.853   8.122   9.197 -2.0657  0.2552  1.2202
25057SOL     OW77708   0.058   9.436   6.471 -0.3618 -0.1453 -0.3079
25057SOL    HW177709   0.094   9.482   6.547 -1.1741 -0.6096  0.3568
25057SOL    HW277710   0.121   9.454   6.401 -1.6966  3.7195 -0.6322
25058SOL     OW77711   8.081   1.867   7.980 -0.0230 -0.6777  0.1786
25058SOL    HW177712   8.072   1.949   7.933  0.6629 -0.1243  0.9939
25058SOL    HW277713   8.079   1.800   7.912  0.9813  0.1142 -0.6500
25059SOL     OW77714   2.524   0.161   5.430 -0.3986  0.7029  0.0671
25059SOL    HW177715   2.493   0.251   5.424 -0.4662  0.6032 -1.1530
25059SOL    HW277716   2.536   0.134   5.339  0.3472 -0.2660  0.4527
25060SOL     OW77717   3.742   8.184   9.403 -0.4576 -0.7763  0.2928
25060SOL    HW177718   3.800   8.208   9.475  0.7087  0.1459 -0.9185
25060SOL    HW277719   3.792   8.120   9.352  0.0403  0.9241 -1.4418
25061SOL     OW77720   9.509   8.409   6.860 -0.1379  0.5800  0.5765
25061SOL    HW177721   9.590   8.459   6.852  0.5716 -0.5571  0.6317
25061SOL    HW277722   9.456   8.459   6.923  0.3590  1.5144  0.2672
25062SOL     OW77723   0.798   8.979   8.228  0.1057 -0.5293  0.1274
25062SOL    HW177724   0.872   9.039   8.238  0.6255 -0.8438 -1.5582
25062SOL    HW277725   0.749   8.987   8.309  0.9072  1.1821  0.4707
25063SOL     OW77726  10.021   3.408   0.435  0.5424  0.4737 -0.1292
25063SOL    HW177727  10.048   3.497   0.456  0.2801  0.5564 -0.1397
25063SOL    HW277728   9.935   3.418   0.394  0.1579  0.1514  0.6031
25064SOL     OW77729   8.654   8.133   7.147 -0.2384 -0.3100  0.0550
25064SOL    HW177730   8.560   8.148   7.136 -0.4319 -0.8077  0.9981
25064SOL    HW277731   8.695   8.205   7.100 -1.0980  0.0582 -0.1429
25065SOL     OW77732   7.970   2.377   3.927 -0.0555 -0.0227 -0.1019
25065SOL    HW177733   7.921   2.415   3.854 -0.5393 -1.8776 -0.7682
25065SOL    HW277734   7.922   2.297   3.949  1.7982 -1.0715  0.2434
25066SOL     OW77735   7.938   5.390   4.423  0.1990 -0.2268  0.1847
25066SOL    HW177736   8.024   5.403   4.463  1.0792 -1.7607 -1.1525
25066SOL    HW277737   7.912   5.476   4.392  1.9625 -0.0395 -0.8099
25067SOL     OW77738   9.024   4.551   3.155 -0.4887  0.3361 -0.3491
25067SOL    HW177739   8.930   4.556   3.137 -0.5698 -1.0626 -0.3463
25067SOL    HW277740   9.036   4.467   3.199  0.7714  0.4806 -0.4026
25068SOL     OW77741   7.014   7.675   4.355  0.1159  0.3567 -0.7468
25068SOL    HW177742   7.050   7.597   4.399  0.0028 -0.1185 -1.4926
25068SOL    HW277743   6.965   7.640   4.281  0.7909  1.1839 -1.5930
25069SOL     OW77744  10.114   4.769   7.039  0.4496  0.4515  0.5367
25069SOL    HW177745  10.038   4.815   7.075  0.2894  0.7070 -0.1207
25069SOL    HW277746  10.117   4.687   7.088 -2.8384 -1.4805 -2.2662
25070SOL     OW77747   0.708   0.537   3.156  0.0986  0.1881 -0.1707
25070SOL    HW177748   0.619   0.548   3.190 -0.3972 -1.3597 -0.9229
25070SOL    HW277749   0.761   0.518   3.234 -0.5881 -0.8472  0.0512
25071SOL     OW77750   4.602   2.467   6.989  0.0221  0.4319 -0.0277
25071SOL    HW177751   4.644   2.381   6.993  0.1508  0.5433  1.7459
25071SOL    HW277752   4.672   2.526   6.959  0.2488  0.1012 -0.1566
25072SOL     OW77753   5.961   8.990   6.502 -0.3605 -0.2972  0.0929
25072SOL    HW177754   5.931   9.052   6.569 -0.3711 -0.0720 -0.1197
25072SOL    HW277755   5.900   9.002   6.429 -0.1213 -0.2764 -0.1048
25073SOL     OW77756   2.883   8.881   6.119 -0.0761 -0.6550  0.1841
25073SOL    HW177757   2.908   8.863   6.210  2.6442  1.8475  0.0196
25073SOL    HW277758   2.842   8.968   6.123 -1.1724 -1.1185 -0.8094
25074SOL     OW77759   1.417   9.420   8.826  0.2451 -0.2856  0.0072
25074SOL    HW177760   1.474   9.434   8.901 -0.4300 -1.6173  0.7950
25074SOL    HW277761   1.455   9.473   8.756  1.7346 -0.2030  0.8629
25075SOL     OW77762   0.867   8.109   8.787 -0.0921  0.0696 -0.2797
25075SOL    HW177763   0.832   8.190   8.824  0.1749 -0.2369  0.6663
25075SOL    HW277764   0.949   8.095   8.834 -0.6590 -1.3135  0.3117
25076SOL     OW77765   1.930   6.531   5.747  0.0604  0.1208  0.4783
25076SOL    HW177766   1.931   6.436   5.763 -1.5626  0.1177  0.6466
25076SOL    HW277767   1.942   6.539   5.653  0.8358 -0.2307  0.5453
25077SOL     OW77768   5.107   7.808   9.660  0.0812 -0.5834  0.3077
25077SOL    HW177769   5.098   7.771   9.748 -0.1831  0.9551  0.9451
25077SOL    HW277770   5.178   7.757   9.620  0.6541 -0.8608  1.6377
25078SOL     OW77771   4.761   2.361   5.538  0.2600 -0.5684 -0.5712
25078SOL    HW177772   4.810   2.287   5.575 -0.8370 -0.4423  1.1804
25078SOL    HW277773   4.826   2.430   5.528  0.5511 -0.5233  1.3859
25079SOL     OW77774   6.752   4.399   1.925 -0.2401 -0.1807  0.3046
25079SOL    HW177775   6.708   4.357   1.851 -0.2605 -3.4671  2.0637
25079SOL    HW277776   6.755   4.492   1.902 -1.1540 -0.9672 -3.3259
25080SOL     OW77777  10.017   5.982   3.102 -0.5572 -0.1222  0.2035
25080SOL    HW177778  10.033   6.059   3.155  2.9046 -0.8255  0.2601
25080SOL    HW277779   9.979   6.016   3.021  0.7292  1.5951  0.3079
25081SOL     OW77780   6.251   6.742   0.495 -0.0147  0.6556 -0.5922
25081SOL    HW177781   6.239   6.691   0.414  2.0020  0.0046 -0.5075
25081SOL    HW277782   6.162   6.759   0.526 -0.7743 -1.0524 -1.7483
25082SOL     OW77783   9.769  10.189   6.595  0.5124  0.1213  0.3084
25082SOL    HW177784   9.735  10.130   6.528  0.6125  1.4814 -0.9617
25082SOL    HW277785   9.817  10.132   6.656  1.1081 -1.0138 -1.2012
25083SOL     OW77786   4.771   1.283   3.621 -0.3545 -0.7934  0.3421
25083SOL    HW177787   4.759   1.366   3.667  0.9213  0.1102 -0.9272
25083SOL    HW277788   4.847   1.243   3.663  0.3230 -0.3350 -0.4351
25084SOL     OW77789   6.478   4.883  10.036  0.5434  0.6233  0.5909
25084SOL    HW177790   6.569   4.874  10.009  0.0596 -1.2686 -0.5329
25084SOL    HW277791   6.449   4.966   9.996  1.6061  0.9408  0.4776
25085SOL     OW77792   0.581   2.478   6.104  0.1894  0.5265 -0.2071
25085SOL    HW177793   0.541   2.458   6.189 -0.9678  0.1027 -0.8522
25085SOL    HW277794   0.621   2.565   6.117  1.9184 -0.4645  1.4286
25086SOL     OW77795   7.862   6.159   7.821 -0.2506  0.3904 -0.7052
25086SOL    HW177796   7.900   6.071   7.818 -0.5831  0.1798  0.6644
25086SOL    HW277797   7.875   6.194   7.733  1.4764 -0.3636 -0.7682
25087SOL     OW77798   0.239   1.023   7.146 -0.0419  0.3217 -0.0539
25087SOL    HW177799   0.245   1.008   7.051  0.5033  1.4307 -0.2046
25087SOL    HW277800   0.160   1.075   7.156  1.7524  3.2154 -0.3083
25088SOL     OW77801   9.361   0.374   8.910  0.4654 -0.1816  0.2883
25088SOL    HW177802   9.292   0.420   8.864  0.1526  0.9699  1.8368
25088SOL    HW277803   9.339   0.282   8.903  1.2382 -0.1763 -3.1016
25089SOL     OW77804   2.609   2.315   0.974 -0.0612 -0.0109  0.4041
25089SOL    HW177805   2.662   2.259   0.916  2.3698  1.4839  1.0908
25089SOL    HW277806   2.645   2.300   1.061 -2.8122 -1.2302  1.3842
25090SOL     OW77807   8.681   4.411   8.767 -0.4598 -0.3755  0.0999
25090SOL    HW177808   8.716   4.405   8.856 -2.4808 -1.1703  0.8708
25090SOL    HW277809   8.719   4.492   8.732 -0.1344  0.2808  1.9071
25091SOL     OW77810   5.421   7.238   9.733 -0.0497  0.1423  0.1948
25091SOL    HW177811   5.421   7.332   9.716 -1.3822  0.2409  0.6897
25091SOL    HW277812   5.468   7.229   9.816  2.1414  0.1260 -1.0124
25092SOL     OW77813   7.715   6.657   3.054  0.1489 -0.6129  0.4565
25092SOL    HW177814   7.641   6.663   3.114 -1.4785  0.7303 -1.6102
25092SOL    HW277815   7.762   6.740   3.064  1.9850 -1.8286  2.4439
25093SOL     OW77816   5.740   7.221   5.769  0.2164 -0.0062 -0.5989
25093SOL    HW177817   5.687   7.294   5.737  0.8868  0.5876 -0.3465
25093SOL    HW277818   5.830   7.253   5.767  0.4365 -0.5561  0.2399
25094SOL     OW77819   7.806   8.756   3.468 -0.2761 -0.1758  0.3525
25094SOL    HW177820   7.718   8.732   3.495 -1.4240  1.0780 -2.0867
25094SOL    HW277821   7.840   8.678   3.424  0.2027 -0.9608  2.0718
25095SOL     OW77822   6.158   2.165   5.388  0.6321 -0.5842  0.5344
25095SOL    HW177823   6.215   2.239   5.368 -1.1276  1.7861  3.8667
25095SOL    HW277824   6.203   2.118   5.458 -1.2673  1.1674  3.0188
25096SOL     OW77825   1.851   9.953   0.665  0.9526 -0.1796  0.2903
25096SOL    HW177826   1.781   9.939   0.729  2.0220  0.0953  1.5464
25096SOL    HW277827   1.844   9.878   0.605  0.5426 -0.9686  1.3043
25097SOL     OW77828   6.437   9.074   7.579 -0.3101 -0.2650  0.2492
25097SOL    HW177829   6.376   9.000   7.580 -1.0466  0.3380  0.5642
25097SOL    HW277830   6.517   9.039   7.541 -0.6888 -1.2005  0.3033
25098SOL     OW77831   1.212   2.360   4.846 -0.6670 -0.7703  0.1503
25098SOL    HW177832   1.170   2.430   4.797  0.1519  0.3882  1.0768
25098SOL    HW277833   1.230   2.293   4.780 -1.8650 -0.3070 -0.6614
25099SOL     OW77834   4.975   1.292   5.372  0.6970 -0.5431 -0.0080
25099SOL    HW177835   4.965   1.216   5.315 -1.1212 -3.1312  3.6085
25099SOL    HW277836   4.928   1.362   5.326  0.8468 -2.0451 -2.5384
25100SOL     OW77837   9.579   3.005   5.780 -0.4443 -0.4041  0.5367
25100SOL    HW177838   9.604   3.040   5.865 -3.1363 -3.0504  2.4748
25100SOL    HW277839   9.515   3.068   5.745  0.3834  0.4791  0.5701
25101SOL     OW77840   4.992   3.184   0.027  0.1143  0.1227  0.0280
25101SOL    HW177841   4.936   3.107   0.032 -1.0842  0.8897 -1.2514
25101SOL    HW277842   5.078   3.153   0.054 -0.4141 -1.6074 -0.2222
25102SOL     OW77843   4.979   6.958   7.940  0.5091 -0.4717  0.4846
25102SOL    HW177844   4.891   6.996   7.947  0.6779  0.5520 -2.3251
25102SOL    HW277845   4.964   6.865   7.926 -0.2136  0.0031 -2.0361
25103SOL     OW77846   8.725   7.110   7.307  0.5779 -0.1985 -0.0968
25103SOL    HW177847   8.692   7.096   7.395  0.7437  0.5855  0.0916
25103SOL    HW277848   8.797   7.047   7.299  0.2698 -0.5887  0.1600
25104SOL     OW77849   5.450   8.964   6.845  0.5077  1.0137  0.5530
25104SOL    HW177850   5.444   8.932   6.934 -1.1348  0.5652  0.2897
25104SOL    HW277851   5.390   8.909   6.795  2.5046  0.2842 -1.1130
25105SOL     OW77852   2.269   0.322   5.747  0.0633 -0.2602 -0.2236
25105SOL    HW177853   2.236   0.268   5.675  0.4804 -0.3163 -0.3755
25105SOL    HW277854   2.282   0.408   5.707  1.1584 -0.5214 -0.4476
25106SOL     OW77855   9.519   4.009   6.787  0.4726 -0.2480 -0.0742
25106SOL    HW177856   9.612   4.028   6.804  0.4180  1.3665 -1.4552
25106SOL    HW277857   9.486   4.089   6.746 -1.9798 -0.1709  1.9631
25107SOL     OW77858   7.563   4.603   6.330 -0.3335 -0.0718  0.2881
25107SOL    HW177859   7.579   4.513   6.359 -1.3785 -0.2039  0.4602
25107SOL    HW277860   7.554   4.653   6.412 -2.8785 -0.3731  0.2131
25108SOL     OW77861   3.069   8.059   3.663  0.2281  0.3194 -0.2792
25108SOL    HW177862   3.025   8.003   3.728  1.3293 -0.5998 -0.3219
25108SOL    HW277863   3.125   8.116   3.715  1.8054 -1.0312 -0.4634
25109SOL     OW77864   8.301   3.717   4.824  0.3801  0.0278  0.4496
25109SOL    HW177865   8.344   3.781   4.768  1.0670 -1.3961 -0.7137
25109SOL    HW277866   8.330   3.739   4.912 -0.9243  2.4671  0.2914
25110SOL     OW77867   5.879   2.175   2.321 -0.3816 -0.3150  0.4861
25110SOL    HW177868   5.934   2.226   2.261 -1.0570 -0.3164 -0.1490
25110SOL    HW277869   5.941   2.126   2.374  0.3002  2.1103  1.9741
25111SOL     OW77870   8.441   8.805   5.036 -0.1507  0.3384 -0.3619
25111SOL    HW177871   8.400   8.872   4.982  0.4145  1.9550  1.1673
25111SOL    HW277872   8.447   8.844   5.123  1.6311 -1.0957  0.1969
25112SOL     OW77873   0.085   3.485   7.960 -0.6203 -0.1655 -0.2239
25112SOL    HW177874   0.078   3.500   8.054  1.4458  1.6726 -0.3186
25112SOL    HW277875   0.147   3.412   7.952  1.2610  1.3921 -0.2039
25113SOL     OW77876   2.514   9.211  10.049  0.4836  0.0441  1.0056
25113SOL    HW177877   2.439   9.230   9.992  0.7507 -1.5883  0.0566
25113SOL    HW277878   2.581   9.274  10.021  0.3279 -0.1881  0.0765
25114SOL     OW77879   9.882   2.987   2.408 -0.4009  0.1525  0.3373
25114SOL    HW177880   9.914   2.933   2.479  1.0843 -0.4375 -0.7566
25114SOL    HW277881   9.923   3.072   2.421  0.7318 -0.2692 -0.4092
25115SOL     OW77882   6.707   0.146   8.060  0.1392 -0.8455  0.3905
25115SOL    HW177883   6.677   0.058   8.084 -0.3254 -0.4753  1.1911
25115SOL    HW277884   6.627   0.199   8.059  0.5479 -0.2085  0.9219
25116SOL     OW77885   4.646   6.874   1.486 -0.2588  1.1233 -0.6620
25116SOL    HW177886   4.671   6.922   1.564 -0.0507  0.0440 -0.0539
25116SOL    HW277887   4.580   6.929   1.444 -0.7754  1.4571  0.5632
25117SOL     OW77888   4.626   4.679   7.905  0.0877 -0.1914  0.5007
25117SOL    HW177889   4.638   4.600   7.852  0.2030 -0.4725  0.9451
25117SOL    HW277890   4.614   4.647   7.994 -2.8310  0.1272  0.2617
25118SOL     OW77891   1.903   8.607   6.872  0.5952  0.4108  0.3122
25118SOL    HW177892   1.881   8.554   6.797  1.0266  1.4351 -0.5549
25118SOL    HW277893   1.823   8.612   6.924 -0.6255  2.2928 -1.6825
25119SOL     OW77894   7.162   0.663   7.210  0.8039  0.1907  0.1968
25119SOL    HW177895   7.191   0.592   7.268 -2.8562 -2.2012 -0.7408
25119SOL    HW277896   7.100   0.713   7.263  0.5094  0.3960 -0.3404
25120SOL     OW77897   4.146   1.262   1.574  0.3299  0.1988 -0.0133
25120SOL    HW177898   4.167   1.350   1.605  1.7623 -0.2879  0.4798
25120SOL    HW277899   4.056   1.268   1.543  0.5260  1.9255 -0.3183
25121SOL     OW77900   7.760   1.896   6.697 -0.1809 -0.0146 -0.4747
25121SOL    HW177901   7.748   1.807   6.664  0.1953  0.0537 -0.7954
25121SOL    HW277902   7.819   1.886   6.772  0.3359  0.0338 -0.8727
25122SOL     OW77903   4.759   7.732   2.342 -0.6567 -0.9703 -0.0147
25122SOL    HW177904   4.842   7.686   2.350  0.7123  1.4435  0.1831
25122SOL    HW277905   4.735   7.723   2.250  1.1745  0.5235 -0.6585
25123SOL     OW77906   8.376   6.376   1.868 -0.2174  0.4253 -0.4135
25123SOL    HW177907   8.363   6.444   1.802 -0.2969  0.6904 -0.1213
25123SOL    HW277908   8.471   6.374   1.881 -0.1240 -0.1943 -1.1371
25124SOL     OW77909   4.918   4.547   0.227  0.1571 -0.5058 -0.2430
25124SOL    HW177910   4.870   4.558   0.309 -0.2869 -1.8729 -0.3066
25124SOL    HW277911   4.945   4.636   0.203 -2.2349  0.2991 -0.1353
25125SOL     OW77912   6.102   7.906   4.165  0.2523  0.5197  0.0098
25125SOL    HW177913   6.071   7.881   4.078  1.7692  0.6281 -0.5905
25125SOL    HW277914   6.098   8.002   4.166  0.8845  0.5561 -0.2163
25126SOL     OW77915   0.544   3.847   0.712 -0.1975 -0.1336 -0.0401
25126SOL    HW177916   0.587   3.918   0.665  1.0680 -1.0908 -0.3474
25126SOL    HW277917   0.454   3.848   0.678 -0.1407  1.1854 -0.1803
25127SOL     OW77918   0.377   9.957   8.822  0.2116  0.0752 -0.3362
25127SOL    HW177919   0.354  10.050   8.824 -1.0406 -0.2287  0.3574
25127SOL    HW277920   0.427   9.943   8.902 -1.3004 -0.2411  0.5832
25128SOL     OW77921   2.865   7.223   2.638  0.1413 -0.5578  0.2354
25128SOL    HW177922   2.918   7.144   2.646 -0.5107 -0.9220  1.0877
25128SOL    HW277923   2.903   7.285   2.701  0.0165 -0.5663  0.3220
25129SOL     OW77924   1.227   6.268   4.489  0.0447 -0.6190 -0.4318
25129SOL    HW177925   1.190   6.298   4.406 -2.8483  0.6739  1.2428
25129SOL    HW277926   1.297   6.329   4.509 -1.3830  1.0430 -0.3799
25130SOL     OW77927   9.427   8.841   6.263 -0.2676  0.6837 -0.4645
25130SOL    HW177928   9.429   8.775   6.194 -0.8889 -1.7646  1.7998
25130SOL    HW277929   9.334   8.852   6.283 -0.1803  2.2958 -0.8064
25131SOL     OW77930  10.065   5.838   6.220  0.9845 -0.2403  0.4242
25131SOL    HW177931  10.154   5.870   6.204  1.4256 -2.1750 -1.2168
25131SOL    HW277932  10.026   5.833   6.134 -0.2617 -0.7268  1.0158
25132SOL     OW77933   9.406  10.161   0.310  0.2151 -0.1706 -0.5884
25132SOL    HW177934   9.477  10.222   0.292 -0.1291 -0.1532 -2.0008
25132SOL    HW277935   9.443  10.075   0.289  0.3790 -0.3535  0.4137
25133SOL     OW77936   8.215   6.587   5.016 -0.0536  0.4153 -0.6265
25133SOL    HW177937   8.193   6.630   5.099  2.4242  1.0258 -0.2577
25133SOL    HW277938   8.138   6.534   4.996 -0.3688 -0.4200  2.5248
25134SOL     OW77939   8.807   7.890   1.769  0.0940 -0.0934 -0.2313
25134SOL    HW177940   8.829   7.828   1.699  0.1036 -1.0456  0.6045
25134SOL    HW277941   8.784   7.971   1.723 -1.9430 -1.3338 -1.4237
25135SOL     OW77942   6.205   3.951   3.478  0.6366 -0.1459 -0.0885
25135SOL    HW177943   6.295   3.982   3.465  0.8463 -1.2845 -1.5044
25135SOL    HW277944   6.213   3.882   3.544  1.4150 -2.9469 -2.9926
25136SOL     OW77945   4.675  10.133   8.248  0.1646  0.0619 -0.5552
25136SOL    HW177946   4.598  10.190   8.252  0.4730  0.5564 -1.3198
25136SOL    HW277947   4.731  10.175   8.182  1.7345  0.4956  1.0403
25137SOL     OW77948   4.432   7.431   2.686 -0.0335  0.2409 -0.7959
25137SOL    HW177949   4.461   7.481   2.609 -0.6881  0.9314 -0.6004
25137SOL    HW277950   4.431   7.340   2.656 -0.1769  0.4926 -1.5803
25138SOL     OW77951   0.440   5.899   2.700  0.0125 -0.3631 -0.2960
25138SOL    HW177952   0.482   5.920   2.617 -2.1113 -1.6908 -1.7360
25138SOL    HW277953   0.376   5.831   2.679 -1.9587  0.6592  2.0445
25139SOL     OW77954   8.227   8.659   0.801  0.0312 -0.5256 -0.2684
25139SOL    HW177955   8.315   8.697   0.796  0.1376 -0.8763 -1.0536
25139SOL    HW277956   8.170   8.723   0.760  0.1021 -0.8683 -0.9049
25140SOL     OW77957   7.467   0.537   9.353  0.4101 -0.6221 -0.5682
25140SOL    HW177958   7.553   0.516   9.315  2.0861  0.9514  2.1987
25140SOL    HW277959   7.463   0.633   9.349  0.1093 -0.4984  2.0268
25141SOL     OW77960   4.512   5.893   5.238 -0.3469 -0.0320  0.1036
25141SOL    HW177961   4.449   5.833   5.277 -0.2085  0.3755  0.9784
25141SOL    HW277962   4.459   5.958   5.191 -0.4496 -1.5220 -1.8541
25142SOL     OW77963   1.601   9.208   2.244 -0.5459  0.1709 -0.2324
25142SOL    HW177964   1.615   9.302   2.236 -1.5316  0.3154 -0.3944
25142SOL    HW277965   1.667   9.168   2.188 -0.6568  0.7988 -0.8095
25143SOL     OW77966   1.616   9.491   9.022  0.6606  0.3201  0.3535
25143SOL    HW177967   1.708   9.504   9.042  0.6535  1.8885 -0.5381
25143SOL    HW277968   1.574   9.477   9.107  1.7591 -0.7211  0.7287
25144SOL     OW77969   0.457   6.633   1.351  0.1389  0.0577  0.0911
25144SOL    HW177970   0.539   6.679   1.371  0.8749 -0.2142 -2.1952
25144SOL    HW277971   0.469   6.546   1.389  0.2920  0.4944  1.0677
25145SOL     OW77972   5.585   2.284   3.453  0.6641  0.2397  0.7606
25145SOL    HW177973   5.577   2.364   3.505 -1.5390  0.4523  0.1414
25145SOL    HW277974   5.499   2.243   3.457  0.6469 -0.1435 -2.0293
25146SOL     OW77975   6.219   7.611   2.036 -0.2265 -0.0064  0.2527
25146SOL    HW177976   6.181   7.677   2.093  0.4406  0.6777 -0.0858
25146SOL    HW277977   6.175   7.530   2.060  0.4502  0.1622  2.1577
25147SOL     OW77978   9.461   8.447   6.439  0.2175  0.2226 -0.5460
25147SOL    HW177979   9.555   8.461   6.453  0.1558 -0.7510  0.9899
25147SOL    HW277980   9.448   8.355   6.459 -1.0191  0.2824 -1.0820
25148SOL     OW77981   1.940   5.812   7.465 -0.0335  0.1730  0.2215
25148SOL    HW177982   1.958   5.720   7.479 -1.0807  0.0037  0.5482
25148SOL    HW277983   2.024   5.850   7.439  0.4089 -0.8570  0.1249
25149SOL     OW77984   1.425   6.794   8.581 -0.0956 -0.5706 -0.0876
25149SOL    HW177985   1.468   6.719   8.623  0.8793  0.1110  0.1231
25149SOL    HW277986   1.496   6.847   8.547 -0.7549  0.7681  0.6173
25150SOL     OW77987   4.301   7.716   1.614  0.1589  0.5196 -0.1137
25150SOL    HW177988   4.291   7.800   1.568 -0.6014  0.4594 -0.0518
25150SOL    HW277989   4.226   7.711   1.673  1.3682  0.8027  1.4828
25151SOL     OW77990   9.739   4.150   2.108  0.2243 -0.6662  0.1989
25151SOL    HW177991   9.832   4.133   2.090  0.8336  1.6734  0.9109
25151SOL    HW277992   9.702   4.065   2.129  2.0611 -1.7332 -0.7802
25152SOL     OW77993   2.155   6.216   6.543 -0.4711  0.8675 -0.0916
25152SOL    HW177994   2.127   6.125   6.530  0.1435  0.7810 -0.7979
25152SOL    HW277995   2.073   6.264   6.554 -0.7742  0.1186  1.0268
25153SOL     OW77996   6.698   2.427   2.613  0.3675 -0.2448 -0.1776
25153SOL    HW177997   6.645   2.424   2.534 -0.7831  1.2185  0.5221
25153SOL    HW277998   6.787   2.439   2.582 -0.1506  1.0050 -1.2349
25154SOL     OW77999   1.216   7.254   2.266 -0.0983  0.3272  0.4264
25154SOL    HW178000   1.139   7.243   2.323 -0.4570  1.4316  0.1847
25154SOL    HW278001   1.198   7.335   2.218  0.9161  0.2308 -0.1289
25155SOL     OW78002   7.316   7.348   6.277  0.2877  0.5333  0.3090
25155SOL    HW178003   7.308   7.442   6.262  2.3356  0.8693  1.2164
25155SOL    HW278004   7.269   7.308   6.203  0.3038  2.2438 -0.6487
25156SOL     OW78005   0.104   2.467   1.008 -0.3986 -0.1171  0.0923
25156SOL    HW178006   0.047   2.482   0.933 -1.1899  0.5937  0.8309
25156SOL    HW278007   0.192   2.491   0.977 -0.7942  0.6365 -0.4555
25157SOL     OW78008   0.145   6.877   7.757  0.3648  0.9820  0.2727
25157SOL    HW178009   0.166   6.785   7.742  2.5596  1.6517 -0.9837
25157SOL    HW278010   0.059   6.876   7.799 -0.3895 -1.5566 -1.2678
25158SOL     OW78011   8.447   3.331   7.750 -0.8533 -0.4770 -0.1161
25158SOL    HW178012   8.507   3.349   7.677 -1.6924  0.2383 -0.6402
25158SOL    HW278013   8.410   3.245   7.729  1.2592 -1.7217  1.0916
25159SOL     OW78014   2.523   6.012   7.580  0.1949 -0.0882 -0.1466
25159SOL    HW178015   2.516   5.956   7.503  1.9756  2.1695 -2.0164
25159SOL    HW278016   2.453   6.077   7.568  0.5300  0.3172  0.0950
25160SOL     OW78017   3.818   8.367   7.985 -0.4676 -0.2599  0.1610
25160SOL    HW178018   3.825   8.462   7.993 -0.2635 -0.3101  0.5830
25160SOL    HW278019   3.903   8.334   8.016 -0.4191 -0.5631 -0.2884
25161SOL     OW78020   1.313   0.110   7.062 -0.5756  0.0960 -0.7481
25161SOL    HW178021   1.327   0.198   7.096  1.8896 -0.5124 -0.0977
25161SOL    HW278022   1.315   0.054   7.139 -4.0549 -0.3938 -0.9177
25162SOL     OW78023   7.428   5.972   7.313 -0.2856  0.4238  0.1088
25162SOL    HW178024   7.409   6.065   7.325 -0.2688  0.3249  0.9175
25162SOL    HW278025   7.498   5.953   7.376  0.1435  0.0069 -0.4837
25163SOL     OW78026   9.227   5.994   6.614 -0.2385  0.4045 -0.0965
25163SOL    HW178027   9.242   6.066   6.553 -0.2036 -0.0485 -0.6282
25163SOL    HW278028   9.232   6.035   6.701  2.2739  0.6246 -0.2919
25164SOL     OW78029   1.285   9.120   3.997  0.1683  1.3083  0.0793
25164SOL    HW178030   1.192   9.125   3.973 -0.2468  2.2808  1.8418
25164SOL    HW278031   1.296   9.033   4.033  0.8064 -0.1990 -3.5104
25165SOL     OW78032   8.286   0.212   4.272  0.5302 -0.3591 -0.4378
25165SOL    HW178033   8.219   0.144   4.278  1.3010 -1.2280 -1.5781
25165SOL    HW278034   8.274   0.264   4.352 -2.6813  0.6317 -1.5006
25166SOL     OW78035   0.407   8.302   0.496 -0.2390 -0.2004  0.1347
25166SOL    HW178036   0.493   8.318   0.457 -0.4556  0.3866 -0.0992
25166SOL    HW278037   0.407   8.208   0.517  2.0874  0.5845  4.0594
25167SOL     OW78038   3.119   0.186   1.544 -0.0734 -0.3014 -0.3003
25167SOL    HW178039   3.026   0.206   1.533  0.1640  1.2221  0.3550
25167SOL    HW278040   3.134   0.192   1.639  0.9978  0.9577 -0.5257
25168SOL     OW78041   9.349   4.820   3.674  0.5893 -0.6097 -0.1960
25168SOL    HW178042   9.414   4.791   3.610  1.2224  0.3584 -0.0016
25168SOL    HW278043   9.299   4.888   3.628  0.2053 -0.8255 -0.0959
25169SOL     OW78044   2.147   7.479   7.248 -0.1521 -0.4006  0.1836
25169SOL    HW178045   2.073   7.447   7.299 -0.3299 -0.9876 -0.4346
25169SOL    HW278046   2.130   7.572   7.236 -0.5468 -0.4386  0.4496
25170SOL     OW78047   6.622   9.565   0.409  0.1776  0.0200 -0.4312
25170SOL    HW178048   6.711   9.532   0.421  0.5518  0.7304 -1.2158
25170SOL    HW278049   6.608   9.623   0.484 -0.2447 -1.3985  0.5947
25171SOL     OW78050   3.850   2.491   1.257  0.2675 -0.1346 -0.1208
25171SOL    HW178051   3.872   2.406   1.295  1.3106 -0.7343 -2.0282
25171SOL    HW278052   3.926   2.546   1.274  0.9114 -0.5277 -1.6787
25172SOL     OW78053   2.640   6.887   3.879  0.3673 -0.7221 -0.2912
25172SOL    HW178054   2.633   6.802   3.921 -1.1361 -1.6928 -2.3794
25172SOL    HW278055   2.705   6.874   3.810  0.7175  0.0426 -0.1080
25173SOL     OW78056   3.912   2.614   5.566  0.4650  0.0102  0.0490
25173SOL    HW178057   3.949   2.585   5.483 -0.6753 -1.7024  0.1106
25173SOL    HW278058   3.836   2.668   5.541 -0.3979 -1.2251 -0.0246
25174SOL     OW78059   3.159   8.517   0.569  0.1760  0.1413  0.3813
25174SOL    HW178060   3.084   8.483   0.520  1.2718 -0.1392 -1.1631
25174SOL    HW278061   3.235   8.486   0.520  1.2787  1.3123  1.3114
25175SOL     OW78062   1.742   4.004   6.442 -0.0947 -0.5520 -0.3661
25175SOL    HW178063   1.822   3.987   6.393 -0.4214 -0.1325 -1.0568
25175SOL    HW278064   1.771   4.049   6.521  0.2553  0.6392 -1.1531
25176SOL     OW78065   6.783   5.118   3.859  0.2607  0.1805  0.3797
25176SOL    HW178066   6.798   5.142   3.767 -1.0659  0.6041  0.2626
25176SOL    HW278067   6.825   5.187   3.909  1.0501 -0.0875  0.1006
25177SOL     OW78068   3.427   8.509   8.036  0.0782  0.0299  0.3764
25177SOL    HW178069   3.447   8.459   7.957  0.6685  0.8348  0.0034
25177SOL    HW278070   3.349   8.468   8.072 -0.7545  0.2477 -1.1595
25178SOL     OW78071   9.626   4.092   3.902  0.0750 -0.6687 -0.0074
25178SOL    HW178072   9.681   4.023   3.864 -0.1334 -0.5864 -0.4642
25178SOL    HW278073   9.537   4.069   3.874 -0.2584 -1.3759  1.6038
25179SOL     OW78074   5.644   9.432   8.361  0.1319  0.0281  0.1641
25179SOL    HW178075   5.559   9.471   8.340 -0.0081  0.3398  1.2953
25179SOL    HW278076   5.708   9.494   8.324 -0.0981  1.1670  1.6285
25180SOL     OW78077   2.256   2.585   8.453  0.5438  0.0263 -0.0213
25180SOL    HW178078   2.256   2.626   8.539  1.6607  0.9091 -0.4346
25180SOL    HW278079   2.234   2.656   8.393  1.2200 -0.2573 -0.6113
25181SOL     OW78080   6.836   8.565   0.950  0.4356  0.2000 -0.2596
25181SOL    HW178081   6.905   8.619   0.911 -0.5000  0.7610 -1.1445
25181SOL    HW278082   6.775   8.548   0.878 -0.5943  0.0868  0.6289
25182SOL     OW78083   5.911   8.782   3.332 -0.1548 -0.2758 -0.1107
25182SOL    HW178084   5.881   8.861   3.287  0.0575 -0.3732 -0.4205
25182SOL    HW278085   5.976   8.744   3.273  0.4694 -0.1496  0.4947
25183SOL     OW78086   9.954   8.600   6.634 -0.2997  0.1922 -0.4690
25183SOL    HW178087   9.956   8.680   6.580  0.0255  0.0467 -0.6693
25183SOL    HW278088  10.031   8.551   6.607  0.5177  0.6634  0.9912
25184SOL     OW78089   0.661   3.390   8.488 -0.7909 -0.2437  0.3324
25184SOL    HW178090   0.595   3.342   8.439 -0.0073 -0.3913 -0.5810
25184SOL    HW278091   0.716   3.323   8.527 -1.6606 -0.1367  1.7809
25185SOL     OW78092   1.640   0.433   8.342 -0.2023  0.0407 -0.1618
25185SOL    HW178093   1.672   0.416   8.253  1.6261  0.7239  0.3457
25185SOL    HW278094   1.719   0.438   8.395 -1.2899 -0.3794  1.5181
25186SOL     OW78095   3.903   7.358   0.688  0.1681  0.0957 -0.5362
25186SOL    HW178096   3.983   7.305   0.686  1.6324  2.2650 -0.6124
25186SOL    HW278097   3.840   7.304   0.736  2.0653 -1.1121  0.6621
25187SOL     OW78098   0.971   7.767   0.116  0.1861  0.0945  0.0310
25187SOL    HW178099   0.932   7.783   0.202  0.3540 -1.1928  0.3597
25187SOL    HW278100   0.899   7.775   0.054 -0.4708 -1.4550  0.5535
25188SOL     OW78101   7.408   9.613   0.260 -0.2598  0.2675 -0.4955
25188SOL    HW178102   7.330   9.558   0.269 -0.1178 -0.0945 -1.4310
25188SOL    HW278103   7.405   9.672   0.336 -0.2927 -1.1787  0.6508
25189SOL     OW78104   7.545   3.721   9.725 -0.5525 -0.0317  0.8377
25189SOL    HW178105   7.499   3.805   9.722 -0.3078  0.0875  0.2486
25189SOL    HW278106   7.637   3.744   9.712 -0.2881 -0.2379  2.3392
25190SOL     OW78107   7.108   2.289   7.364  0.0119  0.3057 -0.2828
25190SOL    HW178108   7.154   2.339   7.432  0.5642  0.6100 -0.8666
25190SOL    HW278109   7.111   2.346   7.287  0.3794 -0.5100 -0.8765
25191SOL     OW78110   8.257   9.388   1.982 -0.1247 -0.2200  0.2060
25191SOL    HW178111   8.247   9.422   1.893  0.4609  2.7511  1.2163
25191SOL    HW278112   8.333   9.434   2.017  0.5914 -2.4937  1.7485
25192SOL     OW78113   7.076   0.211   0.708  0.1263 -0.2527 -0.0700
25192SOL    HW178114   7.119   0.249   0.631 -2.1984 -0.3773 -1.4905
25192SOL    HW278115   7.123   0.247   0.783  1.1138  1.5242 -1.5149
25193SOL     OW78116   3.536   6.058   2.512 -0.3376 -0.5845 -0.7149
25193SOL    HW178117   3.458   6.085   2.464  0.2496  1.1208 -0.7262
25193SOL    HW278118   3.605   6.053   2.445  0.4539  1.6796 -0.0926
25194SOL     OW78119   7.830   3.795   0.911  0.4548  0.1032  0.2512
25194SOL    HW178120   7.894   3.727   0.890  0.8520  0.7405 -0.6292
25194SOL    HW278121   7.785   3.811   0.828 -0.2209  0.3100  0.6595
25195SOL     OW78122   6.266   8.308   2.062  0.6885 -0.2444  0.2112
25195SOL    HW178123   6.309   8.228   2.033  0.0368 -0.2417 -0.7810
25195SOL    HW278124   6.176   8.301   2.030  0.3390  0.4086  1.0114
25196SOL     OW78125   5.966   9.529   4.217  0.0237 -0.5275  0.2100
25196SOL    HW178126   6.051   9.512   4.258 -0.9707 -0.7371  2.2271
25196SOL    HW278127   5.902   9.512   4.286 -1.6514 -0.0759 -1.1998
25197SOL     OW78128   0.961   9.097   7.278  0.1624 -0.5885  0.2844
25197SOL    HW178129   1.009   9.068   7.356  2.0263  1.0911 -0.1957
25197SOL    HW278130   0.871   9.070   7.294  0.7627 -1.4266  2.4354
25198SOL     OW78131   6.790   9.225   1.044  0.4401  0.3026 -1.1066
25198SOL    HW178132   6.823   9.160   0.982  1.1305  0.1357 -0.5721
25198SOL    HW278133   6.836   9.205   1.126  1.0986  1.8126 -1.0883
25199SOL     OW78134   8.561   9.626   9.289  0.1766  0.6156  0.1248
25199SOL    HW178135   8.530   9.557   9.231 -1.3485 -0.8426  2.5652
25199SOL    HW278136   8.493   9.694   9.285  0.3469  0.7628 -0.2309
25200SOL     OW78137   2.975   5.063   2.363 -0.2868 -0.4504  0.9651
25200SOL    HW178138   3.022   5.085   2.443 -0.2119 -1.6788  1.2572
25200SOL    HW278139   3.030   4.998   2.319  0.3597  1.2141 -0.7765
25201SOL     OW78140   8.959   3.880   7.574 -0.5448  0.2234 -0.3086
25201SOL    HW178141   8.964   3.785   7.591 -0.2845  0.1364 -0.8792
25201SOL    HW278142   8.890   3.911   7.633  1.5802  0.2146  2.3012
25202SOL     OW78143   1.227   3.728   5.259  0.1637 -0.1352 -0.0261
25202SOL    HW178144   1.215   3.820   5.282 -0.4929  0.4697 -2.5802
25202SOL    HW278145   1.318   3.722   5.228 -0.1882 -0.0649 -1.0808
25203SOL     OW78146   9.117   3.666   4.677 -0.5328  0.1621 -0.3372
25203SOL    HW178147   9.142   3.642   4.588  1.5777  0.3609  0.1693
25203SOL    HW278148   9.193   3.714   4.710 -1.7809  1.1287  1.1600
25204SOL     OW78149   1.535   7.188   3.995  0.8043  0.2228  0.4052
25204SOL    HW178150   1.440   7.174   3.996  0.8952 -0.3402  1.3677
25204SOL    HW278151   1.569   7.128   4.061  1.9604 -0.4599 -0.7783
25205SOL     OW78152   7.628   7.295   3.533 -0.5074  0.3902 -1.0317
25205SOL    HW178153   7.588   7.335   3.610  0.2053  1.4751 -1.2155
25205SOL    HW278154   7.631   7.365   3.468 -1.7552 -0.7024 -2.3062
25206SOL     OW78155   9.513   6.501   2.049  0.2688 -0.4542  0.4019
25206SOL    HW178156   9.566   6.490   1.970 -0.2479  0.5435 -0.0895
25206SOL    HW278157   9.440   6.556   2.021  0.6615  0.8256  1.8426
25207SOL     OW78158   5.497   7.542   4.538 -0.2597  0.2896  0.0106
25207SOL    HW178159   5.462   7.498   4.615  0.9608 -0.6443  0.0538
25207SOL    HW278160   5.591   7.548   4.554  0.0278 -0.0243 -1.4381
25208SOL     OW78161   2.974   3.578   3.466  0.5462 -0.5765  0.3551
25208SOL    HW178162   2.992   3.574   3.560 -1.3572 -0.9626  0.7220
25208SOL    HW278163   2.951   3.489   3.442 -2.6467  0.2109  0.3170
25209SOL     OW78164   7.730   4.142   5.782 -0.2627  0.4203 -0.3439
25209SOL    HW178165   7.778   4.153   5.700 -0.9011  0.7067 -0.6821
25209SOL    HW278166   7.689   4.228   5.797 -0.0956  0.3883  0.3067
25210SOL     OW78167   3.621   0.631   3.706 -0.1563 -0.1657 -0.2393
25210SOL    HW178168   3.585   0.577   3.636 -1.7310 -0.0665  0.4507
25210SOL    HW278169   3.699   0.584   3.736 -0.6052 -1.2294 -0.7165
25211SOL     OW78170   5.110   7.795   0.025 -0.0843  0.5770  0.0488
25211SOL    HW178171   5.132   7.881   0.062  0.6295  0.7104 -0.6712
25211SOL    HW278172   5.143   7.732   0.090  1.2695  0.8078 -0.4036
25212SOL     OW78173   5.883   2.954   4.259 -0.1564 -0.1546 -0.5707
25212SOL    HW178174   5.908   2.908   4.339  0.9131 -2.6629 -2.2851
25212SOL    HW278175   5.863   3.043   4.288  0.8390 -0.8284  2.3763
25213SOL     OW78176   0.111   9.638   1.208  0.1701  1.0019 -0.6668
25213SOL    HW178177   0.050   9.605   1.143 -0.9358  0.6015  0.5505
25213SOL    HW278178   0.198   9.616   1.174 -0.4520 -0.8366 -1.1128
25214SOL     OW78179   6.451   1.225  10.051 -0.2681  0.4806  0.5907
25214SOL    HW178180   6.498   1.144  10.032  0.1324  1.0238 -0.8771
25214SOL    HW278181   6.495   1.261  10.128  0.6579  0.1581  0.2163
25215SOL     OW78182   4.480   9.229   3.913 -0.4442 -0.2021  0.1238
25215SOL    HW178183   4.472   9.276   3.831  0.3665 -1.7133 -0.8364
25215SOL    HW278184   4.420   9.155   3.904 -0.4774 -0.2816  0.9496
25216SOL     OW78185   4.716   8.415   7.442 -0.2882 -0.1322 -0.1903
25216SOL    HW178186   4.774   8.374   7.506 -0.8893  0.4644  0.7601
25216SOL    HW278187   4.773   8.438   7.368  0.3290 -1.2431 -0.0643
25217SOL     OW78188   5.149   5.246   2.699 -0.0938 -0.4264  0.8928
25217SOL    HW178189   5.189   5.308   2.761  1.2434 -0.2717 -0.1181
25217SOL    HW278190   5.117   5.175   2.755 -1.8293  1.2297  2.0951
25218SOL     OW78191   2.866   0.562   7.669  0.0327  0.8381 -0.4366
25218SOL    HW178192   2.878   0.657   7.659 -1.3816  1.0308 -0.4723
25218SOL    HW278193   2.892   0.525   7.585 -1.2156  1.3873 -1.0779
25219SOL     OW78194   4.673   9.582   1.204  0.0849  0.4334 -0.3062
25219SOL    HW178195   4.581   9.607   1.205  0.1154  0.5221  0.0973
25219SOL    HW278196   4.672   9.486   1.200 -0.0184  0.3903  0.8292
25220SOL     OW78197   7.141   9.159   3.024 -0.2577  0.4919 -0.2527
25220SOL    HW178198   7.168   9.232   3.079  3.3381 -0.7117 -0.2849
25220SOL    HW278199   7.208   9.155   2.955 -2.3154 -0.6967 -2.2548
25221SOL     OW78200   5.662   6.162   7.609 -0.2012 -0.2953  0.6341
25221SOL    HW178201   5.577   6.167   7.651 -0.1120  1.2446  0.6800
25221SOL    HW278202   5.645   6.126   7.522 -0.9476  0.3294  0.5217
25222SOL     OW78203   1.676   5.207   8.737  0.7438  0.0848  0.0311
25222SOL    HW178204   1.582   5.226   8.726  0.4932 -1.3253 -0.3761
25222SOL    HW278205   1.711   5.205   8.648  0.6052 -2.0556  0.0056
25223SOL     OW78206   5.348   2.648   5.629  0.0537 -0.2586  0.1785
25223SOL    HW178207   5.361   2.714   5.697 -0.9650  1.3082 -1.1062
25223SOL    HW278208   5.386   2.569   5.665  0.4053  0.7852  2.1764
25224SOL     OW78209   9.427   3.981   4.831  0.3317  0.5652 -0.4037
25224SOL    HW178210   9.519   4.006   4.844 -0.0918  1.0124  1.9845
25224SOL    HW278211   9.400   3.946   4.916 -1.7736  0.6465 -1.0226
25225SOL     OW78212   8.856   4.689   5.793 -0.3109 -0.1591  0.0318
25225SOL    HW178213   8.855   4.676   5.888  0.2016 -0.1710  0.0349
25225SOL    HW278214   8.773   4.651   5.763  0.4570 -2.0478  0.2288
25226SOL     OW78215   9.296   1.010   2.745  0.3432 -0.2899  0.1936
25226SOL    HW178216   9.304   1.071   2.671 -1.2301 -0.5721 -0.2378
25226SOL    HW278217   9.221   1.042   2.795 -1.1923 -2.4589 -0.6334
25227SOL     OW78218   2.334   5.829   2.301 -0.3714 -0.5737 -0.7613
25227SOL    HW178219   2.427   5.849   2.313 -0.3789  0.1657 -1.8883
25227SOL    HW278220   2.289   5.888   2.362 -0.3055  1.8837 -2.9857
25228SOL     OW78221   0.666   9.732   8.424 -0.2811  0.2214  0.1724
25228SOL    HW178222   0.670   9.705   8.516  0.7309  1.5533  0.5232
25228SOL    HW278223   0.598   9.676   8.386 -0.1581 -0.8815  1.5392
25229SOL     OW78224   9.961   3.436   6.390 -0.0991 -0.4555 -0.3506
25229SOL    HW178225   9.966   3.390   6.307  0.1529  0.6569 -0.9701
25229SOL    HW278226   9.869   3.462   6.398  0.0842  0.3650 -0.8109
25230SOL     OW78227   3.185   5.459   7.478 -0.1173  0.1081 -0.4817
25230SOL    HW178228   3.139   5.514   7.541  2.3043 -0.2601  1.6856
25230SOL    HW278229   3.136   5.377   7.476 -0.2493  0.1373  0.9264
25231SOL     OW78230   4.630   7.637   7.421  0.1638  0.1485 -1.4475
25231SOL    HW178231   4.595   7.694   7.489 -0.9406 -2.5451  0.3542
25231SOL    HW278232   4.628   7.690   7.341 -1.8123  2.2523 -0.0674
25232SOL     OW78233   5.135   1.843   7.729  0.3207 -0.0008  0.5972
25232SOL    HW178234   5.128   1.932   7.694 -0.7887 -0.0268  0.7137
25232SOL    HW278235   5.176   1.793   7.658 -0.0713  0.3756  0.0925
25233SOL     OW78236   3.468   8.788   7.729 -0.0090  0.0284  0.8747
25233SOL    HW178237   3.543   8.834   7.766  0.2505 -0.9613  1.6077
25233SOL    HW278238   3.503   8.705   7.698 -0.4537  0.3551 -0.5414
25234SOL     OW78239   8.961   6.497   4.755 -0.0135  0.4280 -0.3977
25234SOL    HW178240   8.990   6.497   4.664  0.1888  1.1864 -0.3390
25234SOL    HW278241   9.040   6.516   4.805  0.5083 -2.9833  0.1660
25235SOL     OW78242   1.661   7.885   9.317 -0.0203  0.2640 -0.4322
25235SOL    HW178243   1.643   7.954   9.254  2.3034 -0.0235 -1.4760
25235SOL    HW278244   1.756   7.888   9.329 -0.3932  0.3175  3.0855
25236SOL     OW78245   9.760   7.406   2.720  0.0192 -0.2229 -0.1686
25236SOL    HW178246   9.827   7.356   2.674 -1.1702 -0.2078 -1.9896
25236SOL    HW278247   9.777   7.497   2.696 -0.4466 -0.1867 -0.3743
25237SOL     OW78248   3.922   7.879   2.558 -0.3405  0.4779  0.2886
25237SOL    HW178249   3.870   7.956   2.582 -0.9899 -0.1550  0.9300
25237SOL    HW278250   3.955   7.899   2.470  2.1792  2.8632  1.7237
25238SOL     OW78251   5.339   9.332   0.368 -0.4677  0.6253 -0.6519
25238SOL    HW178252   5.339   9.245   0.327  1.3873  0.8141 -1.0931
25238SOL    HW278253   5.381   9.389   0.304 -1.0978  1.7253 -0.0995
25239SOL     OW78254   0.941   6.228   0.576 -0.0697  0.2234  0.7032
25239SOL    HW178255   0.912   6.315   0.550  2.1103  0.9167  0.4203
25239SOL    HW278256   0.970   6.238   0.667 -0.8123 -0.4657  1.0236
25240SOL     OW78257   9.057   3.505   2.348 -0.2445 -0.2182  0.1512
25240SOL    HW178258   9.139   3.458   2.335  0.9280  1.8664 -0.2433
25240SOL    HW278259   9.002   3.444   2.397  1.6987 -1.4786  0.8315
25241SOL     OW78260   3.364   8.770   8.871 -0.0727 -0.2505 -0.3707
25241SOL    HW178261   3.300   8.800   8.936 -0.8044 -1.0472 -0.7017
25241SOL    HW278262   3.368   8.841   8.807  0.4496  0.4211  0.4031
25242SOL     OW78263   7.510   8.036   1.693  0.3892  0.4793 -0.1388
25242SOL    HW178264   7.478   7.950   1.717 -0.5193  0.6734 -0.6363
25242SOL    HW278265   7.603   8.035   1.718 -0.0566  0.0079  1.5586
25243SOL     OW78266   5.347   3.773   5.640 -0.0258  0.0732 -0.0448
25243SOL    HW178267   5.346   3.833   5.714 -2.0487 -1.3248  1.1006
25243SOL    HW278268   5.278   3.804   5.582  0.5906  0.3149 -0.6524
25244SOL     OW78269   7.686   3.509   2.278 -0.3703  0.2253 -0.1819
25244SOL    HW178270   7.649   3.428   2.313  0.1254 -0.3513 -0.9584
25244SOL    HW278271   7.746   3.480   2.209  1.4474  1.1171  0.9576
25245SOL     OW78272   9.420   9.294   3.265 -0.2350  0.2343 -0.0134
25245SOL    HW178273   9.503   9.254   3.236  0.2784  1.3574 -0.1532
25245SOL    HW278274   9.391   9.345   3.189 -1.9233 -1.4547 -0.5395
25246SOL     OW78275   6.708   1.717   7.794  0.2140 -0.3438 -0.4437
25246SOL    HW178276   6.643   1.749   7.731  1.3948  1.4109 -0.8102
25246SOL    HW278277   6.789   1.711   7.743  1.1408  0.9116  0.8523
25247SOL     OW78278   4.745   0.594   5.579  0.6950  0.2304  0.1125
25247SOL    HW178279   4.831   0.561   5.604  0.8116  1.1366  0.9584
25247SOL    HW278280   4.753   0.689   5.588 -0.3964  0.3174  0.2178
25248SOL     OW78281   0.031   7.908   7.841  0.4981  0.2860 -0.0509
25248SOL    HW178282   0.007   7.815   7.837  1.2624  0.0560  0.6410
25248SOL    HW278283   0.106   7.916   7.782  1.5758  0.0966  1.2658
25249SOL     OW78284   2.793   0.047   6.822  0.4668  0.6236  0.9226
25249SOL    HW178285   2.827  -0.034   6.861  1.5367 -0.0425 -1.3475
25249SOL    HW278286   2.860   0.073   6.759 -0.2555  2.8543  1.0325
25250SOL     OW78287   6.104   6.072   1.556 -0.1958  0.1674  0.3833
25250SOL    HW178288   6.035   6.028   1.506  1.1869 -0.3713 -1.1203
25250SOL    HW278289   6.184   6.025   1.531  1.3184  3.4665 -1.1553
25251SOL     OW78290   7.315   5.974   3.913 -0.4171 -0.4070  0.1132
25251SOL    HW178291   7.313   6.027   3.992 -1.3074  1.4828 -1.1167
25251SOL    HW278292   7.388   6.009   3.862 -2.6720  1.5967 -1.9335
25252SOL     OW78293   9.503   5.920   0.131 -0.8399 -0.0564 -0.4367
25252SOL    HW178294   9.563   5.975   0.181 -0.2594 -1.5634  0.5936
25252SOL    HW278295   9.526   5.936   0.040  0.0671  0.5691 -0.1072
25253SOL     OW78296   8.270   2.513   0.697 -0.1216  0.1913  0.1481
25253SOL    HW178297   8.264   2.539   0.789  0.6537 -0.5397  0.4110
25253SOL    HW278298   8.364   2.506   0.680 -0.2728 -0.2764 -0.5345
25254SOL     OW78299   0.152   2.438   9.966 -0.3400  0.3487  0.2037
25254SOL    HW178300   0.214   2.485  10.021 -0.6955  0.4324  0.5401
25254SOL    HW278301   0.159   2.347   9.996  1.1164 -0.0107 -1.1698
25255SOL     OW78302   4.407   1.391   0.713  0.7546 -0.8316  0.7466
25255SOL    HW178303   4.315   1.393   0.740  0.4880 -0.1681 -0.2071
25255SOL    HW278304   4.409   1.334   0.636  0.5605  1.9637 -1.3626
25256SOL     OW78305   6.397   5.534   4.044 -0.1830 -0.2267 -0.4838
25256SOL    HW178306   6.305   5.542   4.020 -0.3357 -0.3443  0.0662
25256SOL    HW278307   6.415   5.440   4.042  0.4244 -0.1000 -2.4410
25257SOL     OW78308   6.338   8.232   9.236  0.6616  0.1237 -0.1026
25257SOL    HW178309   6.266   8.263   9.292  1.6490 -0.0932  1.3213
25257SOL    HW278310   6.300   8.159   9.187 -0.2005  0.2683  0.3297
25258SOL     OW78311   5.038   3.657   6.636 -0.2991  0.4785 -0.4012
25258SOL    HW178312   5.000   3.607   6.564 -1.7366  0.7128  0.1726
25258SOL    HW278313   5.010   3.610   6.715 -0.4626  1.3716  0.0801
25259SOL     OW78314   5.182   8.989   4.825  0.4149 -0.4508  0.2374
25259SOL    HW178315   5.194   8.991   4.919  0.1322 -0.7505  0.2820
25259SOL    HW278316   5.259   8.944   4.791 -0.0122 -1.3154  0.4159
25260SOL     OW78317   0.698   4.968   4.714 -0.7968 -0.3243  0.2441
25260SOL    HW178318   0.712   4.877   4.740 -0.4455 -0.1972  0.4967
25260SOL    HW278319   0.619   4.994   4.761 -0.5208 -0.2923  0.6913
25261SOL     OW78320   3.235   5.046   6.217 -0.1576  0.2426 -0.1369
25261SOL    HW178321   3.281   4.980   6.268  0.9645  2.2589  1.5015
25261SOL    HW278322   3.163   5.074   6.273  0.2210  1.4325 -0.2278
25262SOL     OW78323   3.397   8.672   6.627  0.1337 -0.3954  0.3765
25262SOL    HW178324   3.452   8.650   6.553 -0.4350 -1.4697  0.2635
25262SOL    HW278325   3.445   8.640   6.704  1.5276  2.2379  0.6522
25263SOL     OW78326   9.969   6.918   0.654  0.0683  0.5221 -0.6940
25263SOL    HW178327   9.972   6.993   0.594  0.7023  0.6232 -0.5335
25263SOL    HW278328   9.875   6.907   0.672 -0.0397  1.2188 -0.7904
25264SOL     OW78329   6.375   0.796   1.290 -0.5856  0.1305  0.1269
25264SOL    HW178330   6.405   0.834   1.373 -0.7685  0.7313 -0.0775
25264SOL    HW278331   6.428   0.717   1.279  0.2059  0.6344  0.2792
25265SOL     OW78332   0.412   4.685   9.027 -0.2320 -0.0869  0.1737
25265SOL    HW178333   0.425   4.595   8.996 -0.5466  1.2830 -4.2231
25265SOL    HW278334   0.498   4.712   9.058 -0.0026 -1.6558  0.9842
25266SOL     OW78335   1.594   1.058   9.649  0.2100 -0.0439 -0.3387
25266SOL    HW178336   1.556   1.127   9.594  2.0916  0.6024 -0.8899
25266SOL    HW278337   1.627   0.993   9.587 -0.9706 -1.1501  0.1628
25267SOL     OW78338   9.450   3.542   5.918  0.2044 -0.0118  0.5689
25267SOL    HW178339   9.356   3.523   5.917 -0.2581  2.2169 -1.2033
25267SOL    HW278340   9.480   3.516   5.831  0.9708  0.5262  0.6756
25268SOL     OW78341   9.151   4.252   1.157 -0.1746  0.0768 -0.2416
25268SOL    HW178342   9.059   4.261   1.183 -0.0021 -0.8026  0.7089
25268SOL    HW278343   9.178   4.167   1.192  1.2261  0.6878  0.2046
25269SOL     OW78344   3.403   5.884   7.126  0.5575 -0.3233  0.1334
25269SOL    HW178345   3.458   5.928   7.192  0.0993 -0.0957  0.3655
25269SOL    HW278346   3.439   5.796   7.120 -0.2565 -0.7805  1.6949
25270SOL     OW78347   8.913   4.031   8.433  0.3222 -0.0242 -0.1709
25270SOL    HW178348   8.961   4.111   8.454  0.7408 -0.3989  0.2873
25270SOL    HW278349   8.838   4.062   8.383  0.7841  0.6064 -0.4840
25271SOL     OW78350   3.934   3.006   3.973  0.0379 -0.1035  0.0878
25271SOL    HW178351   3.881   2.949   4.030 -0.7304  0.8582  0.3455
25271SOL    HW278352   3.876   3.028   3.901 -0.0501  1.2929  0.5826
25272SOL     OW78353   7.601   4.237   4.287 -0.2441 -0.1627 -0.0841
25272SOL    HW178354   7.668   4.251   4.354 -0.3828  0.2128 -0.0270
25272SOL    HW278355   7.596   4.142   4.279  0.8166 -0.1934 -0.6002
25273SOL     OW78356   2.573   4.032   8.349  0.0124  0.4640 -0.0237
25273SOL    HW178357   2.560   4.006   8.258  0.4351 -0.9657  0.3076
25273SOL    HW278358   2.668   4.033   8.360 -0.0578 -0.3955  0.6842
25274SOL     OW78359   2.694   9.325   5.511  0.1031 -0.6191 -0.0545
25274SOL    HW178360   2.712   9.409   5.552 -2.9002 -0.2842  0.6971
25274SOL    HW278361   2.709   9.261   5.580  0.2375 -0.5069  0.0196
25275SOL     OW78362   4.298   4.159   6.158  0.1576  0.6591 -0.0614
25275SOL    HW178363   4.221   4.211   6.133  1.4217  1.8222 -1.6220
25275SOL    HW278364   4.307   4.095   6.088 -0.3805 -0.6121  1.0014
25276SOL     OW78365   7.595   3.871   2.582 -0.0184  0.2614  0.0172
25276SOL    HW178366   7.523   3.930   2.604 -0.1798 -0.5023  1.6290
25276SOL    HW278367   7.617   3.893   2.491  0.4695  3.3602  0.8071
25277SOL     OW78368   6.515   7.643   4.566  0.4442 -0.7973  0.2897
25277SOL    HW178369   6.595   7.677   4.527  0.2124 -0.3171  0.2373
25277SOL    HW278370   6.505   7.556   4.528  0.5216 -0.5546 -0.2923
25278SOL     OW78371   7.101   5.823   9.833  0.1502  0.4097  0.5111
25278SOL    HW178372   7.020   5.822   9.884 -1.4687  1.4728 -1.9781
25278SOL    HW278373   7.129   5.731   9.830 -1.4913 -0.0999  0.5721
25279SOL     OW78374   0.492   1.376   6.181 -0.7426 -0.1890  0.8075
25279SOL    HW178375   0.499   1.280   6.187 -2.6075 -0.6473 -2.8125
25279SOL    HW278376   0.523   1.396   6.092 -1.9504  2.3650  0.9294
25280SOL     OW78377   6.046   7.763   3.642 -0.6083  0.3191 -0.0157
25280SOL    HW178378   6.052   7.760   3.547  0.4159  1.1283  0.0185
25280SOL    HW278379   6.117   7.706   3.672 -2.4291 -1.8905  0.2537
25281SOL     OW78380   3.025   1.762   1.272  0.0657  1.1565  0.3301
25281SOL    HW178381   3.057   1.852   1.280  0.2504  0.9676  1.8328
25281SOL    HW278382   2.933   1.771   1.247  0.1372  1.7602  0.2841
25282SOL     OW78383   9.926   7.747   2.130  0.1196 -0.2753 -0.2583
25282SOL    HW178384   9.937   7.656   2.104 -1.4195 -0.7837  0.8096
25282SOL    HW278385   9.851   7.778   2.079  1.1079  0.6292 -1.1792
25283SOL     OW78386   4.579   2.909   7.947 -0.5169  0.4480 -0.7939
25283SOL    HW178387   4.590   3.004   7.942  0.7048  0.3211 -0.6950
25283SOL    HW278388   4.645   2.881   8.011 -0.4024 -0.5396 -1.3423
25284SOL     OW78389   4.776   1.275   8.743 -0.1593  0.1205  0.2168
25284SOL    HW178390   4.747   1.284   8.834  0.4232  0.0140  0.4175
25284SOL    HW278391   4.865   1.239   8.750 -0.5411 -0.9403 -0.4300
25285SOL     OW78392   8.139   9.880   2.449 -0.3008 -0.0844  0.0334
25285SOL    HW178393   8.066   9.849   2.395  0.1795  1.7135 -1.6671
25285SOL    HW278394   8.134   9.975   2.445  0.5926  0.0758  2.0363
25286SOL     OW78395   7.563   4.050   8.268  0.3750 -0.4661 -0.5690
25286SOL    HW178396   7.648   4.021   8.236  0.4327 -1.2752  0.3121
25286SOL    HW278397   7.562   4.027   8.361 -1.0581 -1.0603 -0.7072
25287SOL     OW78398   4.360   1.599   7.606  0.3725  0.1594  0.1789
25287SOL    HW178399   4.413   1.632   7.678  0.7428 -3.1021  1.4688
25287SOL    HW278400   4.287   1.553   7.648 -1.4873  1.4079 -1.5605
25288SOL     OW78401   3.931  10.170   9.033 -0.1298 -0.1506  0.0482
25288SOL    HW178402   3.938  10.219   8.951 -0.0887 -0.5725 -0.2047
25288SOL    HW278403   3.908  10.235   9.099 -0.1016  0.2024 -0.2890
25289SOL     OW78404   8.631   2.601   1.545  0.2505 -0.1035 -0.4203
25289SOL    HW178405   8.692   2.675   1.543 -1.3770  1.2694 -0.8857
25289SOL    HW278406   8.633   2.570   1.636  0.5662  0.8415 -0.1038
25290SOL     OW78407   2.110   4.210   6.776  0.4964 -0.8064 -0.1086
25290SOL    HW178408   2.193   4.218   6.728  1.6063 -0.5192  1.8042
25290SOL    HW278409   2.074   4.299   6.777 -0.0640 -1.0110 -1.3152
25291SOL     OW78410   5.659   9.307   2.152 -0.0574 -0.0881  0.9297
25291SOL    HW178411   5.729   9.371   2.140  0.4400 -0.6451  0.8823
25291SOL    HW278412   5.677   9.239   2.088  0.3879 -1.1263  2.1327
25292SOL     OW78413   8.565   0.856   0.906  0.0414  0.0523  0.0587
25292SOL    HW178414   8.469   0.863   0.911  0.1418  0.8509  1.3111
25292SOL    HW278415   8.589   0.916   0.836 -0.4015 -0.4811 -0.5611
25293SOL     OW78416   5.076   0.432   3.605  0.4254 -0.3931 -0.1571
25293SOL    HW178417   5.090   0.525   3.592  2.7607 -0.8132 -0.9784
25293SOL    HW278418   5.146   0.405   3.665 -0.9032 -1.4047  0.9689
25294SOL     OW78419   2.542   9.560   6.495  0.3478  0.0524  0.2867
25294SOL    HW178420   2.475   9.497   6.519  0.2540  0.3065  0.6974
25294SOL    HW278421   2.494   9.642   6.482  0.7367  0.5497  1.8782
25295SOL     OW78422   5.076   7.182   6.020 -0.1653 -0.1739  0.6293
25295SOL    HW178423   5.136   7.217   6.086  0.3215  2.2297 -1.0430
25295SOL    HW278424   5.123   7.107   5.982  1.5198  1.2642 -0.1763
25296SOL     OW78425   4.260   1.027   4.745  0.7122  0.2028 -0.2151
25296SOL    HW178426   4.259   1.012   4.840  1.8197  1.1144 -0.0529
25296SOL    HW278427   4.194   1.095   4.731  1.1891  0.7055  0.0059
25297SOL     OW78428   4.754   9.766   4.911 -0.2483 -0.2019  0.2430
25297SOL    HW178429   4.673   9.804   4.946 -0.2955 -0.3068  0.2478
25297SOL    HW278430   4.787   9.712   4.982 -0.0950 -0.0393  0.2942
25298SOL     OW78431   1.569   2.737   9.911  0.8089  0.0320 -0.4150
25298SOL    HW178432   1.640   2.796   9.935  0.3090 -0.0256  1.2307
25298SOL    HW278433   1.590   2.710   9.821  1.3883  2.1567 -0.9498
25299SOL     OW78434   4.666   2.799   3.208 -0.2468 -0.0740  0.0195
25299SOL    HW178435   4.647   2.883   3.250 -0.7571 -0.0112 -0.3393
25299SOL    HW278436   4.637   2.733   3.271  0.0298  0.0131  0.2433
25300SOL     OW78437   6.996   6.865   0.649 -0.5211  0.0576 -0.0089
25300SOL    HW178438   6.938   6.806   0.601 -0.9298  1.4118 -1.2055
25300SOL    HW278439   6.997   6.830   0.738  0.7408 -2.8688 -1.1121
25301SOL     OW78440   0.350   7.434   9.955  0.2699 -0.3481 -0.0372
25301SOL    HW178441   0.267   7.412   9.997  0.4997  0.0086  0.6232
25301SOL    HW278442   0.403   7.355   9.962  0.8094  0.1280  1.6158
25302SOL     OW78443   1.977   1.612   6.857  0.1768 -0.0114  0.2335
25302SOL    HW178444   1.893   1.643   6.822  0.8277  0.1777 -1.1658
25302SOL    HW278445   2.042   1.640   6.793  1.3167 -0.1949  1.2977
25303SOL     OW78446   1.348   2.480   0.799 -0.1489 -0.2977 -0.2842
25303SOL    HW178447   1.332   2.479   0.705 -0.8164 -1.1645 -0.1635
25303SOL    HW278448   1.315   2.565   0.828  1.4362  0.5974 -1.0646
25304SOL     OW78449   0.350   0.404   8.015  0.4998  0.7280 -0.1101
25304SOL    HW178450   0.357   0.324   7.963  0.5799  1.7358 -1.6683
25304SOL    HW278451   0.432   0.407   8.065 -0.2726 -1.0864  1.3327
25305SOL     OW78452   7.247   8.765   8.060 -0.4817  0.0735  0.2131
25305SOL    HW178453   7.246   8.858   8.084  3.6112  0.4621 -0.5997
25305SOL    HW278454   7.167   8.752   8.010 -1.1661  3.1978  0.3639
25306SOL     OW78455   7.423   3.463   5.127 -0.0932 -0.0330  0.4378
25306SOL    HW178456   7.430   3.371   5.152  0.7518  0.4422  2.0276
25306SOL    HW278457   7.341   3.468   5.076 -0.4160 -1.5543  0.7853
25307SOL     OW78458   7.092   8.558   9.668 -0.5914  0.1815  0.2313
25307SOL    HW178459   7.001   8.587   9.681 -0.3912  1.0850 -0.3005
25307SOL    HW278460   7.135   8.579   9.751 -0.5454  1.0582 -0.0093
25308SOL     OW78461   7.591   7.591   7.408  0.1887 -0.7513 -0.7450
25308SOL    HW178462   7.502   7.570   7.435 -0.1307 -0.4529 -1.5715
25308SOL    HW278463   7.637   7.507   7.412  0.4649 -0.5211  1.8844
25309SOL     OW78464   1.445   0.363   6.817 -0.0493 -0.3433 -0.2895
25309SOL    HW178465   1.486   0.283   6.851  2.2773  1.7537  2.0148
25309SOL    HW278466   1.483   0.373   6.729  1.0870 -0.7598  0.1454
25310SOL     OW78467   5.922   2.081   1.605 -0.1933  0.5174  0.2837
25310SOL    HW178468   5.953   2.058   1.517 -1.6133  0.8567 -0.3279
25310SOL    HW278469   5.836   2.042   1.611 -0.5606  1.4265  1.1126
25311SOL     OW78470   2.035   1.614   1.012  0.7101  0.1956  0.4901
25311SOL    HW178471   2.000   1.544   0.957 -1.2688  0.4787  1.3569
25311SOL    HW278472   1.957   1.658   1.048  1.9457  0.9774  2.2903
25312SOL     OW78473   2.405   6.626   5.978 -0.2363 -0.4329  0.1786
25312SOL    HW178474   2.341   6.621   5.908  1.0353 -1.2694 -0.9413
25312SOL    HW278475   2.373   6.696   6.035 -1.3636  0.1329 -1.1416
25313SOL     OW78476   8.221   6.377   9.477 -0.1266  0.0590  0.2193
25313SOL    HW178477   8.314   6.363   9.491 -0.1658  0.4932  0.9529
25313SOL    HW278478   8.216   6.459   9.429 -0.0739 -0.6133 -0.9532
25314SOL     OW78479   2.024   5.691   2.243 -0.0021  0.7114  0.0299
25314SOL    HW178480   2.055   5.615   2.292 -1.2949 -0.8243 -1.4936
25314SOL    HW278481   2.066   5.683   2.158 -1.2226  0.9462 -0.5990
25315SOL     OW78482  10.020   6.799   3.044  0.4046  0.4757 -0.2512
25315SOL    HW178483   9.968   6.759   3.115 -0.2952 -0.0246 -1.0332
25315SOL    HW278484  10.111   6.780   3.067  0.1352 -0.4714  0.0573
25316SOL     OW78485   9.466   8.493   7.441  0.2421  0.0930 -0.1089
25316SOL    HW178486   9.415   8.453   7.512 -0.4985 -1.0897 -1.2924
25316SOL    HW278487   9.533   8.428   7.421  0.5767  0.5153 -0.3573
25317SOL     OW78488   8.427   9.518   3.572  0.0725 -0.3785 -0.6455
25317SOL    HW178489   8.345   9.564   3.554  0.2871  0.6220  0.8210
25317SOL    HW278490   8.405   9.456   3.641  0.3237 -0.8109 -0.9558
25318SOL     OW78491   8.028   9.630   9.390  0.0335 -0.3116  0.1708
25318SOL    HW178492   7.993   9.605   9.475 -1.1276  0.0472 -0.1925
25318SOL    HW278493   8.021   9.726   9.388  0.9725 -0.2415  0.0640
25319SOL     OW78494   9.251   0.801   4.025 -0.7454  0.6141 -0.2845
25319SOL    HW178495   9.233   0.788   3.931 -0.3523  2.0606 -0.5666
25319SOL    HW278496   9.323   0.864   4.027 -1.9363  1.9565  1.0242
25320SOL     OW78497   5.872   0.472   7.935 -0.0596  0.5460 -0.6461
25320SOL    HW178498   5.911   0.559   7.942  0.1392  0.4676 -0.8036
25320SOL    HW278499   5.857   0.459   7.842 -1.1117  0.8649 -0.5282
25321SOL     OW78500   2.764   2.026   8.419 -0.2601 -0.1682 -0.9281
25321SOL    HW178501   2.717   2.060   8.343  0.2801  0.2745 -1.0602
25321SOL    HW278502   2.849   2.069   8.416 -0.4767  0.3580  0.3080
25322SOL     OW78503   2.372   5.466   4.543 -0.2391  0.0166  0.0138
25322SOL    HW178504   2.353   5.398   4.607  0.6872 -0.9461 -0.7136
25322SOL    HW278505   2.462   5.494   4.562 -0.8087  1.4608  0.6775
25323SOL     OW78506  10.150   2.505   3.179 -0.7034 -0.6762 -0.5558
25323SOL    HW178507  10.113   2.429   3.226  0.9880  0.1673  2.2771
25323SOL    HW278508  10.241   2.481   3.163 -0.9239 -0.3891 -2.2283
25324SOL     OW78509   9.955   9.745   7.127  0.7763 -0.5553 -0.0738
25324SOL    HW178510   9.872   9.706   7.100 -1.1732  1.5089  2.6683
25324SOL    HW278511   9.965   9.721   7.219  1.3178  2.3406  0.6765
25325SOL     OW78512   8.942   2.599   9.863  0.3155 -0.3103 -0.0566
25325SOL    HW178513   8.882   2.673   9.866 -0.0544 -0.5987 -0.3238
25325SOL    HW278514   8.951   2.580   9.769  0.1102 -0.8535  0.0370
25326SOL     OW78515   9.271   8.647   7.958  0.2944  0.7586 -0.2226
25326SOL    HW178516   9.355   8.623   7.917  0.4319 -0.6220  0.8334
25326SOL    HW278517   9.245   8.569   8.006 -1.7432  1.0855 -0.7397
25327SOL     OW78518   6.815   4.132   7.250  0.2307 -0.5636  0.1990
25327SOL    HW178519   6.832   4.158   7.160  0.7528 -0.1730  0.4099
25327SOL    HW278520   6.788   4.040   7.244  1.9549 -1.0553 -0.1853
25328SOL     OW78521   7.175   2.815   1.265 -0.2724 -0.0654 -0.4009
25328SOL    HW178522   7.186   2.746   1.330 -0.6114 -0.4402 -0.7410
25328SOL    HW278523   7.207   2.777   1.184  0.7060  0.6075 -0.3424
25329SOL     OW78524   8.525   2.789   1.281  0.5699  0.1551 -0.1355
25329SOL    HW178525   8.510   2.850   1.353  1.2310 -1.3658  1.3065
25329SOL    HW278526   8.457   2.722   1.291 -0.1335  0.6036 -1.6954
25330SOL     OW78527   3.780   6.116   5.384  0.0175  0.1913 -0.3669
25330SOL    HW178528   3.726   6.190   5.411  0.4259  0.1608  0.5522
25330SOL    HW278529   3.869   6.139   5.410  0.0845 -0.8042  0.3200
25331SOL     OW78530   6.660   5.153   0.664 -0.2666 -0.1958 -0.4125
25331SOL    HW178531   6.650   5.140   0.759  1.7575  1.7917  0.1207
25331SOL    HW278532   6.749   5.124   0.645 -0.1037  0.9251 -1.3915
25332SOL     OW78533   8.181   7.144   3.840 -0.2274 -0.5017 -0.0321
25332SOL    HW178534   8.198   7.233   3.810 -0.3775  0.0648  1.5300
25332SOL    HW278535   8.085   7.137   3.841 -0.2838  0.2509  2.4623
25333SOL     OW78536   3.460   3.569   6.752  0.1195  0.1127 -0.0053
25333SOL    HW178537   3.445   3.616   6.670  1.5428 -0.1032 -0.3980
25333SOL    HW278538   3.375   3.530   6.773 -0.5556  1.1620 -0.7360
25334SOL     OW78539   3.547   3.195   7.621 -0.2478 -0.4339  0.2627
25334SOL    HW178540   3.559   3.132   7.550 -0.3480 -1.0987  0.8320
25334SOL    HW278541   3.491   3.150   7.684 -2.8559  1.3144 -0.7076
25335SOL     OW78542   3.007   1.295   0.039 -0.2646 -0.1731 -0.0864
25335SOL    HW178543   3.045   1.210   0.057  0.4767  0.7050  2.7505
25335SOL    HW278544   2.913   1.279   0.035 -0.1028 -1.1827  0.1546
25336SOL     OW78545   2.346   9.612   8.776 -0.1632 -0.1559 -0.4810
25336SOL    HW178546   2.285   9.538   8.774  0.4721 -0.7471  0.9174
25336SOL    HW278547   2.404   9.593   8.851  1.4200  0.6323 -1.4807
25337SOL     OW78548   0.169   1.870   6.511 -0.3535  0.1074 -0.3612
25337SOL    HW178549   0.117   1.795   6.540 -0.6340  0.5165  0.2134
25337SOL    HW278550   0.185   1.854   6.418 -0.0206 -0.8891 -0.1357
25338SOL     OW78551   6.753   3.619   7.352  0.3675 -0.3651  0.4835
25338SOL    HW178552   6.695   3.562   7.402  0.8778 -0.4196  1.0223
25338SOL    HW278553   6.806   3.664   7.418  0.5692  0.0808  0.0249
25339SOL     OW78554   4.580   1.176   7.387  0.3556  0.4853 -0.4810
25339SOL    HW178555   4.566   1.189   7.293  1.1980  0.7528 -0.5707
25339SOL    HW278556   4.564   1.261   7.427 -0.4076  0.2758 -0.3293
25340SOL     OW78557   5.695   0.894   5.598  0.4530 -0.5263  0.3425
25340SOL    HW178558   5.763   0.942   5.550  0.0560 -0.0461  0.2589
25340SOL    HW278559   5.738   0.869   5.680  0.7666 -0.3090  0.2488
25341SOL     OW78560  10.189   0.645   1.574  0.2882 -0.3792 -0.0140
25341SOL    HW178561  10.152   0.684   1.653  0.1052 -1.8466  0.6392
25341SOL    HW278562  10.135   0.567   1.558  1.0495 -0.7288 -0.9300
25342SOL     OW78563   6.144   6.406   3.023  0.6979 -0.1206 -0.5797
25342SOL    HW178564   6.227   6.444   2.997  1.9878 -2.4295  0.0157
25342SOL    HW278565   6.123   6.447   3.106  0.8424  1.0294 -1.1012
25343SOL     OW78566   5.504   6.521   3.054 -0.6328 -0.0489  0.1214
25343SOL    HW178567   5.445   6.468   3.108 -0.1881  0.0238  0.6845
25343SOL    HW278568   5.591   6.503   3.089 -0.5243  1.4325  0.6465
25344SOL     OW78569   8.568   7.849   8.171 -0.2765  0.4307  0.4961
25344SOL    HW178570   8.541   7.855   8.263  2.2367  1.5893  1.1985
25344SOL    HW278571   8.539   7.931   8.132  0.8801  1.0226  0.8778
25345SOL     OW78572   5.112   1.108   6.524  0.4502  0.1751  0.1279
25345SOL    HW178573   5.171   1.166   6.476  0.0562  0.5027  0.0382
25345SOL    HW278574   5.170   1.050   6.572  0.8683 -1.3170 -2.1165
25346SOL     OW78575   2.787   5.238   8.353  0.5762 -0.2935 -0.6632
25346SOL    HW178576   2.790   5.306   8.285  1.9001 -0.9988 -1.3376
25346SOL    HW278577   2.759   5.159   8.306 -0.9090 -0.2297  0.1109
25347SOL     OW78578   1.187   9.466   0.839  0.1096  0.4278  0.1103
25347SOL    HW178579   1.221   9.536   0.894 -0.0887  0.1532  0.5959
25347SOL    HW278580   1.111   9.504   0.795  0.1748  0.6028  0.1493
25348SOL     OW78581   5.528   2.342   6.981 -0.1237 -0.8414  0.2511
25348SOL    HW178582   5.470   2.274   6.948 -0.1309  0.2994 -2.2454
25348SOL    HW278583   5.469   2.411   7.013 -0.2091  0.1218 -1.8691
25349SOL     OW78584   0.207   9.933   1.139  0.4083  0.4436 -0.1001
25349SOL    HW178585   0.144  10.000   1.114  0.5689 -0.2750 -2.5024
25349SOL    HW278586   0.169   9.851   1.109  0.4417 -0.5313  2.3992
25350SOL     OW78587   5.324   1.221   3.598  0.1391 -0.0544 -0.2084
25350SOL    HW178588   5.265   1.146   3.607 -0.0962 -0.1388 -2.1151
25350SOL    HW278589   5.324   1.264   3.684 -2.1535 -0.4532 -0.0005
25351SOL     OW78590   3.764   8.759   7.835  0.2910 -0.2596 -0.2986
25351SOL    HW178591   3.718   8.705   7.770 -2.7849  1.1625  0.5657
25351SOL    HW278592   3.729   8.730   7.919  2.2843 -0.2653  0.5583
25352SOL     OW78593   0.195   8.080   3.541 -0.1332  0.3785 -0.2017
25352SOL    HW178594   0.213   7.988   3.563 -0.1124  1.1468  3.2190
25352SOL    HW278595   0.263   8.102   3.477  0.0149 -1.8994 -0.8871
25353SOL     OW78596   4.628   5.826   4.125  0.1243  0.1778  0.1829
25353SOL    HW178597   4.633   5.781   4.040  1.7147 -0.1180  0.4225
25353SOL    HW278598   4.535   5.839   4.140 -0.1607  0.4477 -1.7347
25354SOL     OW78599   1.200   7.976   3.965  0.4546  0.0910  0.0198
25354SOL    HW178600   1.137   8.041   3.994  1.0454  0.2907  0.8688
25354SOL    HW278601   1.148   7.897   3.950  0.1632 -0.0874  1.8547
25355SOL     OW78602   2.364   3.552   7.284  0.2721 -0.6890  0.4659
25355SOL    HW178603   2.388   3.590   7.199  0.8671 -0.9454  0.5203
25355SOL    HW278604   2.279   3.513   7.269  0.4759 -0.9322 -0.0747
25356SOL     OW78605   8.721   7.003   1.525  0.7253  0.4253 -0.1057
25356SOL    HW178606   8.664   7.057   1.580 -0.8576  0.0315 -1.3043
25356SOL    HW278607   8.741   6.927   1.578 -2.6828 -1.0603 -0.8292
25357SOL     OW78608   7.533   2.957   5.675 -0.9346 -0.7640  0.3006
25357SOL    HW178609   7.579   2.970   5.758  0.8377  0.2502 -0.7963
25357SOL    HW278610   7.460   3.018   5.678 -1.3194 -1.2730  1.4252
25358SOL     OW78611   9.209   0.240   2.507  0.0543  0.6408 -0.9070
25358SOL    HW178612   9.243   0.267   2.421 -0.7008  3.1828 -0.4442
25358SOL    HW278613   9.280   0.260   2.568  1.0186 -2.1994 -1.0390
25359SOL     OW78614   0.170   8.989   8.525  0.0996  0.2894 -0.1073
25359SOL    HW178615   0.111   8.966   8.597 -0.0867 -2.1904 -1.0050
25359SOL    HW278616   0.118   8.974   8.446  1.8124 -1.6113 -0.8957
25360SOL     OW78617   1.650   9.484   6.042  0.3978  0.7822  0.3180
25360SOL    HW178618   1.656   9.496   5.947  1.2046  1.3766  0.4364
25360SOL    HW278619   1.574   9.427   6.054  1.5374 -1.0129 -0.8017
25361SOL     OW78620   5.000   3.126   2.255  0.1683  0.8180 -1.0241
25361SOL    HW178621   4.960   3.049   2.294 -0.8393  1.1268 -1.4270
25361SOL    HW278622   5.057   3.092   2.185  1.6796  0.2887  0.4218
25362SOL     OW78623   3.560   0.775   6.418  0.6847 -0.2543 -0.2534
25362SOL    HW178624   3.585   0.705   6.477  0.5967 -0.5622 -0.5783
25362SOL    HW278625   3.531   0.730   6.338 -0.7211  0.0840  0.0420
25363SOL     OW78626   1.458   6.776   4.067 -0.0542 -0.1051 -0.4616
25363SOL    HW178627   1.506   6.835   4.125  0.4028 -0.2586 -0.6766
25363SOL    HW278628   1.369   6.812   4.063 -0.1567 -0.2478  0.5342
25364SOL     OW78629   2.125   9.427   5.245 -0.3631  0.7817 -0.2249
25364SOL    HW178630   2.120   9.332   5.252 -1.5482  0.8445 -0.1266
25364SOL    HW278631   2.138   9.458   5.334 -0.3392  0.7290 -0.2102
25365SOL     OW78632   5.754   9.606   9.866 -0.0067  0.0530 -0.6797
25365SOL    HW178633   5.686   9.663   9.903 -3.2502 -3.6515 -0.5985
25365SOL    HW278634   5.729   9.596   9.774  0.6899 -0.9620 -0.7624
25366SOL     OW78635   1.132   5.942  10.181 -0.1038 -0.3480 -0.3131
25366SOL    HW178636   1.050   5.924  10.135 -0.0911 -1.0217 -0.0773
25366SOL    HW278637   1.140   5.871  10.245  1.0011 -0.6582 -0.7817
25367SOL     OW78638   2.361   7.857   7.928 -0.1136 -0.8269 -0.1174
25367SOL    HW178639   2.330   7.910   7.855  1.9190  2.1404  1.0623
25367SOL    HW278640   2.321   7.898   8.005  3.5664  0.8016  1.0697
25368SOL     OW78641   1.051   6.071   6.327 -0.2420  0.2525 -0.3789
25368SOL    HW178642   0.985   6.132   6.293 -1.6572 -0.1530  1.6090
25368SOL    HW278643   1.017   6.042   6.411  1.3532 -1.8137 -0.4067
25369SOL     OW78644   8.300   6.717   3.371  0.2939  0.1410  0.1183
25369SOL    HW178645   8.342   6.684   3.291  2.0337 -1.1435  1.5098
25369SOL    HW278646   8.259   6.799   3.345  1.8872  0.3578 -1.8166
25370SOL     OW78647   3.516   6.425   8.353 -0.4766  0.1073  0.1921
25370SOL    HW178648   3.592   6.421   8.411 -0.7169  2.1697  0.6827
25370SOL    HW278649   3.543   6.482   8.281 -1.0257 -0.4149 -0.4365
25371SOL     OW78650   6.423   9.934   9.022 -0.2914  0.1049  0.4028
25371SOL    HW178651   6.476   9.884   8.960  0.0496 -1.1310  1.6434
25371SOL    HW278652   6.484   9.998   9.059 -0.6153  1.1589 -0.8727
25372SOL     OW78653   1.261   1.580   1.136  0.2942  0.6019 -0.2920
25372SOL    HW178654   1.230   1.557   1.223  2.3672  0.9255  0.5597
25372SOL    HW278655   1.182   1.603   1.087 -0.9441 -0.2363  1.2982
25373SOL     OW78656   4.518   3.907   6.445  0.4176 -0.5361 -0.0431
25373SOL    HW178657   4.492   3.890   6.354  0.6997 -0.4169 -0.1441
25373SOL    HW278658   4.613   3.894   6.446  0.7072  1.4642 -0.2283
25374SOL     OW78659   1.140   2.888   7.364  0.3083 -0.1079 -0.1905
25374SOL    HW178660   1.137   2.983   7.356  0.9268 -0.2808 -2.8633
25374SOL    HW278661   1.053   2.858   7.336  0.3795 -0.3656 -0.1439
25375SOL     OW78662  10.169  10.078   5.253 -0.2049 -0.3192  0.7254
25375SOL    HW178663  10.134  10.098   5.166 -0.0481  1.1847  1.0036
25375SOL    HW278664  10.220  10.155   5.277  0.6240 -1.1573  1.7087
25376SOL     OW78665   3.379   6.412   6.377  0.0869 -0.2557 -0.1967
25376SOL    HW178666   3.450   6.419   6.313  0.0373 -0.3608 -0.2631
25376SOL    HW278667   3.320   6.484   6.354  0.7213  0.5229  0.5492
25377SOL     OW78668   7.943   5.934   1.462  0.9292 -0.0687 -0.3512
25377SOL    HW178669   7.903   5.966   1.543  0.6019 -2.4574  0.4750
25377SOL    HW278670   7.869   5.926   1.401  0.8708 -0.1785 -0.2652
25378SOL     OW78671   8.379   1.114   1.241 -0.3626 -0.2213 -0.0853
25378SOL    HW178672   8.344   1.200   1.265 -2.9590 -1.0076 -0.9303
25378SOL    HW278673   8.395   1.070   1.324 -0.8428  0.3770  0.3244
25379SOL     OW78674   9.761   9.017   2.566 -0.1881 -0.2822 -0.1665
25379SOL    HW178675   9.747   9.006   2.472 -2.4443  0.0411  0.1077
25379SOL    HW278676   9.777   8.929   2.599  0.3682 -0.4259 -0.8078
25380SOL     OW78677   7.872   6.681   5.982  0.2144  0.0879 -0.1768
25380SOL    HW178678   7.944   6.632   6.022  0.1703  0.6597  0.6203
25380SOL    HW278679   7.908   6.769   5.967 -0.5449  0.5949  0.9254
25381SOL     OW78680   9.039  10.061   4.326  0.0193  0.4792 -0.4293
25381SOL    HW178681   9.033  10.152   4.357 -1.4143  0.0843  0.4643
25381SOL    HW278682   8.948  10.034   4.312  0.5273 -0.0105 -3.1160
25382SOL     OW78683   4.798   0.209   1.102  0.0604  0.1624  0.3396
25382SOL    HW178684   4.826   0.294   1.066 -2.1463  0.3655 -0.9678
25382SOL    HW278685   4.803   0.220   1.196 -0.0166  1.6977  0.1757
25383SOL     OW78686   7.658   5.762   0.804  0.0380 -0.4445 -0.2388
25383SOL    HW178687   7.693   5.833   0.750  0.0606  0.3688  0.8352
25383SOL    HW278688   7.736   5.715   0.834  0.1697  0.7907  1.3703
25384SOL     OW78689   6.790   9.903   3.290  0.3210  0.1482 -0.2649
25384SOL    HW178690   6.832   9.817   3.295  0.3382  0.2383  1.3174
25384SOL    HW278691   6.861   9.966   3.296  0.0684  0.2898  1.6325
25385SOL     OW78692   0.420   2.078   5.172 -0.2258  0.0594  0.0446
25385SOL    HW178693   0.411   2.048   5.263  1.3722  4.4101  1.7853
25385SOL    HW278694   0.343   2.134   5.158  0.1499  0.3430 -0.9062
25386SOL     OW78695   9.527   1.363   1.070  0.0445  0.0649 -0.1691
25386SOL    HW178696   9.615   1.399   1.063 -0.5402  1.2434 -1.6755
25386SOL    HW278697   9.474   1.416   1.010 -1.6297 -0.8131  0.4976
25387SOL     OW78698   9.621   4.850   9.062  0.1531  0.2577 -0.5437
25387SOL    HW178699   9.571   4.850   9.144 -1.7476 -0.4270 -1.6724
25387SOL    HW278700   9.712   4.841   9.090 -0.6749 -3.2865  1.4104
25388SOL     OW78701   3.166   6.957   7.093 -0.1957 -0.9011 -0.5123
25388SOL    HW178702   3.093   6.977   7.034 -2.0639 -1.3880  1.5820
25388SOL    HW278703   3.195   6.870   7.066 -0.2206 -0.6130 -1.4970
25389SOL     OW78704   9.667   8.676   8.385  0.0311  0.1831  0.3413
25389SOL    HW178705   9.673   8.625   8.466  0.5347 -0.4000 -0.0558
25389SOL    HW278706   9.714   8.757   8.404  1.3295 -0.5164  0.2068
25390SOL     OW78707   7.957   8.937   8.340 -0.0696 -0.0611 -0.1107
25390SOL    HW178708   8.037   8.885   8.328  0.1460 -0.4064  2.5682
25390SOL    HW278709   7.988   9.020   8.375 -0.9303 -0.4212  1.5326
25391SOL     OW78710   8.908   9.901   3.217 -0.1905  0.1307 -0.4276
25391SOL    HW178711   8.940   9.960   3.148 -0.7686  0.5832 -0.3063
25391SOL    HW278712   8.905   9.955   3.296  1.9079 -0.7688  0.3054
25392SOL     OW78713   0.968   4.199   2.665  0.0746  0.4611  0.2716
25392SOL    HW178714   0.884   4.220   2.624  0.1004 -0.3599 -0.2184
25392SOL    HW278715   1.025   4.273   2.643  0.1689 -0.0760 -1.4517
25393SOL     OW78716   8.442   7.018   2.732  0.8556 -0.0716  0.0241
25393SOL    HW178717   8.527   7.005   2.773  0.9916 -2.4806 -0.9431
25393SOL    HW278718   8.462   7.039   2.641  0.4119 -0.9711 -0.2838
25394SOL     OW78719   6.431   6.524   3.681 -0.0203 -0.0437  0.0586
25394SOL    HW178720   6.353   6.566   3.645 -1.6176 -1.5683  1.6865
25394SOL    HW278721   6.449   6.451   3.621  0.2985  0.4151 -0.4171
25395SOL     OW78722   4.443   0.049  10.162 -0.1318  0.1807 -0.1523
25395SOL    HW178723   4.522   0.078  10.208  0.9705 -1.1663 -1.1386
25395SOL    HW278724   4.450  -0.046  10.162 -1.8316  0.0490 -0.1512
25396SOL     OW78725   2.166   0.344   0.485  0.2649  0.4209  0.1247
25396SOL    HW178726   2.088   0.399   0.474  0.0438  0.1393  0.2497
25396SOL    HW278727   2.226   0.373   0.417 -0.1343  0.3304 -0.2720
25397SOL     OW78728   2.401   1.684   4.925  0.3083  0.1719 -0.1888
25397SOL    HW178729   2.421   1.751   4.860 -1.0930 -0.8341 -1.7200
25397SOL    HW278730   2.329   1.634   4.886 -0.1577 -0.8339  1.8892
25398SOL     OW78731   7.614   0.352   8.178 -0.7126 -0.1853 -0.3130
25398SOL    HW178732   7.606   0.355   8.083 -0.7171  1.0510 -0.2768
25398SOL    HW278733   7.538   0.301   8.207  0.9472 -3.2928 -1.1625
25399SOL     OW78734   9.893   3.206   1.823 -0.2293  0.3085 -0.0139
25399SOL    HW178735   9.945   3.218   1.903 -1.1065  1.8609  0.3341
25399SOL    HW278736   9.945   3.246   1.754 -0.7494  1.4968  0.2672
25400SOL     OW78737   6.983   4.674   0.280 -0.7930 -0.1396  0.0307
25400SOL    HW178738   7.071   4.681   0.241 -1.6676  1.0477 -1.7842
25400SOL    HW278739   6.938   4.610   0.226 -1.5312  0.3634  0.0472
25401SOL     OW78740   5.323   8.398   7.558  0.5462  0.3129  0.0441
25401SOL    HW178741   5.369   8.315   7.550  0.4443  0.3489 -1.0639
25401SOL    HW278742   5.304   8.407   7.651  3.9216  0.9117  0.7479
25402SOL     OW78743   7.010   5.776   1.551  0.9908 -0.2817 -0.2282
25402SOL    HW178744   7.059   5.856   1.567  0.3536  0.0446  0.1210
25402SOL    HW278745   6.997   5.774   1.456  3.4301 -1.4219 -0.5803
25403SOL     OW78746   6.617  10.004   5.451  0.3805  0.2663 -0.1483
25403SOL    HW178747   6.710  10.023   5.443  0.4248 -0.6554 -2.1304
25403SOL    HW278748   6.613   9.908   5.460 -0.3800  0.2584 -0.4785
25404SOL     OW78749   8.763   6.564   5.950 -0.2415  0.5840 -0.4087
25404SOL    HW178750   8.844   6.587   5.905 -0.9434  1.2321 -1.3599
25404SOL    HW278751   8.740   6.642   6.000  0.3206  0.0051  0.7606
25405SOL     OW78752   2.618   6.074   4.768 -0.4195  0.1899 -0.0806
25405SOL    HW178753   2.593   6.101   4.856  0.9540  1.7408 -0.1412
25405SOL    HW278754   2.640   6.156   4.723  1.2059 -0.7916 -1.1162
25406SOL     OW78755   6.204   9.089   3.860  0.2397 -0.1634 -0.4441
25406SOL    HW178756   6.143   9.108   3.932 -1.4955  0.1457 -1.9441
25406SOL    HW278757   6.285   9.063   3.903 -0.9704 -0.6418  1.6211
25407SOL     OW78758   2.917   9.963   2.460 -0.0401  0.2315  0.0466
25407SOL    HW178759   3.001   9.962   2.415  0.7504 -1.7921  1.4880
25407SOL    HW278760   2.933  10.011   2.541  0.0482 -1.2100  0.8919
25408SOL     OW78761   6.141   6.539   4.743 -0.6783  0.0271  0.0647
25408SOL    HW178762   6.219   6.488   4.721  0.3680  2.1181 -1.2273
25408SOL    HW278763   6.075   6.510   4.680  0.7327  2.1685 -2.5033
25409SOL     OW78764   9.959   8.650   9.411  0.4695 -0.2503  0.1141
25409SOL    HW178765  10.006   8.586   9.465 -2.4149 -2.3877  0.1899
25409SOL    HW278766   9.942   8.723   9.470  0.2261 -1.1799  1.2141
25410SOL     OW78767   1.367   2.269   3.553  0.1579  0.0293  0.0823
25410SOL    HW178768   1.353   2.190   3.501 -0.7326  1.1348 -1.4147
25410SOL    HW278769   1.283   2.314   3.551  0.7647  1.1972  0.5945
25411SOL     OW78770   9.904   1.368   5.070  0.0623 -0.0635 -0.4454
25411SOL    HW178771   9.947   1.291   5.107  0.4816 -0.1845 -1.1671
25411SOL    HW278772   9.813   1.362   5.100  0.5079  0.1172  0.9913
25412SOL     OW78773   0.345   3.178   0.341  0.5460 -0.3936  0.3795
25412SOL    HW178774   0.360   3.190   0.435 -0.0171 -1.3321  0.5905
25412SOL    HW278775   0.343   3.084   0.328  0.8441 -0.2679 -0.6192
25413SOL     OW78776   0.851   6.243   8.965  0.1183 -0.0301 -0.4726
25413SOL    HW178777   0.925   6.233   9.025 -0.6605 -3.5826 -0.0410
25413SOL    HW278778   0.891   6.260   8.880  1.3382  0.5420  0.1972
25414SOL     OW78779   9.572   5.340   4.959 -0.3387  0.2081  0.1135
25414SOL    HW178780   9.518   5.336   4.880 -1.1205  0.7996  0.6076
25414SOL    HW278781   9.563   5.430   4.990  3.1541  1.1273 -1.3179
25415SOL     OW78782   0.250   9.160   7.213 -0.4727  0.0797  0.4219
25415SOL    HW178783   0.236   9.071   7.182 -3.5216  0.9881 -1.0538
25415SOL    HW278784   0.345   9.169   7.221 -0.0074 -2.5290 -1.6690
25416SOL     OW78785   1.096   5.007   7.346  0.1848 -0.2655 -0.0476
25416SOL    HW178786   1.063   5.051   7.425  1.2543  0.5227 -0.0247
25416SOL    HW278787   1.054   5.053   7.273 -1.0920 -1.2339  0.0569
25417SOL     OW78788   5.511   8.689   2.956 -0.2950 -0.3732  0.1756
25417SOL    HW178789   5.449   8.644   2.900  0.0855  0.2291 -0.7408
25417SOL    HW278790   5.594   8.644   2.940 -0.2459 -0.3948  0.4889
25418SOL     OW78791   2.484   9.242   0.372  0.1839 -0.4307  0.5554
25418SOL    HW178792   2.494   9.162   0.423 -1.1101 -0.3610  0.9366
25418SOL    HW278793   2.468   9.213   0.283 -0.5860 -0.6017  0.7497
25419SOL     OW78794   9.282   3.866   4.062 -0.1369 -0.4391  0.0713
25419SOL    HW178795   9.315   3.893   4.148 -1.8130 -1.5491  1.0829
25419SOL    HW278796   9.205   3.813   4.082  0.5151 -2.2430 -2.0410
25420SOL     OW78797   6.875   0.376   9.432 -0.1065 -0.4403  0.3436
25420SOL    HW178798   6.943   0.310   9.417  0.3839  0.1563 -0.0833
25420SOL    HW278799   6.853   0.368   9.524  1.5536  0.3195  0.8262
25421SOL     OW78800   8.601   7.333   7.649  0.4320 -0.2595 -0.3386
25421SOL    HW178801   8.664   7.350   7.720  0.4681 -1.3428 -0.0997
25421SOL    HW278802   8.537   7.403   7.657  2.1334  1.4296 -1.2010
25422SOL     OW78803   9.274   2.913   6.928  0.3327 -0.1580  0.3266
25422SOL    HW178804   9.209   2.849   6.899  0.4476 -0.3397  0.4671
25422SOL    HW278805   9.247   2.995   6.888  0.1420 -0.2814  0.2048
25423SOL     OW78806   8.982   5.389   3.363  0.0316 -0.5021 -0.3823
25423SOL    HW178807   8.889   5.412   3.367  0.8683  2.7357  1.8749
25423SOL    HW278808   9.020   5.456   3.307  1.2223 -1.1502 -0.3601
25424SOL     OW78809   7.741   0.093  10.094 -0.1611  0.1617 -0.3908
25424SOL    HW178810   7.792   0.172  10.114 -0.6330  0.3434  0.0797
25424SOL    HW278811   7.786   0.056  10.018  0.3866  0.5883 -0.2860
25425SOL     OW78812   2.151   7.651   4.365  0.2676 -0.0703 -0.3151
25425SOL    HW178813   2.079   7.605   4.408  1.3941 -0.3542  1.3236
25425SOL    HW278814   2.115   7.677   4.280 -1.6860 -0.4003  0.3715
25426SOL     OW78815   3.416   4.122   7.658  0.6826 -0.0924  0.0655
25426SOL    HW178816   3.391   4.076   7.738  0.9332  0.9373  0.7454
25426SOL    HW278817   3.503   4.157   7.676  1.2586 -0.8823 -1.1028
25427SOL     OW78818   2.404   1.840   0.585  0.1888 -0.2564  0.4945
25427SOL    HW178819   2.357   1.837   0.502 -0.6519 -0.3585  0.9638
25427SOL    HW278820   2.469   1.908   0.574 -0.1886  0.0064 -0.1129
25428SOL     OW78821   7.850   5.677   2.154 -0.1455 -0.2034 -0.0622
25428SOL    HW178822   7.818   5.748   2.099 -0.0631 -1.3244 -1.6179
25428SOL    HW278823   7.791   5.676   2.229 -1.5998  0.0194 -1.1796
25429SOL     OW78824   6.532   7.539   2.949 -0.2352  0.0975 -0.0911
25429SOL    HW178825   6.519   7.630   2.922  0.2953  0.0510 -0.5062
25429SOL    HW278826   6.551   7.492   2.868  0.5681 -0.1822  0.2520
25430SOL     OW78827   0.519   9.926  10.171 -0.3287 -0.3895 -0.2652
25430SOL    HW178828   0.611   9.945  10.186 -0.2085 -0.8520 -0.4280
25430SOL    HW278829   0.478  10.012  10.162 -0.0151 -0.1641  0.3950
25431SOL     OW78830   8.455   9.923   4.394  0.1457 -0.2247  0.0942
25431SOL    HW178831   8.478   9.928   4.486  0.3246 -0.4269  0.0608
25431SOL    HW278832   8.538   9.908   4.349 -0.2429 -2.6815  0.1230
25432SOL     OW78833   4.173   3.480   2.441 -0.0892 -0.3446 -0.5260
25432SOL    HW178834   4.159   3.501   2.348  1.0043 -2.8697 -1.2987
25432SOL    HW278835   4.085   3.470   2.477 -0.5013 -0.9103 -1.6676
25433SOL     OW78836   3.292   1.806   4.105  0.1003  0.0828 -0.3022
25433SOL    HW178837   3.374   1.800   4.154 -1.2586  2.0488  2.3377
25433SOL    HW278838   3.268   1.899   4.109 -2.6761 -0.5948 -0.2956
25434SOL     OW78839   7.006   5.544   8.877 -0.3575  0.8029  0.0610
25434SOL    HW178840   7.051   5.570   8.796  0.1308 -0.7540 -0.1807
25434SOL    HW278841   6.914   5.567   8.861 -0.0665  1.6567 -0.4403
25435SOL     OW78842   2.094   7.767   7.226 -0.3697  0.1175 -0.1927
25435SOL    HW178843   2.088   7.791   7.319  0.3080  1.5423 -0.5061
25435SOL    HW278844   2.187   7.778   7.205 -0.9891  2.6633 -1.7841
25436SOL     OW78845   6.966   0.183   4.990  0.3273 -0.1152 -0.2681
25436SOL    HW178846   6.966   0.244   4.916 -0.7212  1.8014  1.2411
25436SOL    HW278847   7.018   0.227   5.057  0.2380 -1.2636  0.5714
25437SOL     OW78848   8.477   3.088   2.862 -0.1985 -0.1476  0.0890
25437SOL    HW178849   8.551   3.089   2.802 -0.2981 -3.5170 -0.1830
25437SOL    HW278850   8.400   3.077   2.806 -0.3726 -2.3117  0.6974
25438SOL     OW78851   2.289   6.464   1.306 -0.0487 -0.3668  0.5551
25438SOL    HW178852   2.299   6.421   1.221 -0.1803  0.1724  0.2637
25438SOL    HW278853   2.195   6.459   1.324 -0.1546  0.3388  0.2287
25439SOL     OW78854   4.401   9.344   1.931 -0.3533  0.3399  0.0457
25439SOL    HW178855   4.472   9.289   1.963 -1.5910 -0.7134  1.0288
25439SOL    HW278856   4.430   9.434   1.949  0.6652 -0.0926  0.5675
25440SOL     OW78857   7.916   7.102   8.236  0.0462 -0.5246 -0.2885
25440SOL    HW178858   7.854   7.173   8.219 -0.3564 -0.5158  1.1130
25440SOL    HW278859   7.922   7.054   8.154 -1.0096  0.0979 -0.7336
25441SOL     OW78860   8.847   9.796   7.994 -0.0778  0.4914 -0.6108
25441SOL    HW178861   8.795   9.727   8.035  0.0509  0.5542 -0.3394
25441SOL    HW278862   8.831   9.874   8.048  1.1781  0.2370  0.1374
25442SOL     OW78863   1.049   2.095   3.457 -0.1776  0.0161  0.2781
25442SOL    HW178864   1.010   2.177   3.428  0.9765  0.4707 -0.0175
25442SOL    HW278865   1.051   2.101   3.552 -0.4644  0.1579  0.2738
25443SOL     OW78866   1.123   9.034   2.460  0.1375 -0.2461 -0.5178
25443SOL    HW178867   1.148   9.003   2.547 -1.0104  1.1969  0.3427
25443SOL    HW278868   1.204   9.072   2.425  0.9351 -1.9990 -0.6238
25444SOL     OW78869   3.753   7.230   6.220  0.8676  0.1425  0.1833
25444SOL    HW178870   3.835   7.189   6.247  2.4429  2.1932 -1.3518
25444SOL    HW278871   3.693   7.157   6.209  2.0933 -1.3059  2.5365
25445SOL     OW78872   0.860   8.029   5.056 -0.2278 -0.2015 -0.2265
25445SOL    HW178873   0.919   8.101   5.079 -1.6520  0.8140  0.3453
25445SOL    HW278874   0.917   7.964   5.015  1.0511  1.3742 -1.0519
25446SOL     OW78875   5.281   0.862   1.226 -0.4397 -0.2430 -0.4868
25446SOL    HW178876   5.287   0.768   1.245  0.9612 -0.7339 -3.0610
25446SOL    HW278877   5.196   0.871   1.182 -2.7087  0.5436  3.7842
25447SOL     OW78878   3.750   0.374   4.878 -0.1923  0.3915 -0.3306
25447SOL    HW178879   3.755   0.441   4.810  0.7722 -0.0227 -0.6823
25447SOL    HW278880   3.823   0.394   4.937 -1.6967  1.4190  1.2234
25448SOL     OW78881   2.413  10.193   4.852  0.4617 -0.6680  0.1436
25448SOL    HW178882   2.405  10.110   4.899  1.1511 -1.1374 -0.5558
25448SOL    HW278883   2.337  10.196   4.795  0.4923 -0.8781  0.0907
25449SOL     OW78884   8.608   5.548   6.899  0.0598 -0.1868  0.0459
25449SOL    HW178885   8.595   5.460   6.935  1.6361 -0.4844 -0.0908
25449SOL    HW278886   8.687   5.580   6.941 -1.8576  2.1812  1.9679
25450SOL     OW78887   4.498   6.268   2.182 -0.0494 -0.2300 -0.6115
25450SOL    HW178888   4.478   6.351   2.139  2.0173 -0.0454 -1.2490
25450SOL    HW278889   4.468   6.201   2.120  2.6998  0.0385 -2.3188
25451SOL     OW78890   2.676   0.942   7.456 -0.3628  0.0135 -0.0808
25451SOL    HW178891   2.651   0.881   7.386 -1.1718 -0.0944  0.2913
25451SOL    HW278892   2.676   1.028   7.415 -1.6015  0.0413 -0.0377
25452SOL     OW78893   1.758   5.564   1.543  0.4447  0.1067 -0.1865
25452SOL    HW178894   1.672   5.540   1.576  0.7277 -1.5824 -0.6423
25452SOL    HW278895   1.758   5.536   1.452  2.4828 -2.6408  0.5782
25453SOL     OW78896   9.241   5.808   8.212 -0.1764  0.0359 -0.3396
25453SOL    HW178897   9.189   5.738   8.172 -2.3965  1.2327  0.4257
25453SOL    HW278898   9.212   5.888   8.169  0.0895  0.8816  1.0153
25454SOL     OW78899   5.881   7.543   6.183 -0.5770  0.2175 -0.1613
25454SOL    HW178900   5.909   7.452   6.174  1.3707  0.6745  0.8675
25454SOL    HW278901   5.822   7.542   6.258 -1.7049 -0.4177 -1.0388
25455SOL     OW78902   9.942   3.743   8.973  0.5310 -0.4102  0.6272
25455SOL    HW178903   9.856   3.713   8.943 -0.1186  1.3781  0.6504
25455SOL    HW278904   9.960   3.821   8.921  2.3956 -1.0552  0.2434
25456SOL     OW78905   7.899   0.727   4.899  0.4121  0.3786 -0.4398
25456SOL    HW178906   7.956   0.803   4.911 -1.0254  1.2205  1.1212
25456SOL    HW278907   7.815   0.763   4.872 -0.5884 -0.5724  1.3337
25457SOL     OW78908   4.662   0.357   0.316  0.3708  0.2703 -0.2999
25457SOL    HW178909   4.634   0.364   0.408 -0.9990 -0.1108 -0.6667
25457SOL    HW278910   4.601   0.294   0.278  0.5104  0.9217 -1.6333
25458SOL     OW78911   4.027   3.338   3.904 -0.2802  0.1870  0.0512
25458SOL    HW178912   3.976   3.404   3.952 -0.1611  1.1332 -1.1077
25458SOL    HW278913   4.059   3.279   3.973 -0.3119  1.3857  1.1203
25459SOL     OW78914   1.329   3.209   9.897 -0.6175 -0.2854  0.0903
25459SOL    HW178915   1.407   3.162   9.869  0.8680  2.1741 -0.0400
25459SOL    HW278916   1.256   3.160   9.858  0.6171 -4.1494  2.4290
25460SOL     OW78917   0.405   3.726   4.861  0.5448  0.2602 -0.2735
25460SOL    HW178918   0.470   3.790   4.891  1.2520  0.0243 -1.2571
25460SOL    HW278919   0.451   3.642   4.866 -0.5512 -0.2480  1.5279
25461SOL     OW78920   1.476   8.876   7.123  0.3476 -0.2408 -0.7322
25461SOL    HW178921   1.526   8.876   7.041 -0.6543 -0.6912 -1.3524
25461SOL    HW278922   1.530   8.826   7.184  0.4055 -1.2301 -1.5651
25462SOL     OW78923   3.761   7.205   0.025  0.4366 -0.6217  0.8531
25462SOL    HW178924   3.811   7.151   0.086  0.4898 -1.1322  0.3650
25462SOL    HW278925   3.715   7.142  -0.031  0.6448 -0.1662  0.1536
25463SOL     OW78926   0.048   5.810   3.032 -0.1651  0.6068  0.5962
25463SOL    HW178927   0.093   5.894   3.033 -0.1846  0.6126  1.6947
25463SOL    HW278928  -0.042   5.832   3.058 -0.0170  0.1723  1.4981
25464SOL     OW78929   6.064   5.871   6.163  0.5785 -0.5276 -0.1819
25464SOL    HW178930   5.989   5.887   6.221  1.5650  2.8497  0.2463
25464SOL    HW278931   6.033   5.898   6.076  1.1271  0.4106 -0.0906
25465SOL     OW78932   5.663   8.452   0.702  0.1326  0.0806  0.7147
25465SOL    HW178933   5.732   8.442   0.637 -1.0367 -2.4787 -0.1966
25465SOL    HW278934   5.702   8.418   0.783  0.8165  1.1098  0.8207
25466SOL     OW78935   0.438   9.678   3.965 -0.4846  0.0263  0.4331
25466SOL    HW178936   0.370   9.697   3.901  0.4089  0.6552 -0.3352
25466SOL    HW278937   0.511   9.736   3.942  0.4584 -0.9065  1.0030
25467SOL     OW78938   6.687   1.124   8.737  0.6027  0.6804 -0.1322
25467SOL    HW178939   6.734   1.056   8.690 -1.1160 -0.4481 -0.2731
25467SOL    HW278940   6.595   1.109   8.715  0.0945  2.3490  0.7400
25468SOL     OW78941   0.805   0.915   7.538 -0.0378  0.2874 -0.3205
25468SOL    HW178942   0.756   0.833   7.525  0.9014 -0.2593 -0.4178
25468SOL    HW278943   0.855   0.926   7.457  0.2075  0.7081 -0.1131
25469SOL     OW78944   0.590  10.138   0.304 -0.1343 -0.6462  0.8079
25469SOL    HW178945   0.642  10.213   0.275  1.9556 -2.3793 -0.1092
25469SOL    HW278946   0.538  10.114   0.227 -0.5290 -0.3475  0.9842
25470SOL     OW78947   7.887   0.008   0.847  0.2230  0.1165 -0.3239
25470SOL    HW178948   7.882  -0.072   0.900  1.0728 -0.5238 -1.1992
25470SOL    HW278949   7.956   0.059   0.889 -0.0224  0.2070 -0.0239
25471SOL     OW78950   9.925   9.927   8.282  0.1576 -0.0917 -0.7453
25471SOL    HW178951   9.981   9.979   8.339 -0.4420  0.0968 -0.3248
25471SOL    HW278952   9.873   9.873   8.341 -0.4469  0.0843 -1.1041
25472SOL     OW78953   0.352   5.521   2.029  0.1562  0.2515 -0.4789
25472SOL    HW178954   0.314   5.473   2.102 -2.8092  2.0157 -0.7617
25472SOL    HW278955   0.418   5.577   2.069 -0.4453  0.1613  0.6547
25473SOL     OW78956   1.846   0.555   1.917 -0.0104 -0.3860 -0.2004
25473SOL    HW178957   1.907   0.626   1.936 -2.2985  1.4917  0.3285
25473SOL    HW278958   1.902   0.480   1.899  2.5004  1.7365 -1.6195
25474SOL     OW78959   3.682   1.425   4.237 -0.4052 -0.1007  0.2861
25474SOL    HW178960   3.744   1.476   4.289  0.8817 -0.2334 -1.0682
25474SOL    HW278961   3.663   1.348   4.291  2.0246 -0.9581 -0.0192
25475SOL     OW78962   9.919   7.756   7.584  0.4255  0.1181  0.8772
25475SOL    HW178963   9.889   7.843   7.611  0.6019  0.5808 -0.4108
25475SOL    HW278964   9.841   7.715   7.547  0.9308  0.6629 -0.8297
25476SOL     OW78965   5.317   7.392   5.872  0.1946 -0.1202 -0.7188
25476SOL    HW178966   5.246   7.401   5.809  0.5710  1.8138 -0.9188
25476SOL    HW278967   5.394   7.371   5.820 -0.4310 -3.6103 -0.3743
25477SOL     OW78968   1.305   1.972   6.760  0.4155 -0.2033  0.1786
25477SOL    HW178969   1.322   1.992   6.852 -1.5272 -1.6699  0.8593
25477SOL    HW278970   1.391   1.979   6.718  1.0576  2.0306  1.7892
25478SOL     OW78971  10.076   6.755   7.765  0.3480  0.0087 -0.0677
25478SOL    HW178972  10.077   6.774   7.671  0.0303 -3.4269 -0.8330
25478SOL    HW278973  10.000   6.697   7.777  1.5084 -1.1656  1.9365
25479SOL     OW78974   7.804   3.127   5.016  0.0171 -0.0241 -0.6001
25479SOL    HW178975   7.722   3.160   4.981 -1.0956 -1.0751  0.9649
25479SOL    HW278976   7.807   3.160   5.106  1.0827 -0.3745 -0.4938
25480SOL     OW78977   8.883   4.092   1.868 -0.3425 -0.2788  0.0854
25480SOL    HW178978   8.955   4.032   1.887  0.5760  0.9878  0.6971
25480SOL    HW278979   8.808   4.055   1.914  0.3908 -0.5753  1.0668
25481SOL     OW78980   3.465   6.172   5.920 -0.6577  0.1231  0.8120
25481SOL    HW178981   3.438   6.146   6.008 -0.1067 -1.3323  0.5579
25481SOL    HW278982   3.386   6.207   5.879 -1.4399 -1.2838  1.1124
25482SOL     OW78983   6.944   7.010   5.251  0.4815  0.1591 -0.4525
25482SOL    HW178984   6.895   7.017   5.334 -1.4463  0.2867 -1.5802
25482SOL    HW278985   6.962   6.917   5.242 -0.1396  0.0269 -0.3559
25483SOL     OW78986   6.661   7.742   7.318 -0.4453  0.7752 -0.3168
25483SOL    HW178987   6.576   7.699   7.317 -0.7254  1.3304 -1.9550
25483SOL    HW278988   6.655   7.805   7.390 -0.5932 -0.7673  1.0443
25484SOL     OW78989   5.921   0.931   6.322  0.3353  0.2600 -0.2832
25484SOL    HW178990   5.872   1.013   6.321  0.2431  0.2025 -0.5981
25484SOL    HW278991   5.989   0.943   6.256  0.7410  0.3350  0.1439
25485SOL     OW78992   3.689   7.958   2.182  0.6885 -0.0343  0.1809
25485SOL    HW178993   3.652   7.883   2.229 -0.6003  1.0310  0.8787
25485SOL    HW278994   3.764   7.921   2.134 -0.6505 -2.0101 -0.4659
25486SOL     OW78995   5.656   6.649   0.256  0.0032 -0.7819 -0.5550
25486SOL    HW178996   5.570   6.637   0.296 -0.1078 -2.1510 -1.1910
25486SOL    HW278997   5.643   6.634   0.163  0.9130 -0.9048 -0.6734
25487SOL     OW78998   9.091   7.639   6.435  0.2806 -0.3879  0.0012
25487SOL    HW178999   9.109   7.551   6.404  1.0231 -0.4439  0.5595
25487SOL    HW279000   9.162   7.657   6.497  0.8965  1.1002 -1.1053
25488SOL     OW79001   9.886   5.451   8.619  0.4546 -0.3072 -0.2902
25488SOL    HW179002   9.879   5.458   8.714 -0.4250 -2.5377 -0.1582
25488SOL    HW279003   9.796   5.441   8.588  0.5670  2.1849 -1.5614
25489SOL     OW79004   5.866   2.119   5.734  0.0621 -0.4998  0.0461
25489SOL    HW179005   5.868   2.208   5.769 -0.2299 -1.0116  1.4211
25489SOL    HW279006   5.785   2.081   5.769  1.4811 -2.1460  1.6709
25490SOL     OW79007   2.786   1.757   1.161  0.0064 -0.1555 -0.0201
25490SOL    HW179008   2.767   1.710   1.080  2.6371  0.1450 -0.8313
25490SOL    HW279009   2.769   1.849   1.140  1.7500  0.0468 -0.5698
25491SOL     OW79010   2.133   3.208   9.547 -0.1541  0.1462 -0.0425
25491SOL    HW179011   2.060   3.238   9.493 -0.6425  1.1370  1.1437
25491SOL    HW279012   2.100   3.212   9.637  0.9654 -0.5394  0.4095
25492SOL     OW79013   7.200   9.090   7.245  0.0083  0.5632  0.0261
25492SOL    HW179014   7.233   9.009   7.207  1.8843  0.4640  1.7646
25492SOL    HW279015   7.188   9.148   7.170 -2.9599 -1.8165 -1.4172
25493SOL     OW79016   0.698   9.132   0.599 -0.3287  0.3631  0.0242
25493SOL    HW179017   0.769   9.184   0.637  0.2948  0.4532 -1.2654
25493SOL    HW279018   0.619   9.163   0.645  0.1849  1.6323  0.0739
25494SOL     OW79019   4.374   8.686   3.019  0.4478  0.0279 -0.1860
25494SOL    HW179020   4.395   8.605   2.973 -0.2958  0.0692 -0.6019
25494SOL    HW279021   4.399   8.669   3.110 -0.7992 -1.1049 -0.0311
25495SOL     OW79022   9.678   7.742   0.160  0.3457 -0.2395 -0.5227
25495SOL    HW179023   9.761   7.725   0.117  1.6884  2.1319  1.0190
25495SOL    HW279024   9.619   7.770   0.090  1.0705 -1.1175 -1.4925
25496SOL     OW79025   2.058   5.492   7.104 -0.0265 -0.3214  0.2774
25496SOL    HW179026   2.008   5.410   7.108 -2.2118  0.8417 -1.8697
25496SOL    HW279027   2.128   5.474   7.041  0.7029 -1.1264  1.2929
25497SOL     OW79028   9.937   3.345   3.776 -0.3316  0.1416  0.0903
25497SOL    HW179029   9.910   3.302   3.694  1.5793 -1.1915  0.1136
25497SOL    HW279030   9.998   3.283   3.816  0.2413  1.6394  1.5807
25498SOL     OW79031   1.142   7.368   2.851  0.5591  0.0676  0.5334
25498SOL    HW179032   1.110   7.361   2.941 -2.5156 -0.6976 -0.5499
25498SOL    HW279033   1.158   7.278   2.824 -0.9269  0.0968 -0.4883
25499SOL     OW79034   7.737   0.134   2.558 -0.7180 -0.4750  0.2717
25499SOL    HW179035   7.694   0.219   2.567 -0.3061 -0.3271  0.8875
25499SOL    HW279036   7.688   0.076   2.616  0.9887  0.1149  2.3789
25500SOL     OW79037   2.692   4.253   4.012  0.8017  0.1047  0.8412
25500SOL    HW179038   2.666   4.259   3.921  2.6165 -1.4265  0.1763
25500SOL    HW279039   2.629   4.307   4.059 -1.1661 -0.4309 -1.1064
25501SOL     OW79040   8.927   2.398   1.584 -0.1300 -0.2596 -0.2791
25501SOL    HW179041   8.997   2.358   1.636  2.4841 -0.8125 -4.0924
25501SOL    HW279042   8.939   2.492   1.597  0.8076 -0.3769 -0.2968
25502SOL     OW79043   3.925   7.651   6.177  0.0714 -0.2308 -0.3901
25502SOL    HW179044   3.834   7.648   6.147 -0.1492  1.0246  0.1142
25502SOL    HW279045   3.970   7.584   6.126 -0.6952  0.5585 -2.1514
25503SOL     OW79046   0.083   1.758   5.795  0.3715  0.3131 -0.4180
25503SOL    HW179047   0.028   1.824   5.836  2.5385  1.0679  1.3769
25503SOL    HW279048   0.106   1.697   5.865  3.4025  1.1146 -0.6481
25504SOL     OW79049   4.592   3.638   1.641  0.0284 -0.1185  0.4452
25504SOL    HW179050   4.684   3.612   1.642  0.0437 -0.1222 -0.5082
25504SOL    HW279051   4.584   3.703   1.711  1.4335  2.1410 -1.4098
25505SOL     OW79052   6.462   6.295   3.522  0.1965 -0.3776  0.3490
25505SOL    HW179053   6.414   6.253   3.450  0.6814 -0.4933  0.0903
25505SOL    HW279054   6.553   6.297   3.492  0.3281 -0.0061  0.7656
25506SOL     OW79055   0.149   8.752   8.137  0.2675  0.3391  0.4206
25506SOL    HW179056   0.216   8.710   8.190 -0.2167 -0.3503  0.4964
25506SOL    HW279057   0.179   8.843   8.128  1.0074  0.1344  0.7720
25507SOL     OW79058   3.388   6.257   2.881  0.2219  0.3926 -0.3189
25507SOL    HW179059   3.416   6.188   2.940  0.5182 -1.7090 -2.8405
25507SOL    HW279060   3.468   6.307   2.863  0.6626 -0.5113 -0.9153
25508SOL     OW79061   2.795   6.781   6.021 -0.1028  0.5235  0.1263
25508SOL    HW179062   2.766   6.861   6.065 -0.7158  0.9464 -1.0348
25508SOL    HW279063   2.829   6.727   6.091  1.3762  2.2580  0.7902
25509SOL     OW79064   0.348   7.605   3.431  0.1833  0.6247  0.8236
25509SOL    HW179065   0.436   7.571   3.416 -0.2998 -1.1173  1.7869
25509SOL    HW279066   0.310   7.545   3.495 -1.7275  1.3197  0.3714
25510SOL     OW79067   7.895   4.152   8.846 -0.1597  0.3249 -0.0902
25510SOL    HW179068   7.946   4.087   8.797 -0.7536 -0.1001 -0.1447
25510SOL    HW279069   7.844   4.101   8.908 -1.1973  0.6833 -0.6455
25511SOL     OW79070   6.899   5.911   3.422 -0.0587 -0.5841  0.1935
25511SOL    HW179071   6.874   5.824   3.452  1.3338 -0.5136  1.5854
25511SOL    HW279072   6.991   5.902   3.396  0.0143  0.4077  0.0926
25512SOL     OW79073   2.823   2.552   6.992  0.6543  0.4166  0.7815
25512SOL    HW179074   2.734   2.520   6.980  1.1948 -1.5608  1.8205
25512SOL    HW279075   2.814   2.622   7.057  0.0667 -1.0819  2.3642
25513SOL     OW79076   8.768   7.286   1.136  0.5707 -0.0532  0.3394
25513SOL    HW179077   8.730   7.247   1.214  0.0507  0.9629  0.6038
25513SOL    HW279078   8.802   7.371   1.166  1.6331 -0.2620 -0.2298
25514SOL     OW79079   6.785   8.131   7.736  0.1114 -0.0424 -0.5351
25514SOL    HW179080   6.744   8.176   7.810  0.1785 -0.6928 -0.0959
25514SOL    HW279081   6.727   8.148   7.662 -0.7198 -0.5852 -0.0181
25515SOL     OW79082   3.881   6.799   9.431  0.0030  0.0406 -0.0543
25515SOL    HW179083   3.921   6.763   9.352  0.2951  1.5654 -0.6119
25515SOL    HW279084   3.811   6.856   9.400 -0.1018  0.3903  0.7968
25516SOL     OW79085   6.961  10.025   1.027 -0.1621  0.2063 -0.1534
25516SOL    HW179086   6.915   9.942   1.037 -3.9996  2.1518 -0.7540
25516SOL    HW279087   6.966  10.061   1.116  1.0755 -0.4305  0.0410
25517SOL     OW79088   3.103   2.364   3.413  0.5077 -0.1377  0.1316
25517SOL    HW179089   3.091   2.433   3.347 -1.2956 -0.3246  0.2189
25517SOL    HW279090   3.139   2.409   3.489 -0.0466  0.6128 -0.0413
25518SOL     OW79091   6.205   2.598   5.588 -0.0283 -0.4856 -0.1796
25518SOL    HW179092   6.191   2.685   5.625 -1.4980 -0.5469 -0.5963
25518SOL    HW279093   6.151   2.540   5.642  0.7232 -1.1076 -0.0834
25519SOL     OW79094   0.375   3.038   7.690 -0.2801  0.4061 -0.1829
25519SOL    HW179095   0.423   2.963   7.653  1.5913  0.7639  1.4406
25519SOL    HW279096   0.411   3.114   7.643 -0.5089  0.5063 -0.1933
25520SOL     OW79097   4.752   9.696   1.472  0.8100  0.1486  0.0855
25520SOL    HW179098   4.784   9.612   1.505 -0.4631 -0.3193  0.1792
25520SOL    HW279099   4.746   9.684   1.377  3.6343  1.2039 -0.2569
25521SOL     OW79100   8.573   8.293   3.366 -0.4521  0.3004  0.1940
25521SOL    HW179101   8.514   8.314   3.439  0.8247  0.1602  1.2967
25521SOL    HW279102   8.539   8.344   3.293 -0.3872  2.3044  1.5138
25522SOL     OW79103   1.527   2.531   6.042  0.3104 -0.5014 -0.5913
25522SOL    HW179104   1.607   2.526   5.990 -0.5196 -1.2022 -1.8112
25522SOL    HW279105   1.517   2.443   6.079  0.8767 -0.0180  0.7277
25523SOL     OW79106   6.541   4.425   5.144 -0.7702  0.4237  0.1339
25523SOL    HW179107   6.566   4.336   5.169  2.9017  1.1943 -0.3705
25523SOL    HW279108   6.622   4.476   5.155 -2.1547  3.1955 -1.8808
25524SOL     OW79109   9.703   4.375   6.854  0.3605 -0.3999 -0.5270
25524SOL    HW179110   9.625   4.361   6.801 -0.1112 -3.2647  0.8305
25524SOL    HW279111   9.754   4.295   6.842  2.2031  0.6589  0.0897
25525SOL     OW79112   9.832   6.977   2.053  0.2543  0.5033 -0.4009
25525SOL    HW179113   9.898   7.005   2.116  0.1784  1.2515 -0.6411
25525SOL    HW279114   9.804   6.891   2.083 -0.7331  1.4164  1.3189
25526SOL     OW79115   2.250   0.669   6.767 -0.4926 -0.3808  0.0534
25526SOL    HW179116   2.182   0.610   6.736 -1.2040  0.4616  0.0121
25526SOL    HW279117   2.214   0.757   6.755  0.1799  0.0352  1.0007
25527SOL     OW79118   4.583   9.994   3.506 -0.2154  0.2793 -0.0955
25527SOL    HW179119   4.612   9.934   3.438  0.0334 -0.5446  0.7204
25527SOL    HW279120   4.571  10.078   3.462 -1.6396 -0.6252 -1.4731
25528SOL     OW79121   6.904   1.000   8.411 -0.2609  0.0677  1.0656
25528SOL    HW179122   6.832   1.057   8.384 -0.5483 -1.7205 -2.2377
25528SOL    HW279123   6.981   1.056   8.407 -0.9356  0.9872  0.6733
25529SOL     OW79124   6.171   0.669   3.661  0.0470 -0.3940 -0.1136
25529SOL    HW179125   6.115   0.654   3.585  1.7859  0.7448 -1.6900
25529SOL    HW279126   6.232   0.595   3.661  0.1467 -0.3119  0.0760
25530SOL     OW79127   2.354   9.968   5.922 -0.4281 -0.2641 -0.1163
25530SOL    HW179128   2.435   9.966   5.871 -1.2688 -0.1307 -1.4767
25530SOL    HW279129   2.287   9.997   5.860 -1.5420 -0.4676  0.9708
25531SOL     OW79130   9.572   5.772   7.323 -0.5217  0.4664 -0.6240
25531SOL    HW179131   9.502   5.763   7.387 -1.4579 -0.2481 -1.7267
25531SOL    HW279132   9.653   5.755   7.372 -1.1684  0.7328  0.5262
25532SOL     OW79133   6.125   0.872   4.994  0.4050  0.2993 -0.2745
25532SOL    HW179134   6.161   0.787   5.021  1.0522  0.3018 -1.1012
25532SOL    HW279135   6.103   0.860   4.902  0.6664  1.0823 -0.4407
25533SOL     OW79136   9.068   2.754   1.078  0.3447 -0.0435 -0.1930
25533SOL    HW179137   9.062   2.775   0.985 -0.6642 -0.7825 -0.3017
25533SOL    HW279138   9.095   2.662   1.080 -1.1525 -0.4886  0.2178
25534SOL     OW79139   7.420   4.972   2.042 -1.0394 -0.5709  0.2692
25534SOL    HW179140   7.495   5.013   2.083  0.6843 -0.1548 -3.1156
25534SOL    HW279141   7.345   5.001   2.094  0.8698  0.9327  2.2669
25535SOL     OW79142   3.861   8.383   9.142  0.4457 -0.3189  0.4599
25535SOL    HW179143   3.837   8.404   9.232 -0.0231 -1.0049  0.4933
25535SOL    HW279144   3.899   8.465   9.108  0.2641  0.0548  1.1513
25536SOL     OW79145   1.124   0.126   4.210 -0.0868  0.0227  0.3996
25536SOL    HW179146   1.046   0.076   4.233  0.8526 -0.7127  2.1757
25536SOL    HW279147   1.167   0.142   4.294  0.8097  1.8528 -0.3878
25537SOL     OW79148   3.322   3.627   1.781  0.0713 -0.4510 -0.1797
25537SOL    HW179149   3.324   3.678   1.701 -0.9993 -0.9411 -0.5388
25537SOL    HW279150   3.351   3.687   1.850  1.0028 -0.0404 -0.9396
25538SOL     OW79151   7.326   5.047  10.154 -0.0850  0.1203 -0.4457
25538SOL    HW179152   7.392   5.112  10.129 -0.1342  0.4239  0.1928
25538SOL    HW279153   7.371   4.963  10.147  1.7452  0.5606  4.0470
25539SOL     OW79154   2.056   1.359   8.817  0.3718 -0.0753 -0.5667
25539SOL    HW179155   2.117   1.315   8.758 -0.8386  1.0081 -2.6929
25539SOL    HW279156   1.992   1.292   8.840  1.2666 -0.6978  0.0920
25540SOL     OW79157   5.170   3.477   2.611  0.2505  0.0688  0.1953
25540SOL    HW179158   5.111   3.487   2.686 -1.1876  1.2710 -1.0758
25540SOL    HW279159   5.115   3.441   2.542  1.4104 -0.3719 -0.5075
25541SOL     OW79160   0.490   4.109   1.139 -0.3181  0.4112  0.4640
25541SOL    HW179161   0.417   4.055   1.109 -1.1470  1.3604  0.7632
25541SOL    HW279162   0.511   4.074   1.226  0.6387 -0.8973 -0.2725
25542SOL     OW79163   8.643   7.473   2.666 -0.0769 -0.1581  0.8669
25542SOL    HW179164   8.671   7.385   2.641 -1.2627 -0.2521 -0.1898
25542SOL    HW279165   8.706   7.531   2.625 -0.4990 -0.4341 -0.1945
25543SOL     OW79166   9.799   5.614   7.048  0.2186 -0.0159  0.0046
25543SOL    HW179167   9.837   5.602   6.961 -0.6237 -2.6916 -0.0195
25543SOL    HW279168   9.869   5.593   7.109 -0.0014 -0.8425 -0.0291
25544SOL     OW79169   0.162   5.312   3.565 -0.8633  0.5319 -0.1216
25544SOL    HW179170   0.183   5.227   3.528 -1.3617  0.2160  0.3102
25544SOL    HW279171   0.235   5.368   3.539 -0.3678 -0.1038 -0.1201
25545SOL     OW79172   5.631   8.122   5.410  0.1879 -1.1565  0.3882
25545SOL    HW179173   5.704   8.151   5.465  0.1474  0.3686 -0.3405
25545SOL    HW279174   5.656   8.033   5.384  0.2654 -1.8738  2.7278
25546SOL     OW79175   4.297   3.194   2.074  0.2046  0.1194  0.3970
25546SOL    HW179176   4.288   3.248   1.996  0.7933 -0.7194 -0.2619
25546SOL    HW279177   4.368   3.133   2.053  0.8126  0.3063  1.8246
25547SOL     OW79178   4.247   9.024   6.753 -0.4892  0.6250 -0.1637
25547SOL    HW179179   4.181   9.065   6.809 -0.5885  0.9139 -0.4862
25547SOL    HW279180   4.269   8.942   6.796 -1.4274  0.2970 -0.3111
25548SOL     OW79181   2.606   7.248   7.162  0.3737 -0.6418 -0.1059
25548SOL    HW179182   2.644   7.161   7.173  0.4978 -0.6653 -0.7114
25548SOL    HW279183   2.580   7.252   7.070 -2.5410 -1.1958  0.6440
25549SOL     OW79184   4.360   5.897   4.234  0.3199 -0.1944  0.3603
25549SOL    HW179185   4.346   5.804   4.254  3.3830 -0.7131  0.3537
25549SOL    HW279186   4.352   5.942   4.318  0.0452 -0.6451  0.5733
25550SOL     OW79187   9.266   3.282   9.371  0.1686  0.0264  0.9473
25550SOL    HW179188   9.346   3.291   9.320  0.2691  0.4007  1.1732
25550SOL    HW279189   9.250   3.188   9.374  1.3760 -0.1501  2.0996
25551SOL     OW79190   1.710   8.255   2.036  0.3329  0.0530  0.2731
25551SOL    HW179191   1.676   8.326   2.090  0.2740 -0.2542  0.6501
25551SOL    HW279192   1.795   8.233   2.076  0.1778 -0.3394  0.3967
25552SOL     OW79193   1.650   4.478   2.732  0.0493 -0.4392  0.0207
25552SOL    HW179194   1.699   4.559   2.745 -1.7707  0.8805 -1.1403
25552SOL    HW279195   1.716   4.414   2.706  1.5243  0.6471  1.0366
25553SOL     OW79196   7.888   0.727   3.213 -0.1092  0.5687  0.0731
25553SOL    HW179197   7.916   0.817   3.224  0.6526  0.2434  0.8188
25553SOL    HW279198   7.965   0.674   3.233 -0.5735 -0.2508 -0.2556
25554SOL     OW79199   3.232   3.569   1.456  0.2137 -0.1463  0.3787
25554SOL    HW179200   3.153   3.598   1.502  0.1740  1.6504 -0.7495
25554SOL    HW279201   3.274   3.651   1.427  1.8718 -1.1215 -0.0457
25555SOL     OW79202   6.867   1.765   5.984  0.2563  0.1004  0.3951
25555SOL    HW179203   6.874   1.796   6.074 -0.2770  0.7949  0.1973
25555SOL    HW279204   6.816   1.684   5.991  2.6412 -1.4012  1.0449
25556SOL     OW79205   2.509   6.007   4.471 -0.9139  0.2153 -0.0974
25556SOL    HW179206   2.439   5.977   4.413 -1.8933 -0.6020  1.4597
25556SOL    HW279207   2.500   5.953   4.549  0.6150  1.0347  0.6786
25557SOL     OW79208   0.061   4.934   4.511 -0.1079 -0.1181  0.0199
25557SOL    HW179209   0.024   4.900   4.430  0.1815 -0.7440  0.1431
25557SOL    HW279210  -0.008   4.988   4.549  0.4034  1.6578 -1.5394
25558SOL     OW79211   1.409   9.756   6.146  0.2116 -0.5134 -0.0621
25558SOL    HW179212   1.412   9.729   6.054  0.6888  1.4462 -0.6368
25558SOL    HW279213   1.328   9.718   6.180 -1.3843  1.0196 -2.0229
25559SOL     OW79214   2.496   5.763   5.107 -0.2786 -0.6451 -0.1759
25559SOL    HW179215   2.521   5.743   5.197 -1.2454  1.5198  0.6166
25559SOL    HW279216   2.407   5.730   5.099 -0.9105  0.8958  0.3041
25560SOL     OW79217   1.445   3.057   3.907 -0.4323  0.5584 -0.4606
25560SOL    HW179218   1.377   3.030   3.969 -0.3020  0.6003 -0.3008
25560SOL    HW279219   1.526   3.019   3.941  0.2866  3.6791  1.4445
25561SOL     OW79220   0.184   6.125   8.134  1.0082 -0.5097 -0.2054
25561SOL    HW179221   0.200   6.153   8.044  1.7577  0.2467  0.1574
25561SOL    HW279222   0.197   6.204   8.187 -1.7131 -0.3818  0.3472
25562SOL     OW79223   9.777   4.148   6.316  0.1722  0.2335 -0.1919
25562SOL    HW179224   9.775   4.080   6.384  0.4494 -0.0024 -0.4166
25562SOL    HW279225   9.816   4.104   6.240 -1.1700  0.1747 -0.8615
25563SOL     OW79226   5.023   0.660   1.047  0.0370  0.2028 -0.5292
25563SOL    HW179227   5.094   0.626   1.101  0.6407 -1.2972 -2.2058
25563SOL    HW279228   4.956   0.592   1.051 -1.8865  2.1663  2.0727
25564SOL     OW79229   4.394   5.765   8.871  0.3930  0.1866  0.7125
25564SOL    HW179230   4.469   5.819   8.849 -0.2344  0.8740  0.2361
25564SOL    HW279231   4.328   5.788   8.806  0.3240 -1.6018  0.1134
25565SOL     OW79232   7.617   7.087   4.048 -1.1453 -0.0316 -0.2420
25565SOL    HW179233   7.676   7.045   4.110 -0.2864  0.4893 -0.7087
25565SOL    HW279234   7.550   7.020   4.030 -0.4421 -0.7845 -0.0818
25566SOL     OW79235   7.118   5.357   6.574  0.5454 -0.0442  0.2608
25566SOL    HW179236   7.150   5.426   6.516 -1.7073  0.8777  0.0625
25566SOL    HW279237   7.102   5.401   6.657 -2.1109  0.0190 -0.2247
25567SOL     OW79238   0.575   2.635   4.988  0.1295 -0.1525  0.0781
25567SOL    HW179239   0.511   2.574   4.952 -1.3674  0.8881  0.9234
25567SOL    HW279240   0.545   2.652   5.077  0.1292  2.3288 -0.3465
25568SOL     OW79241   9.232   6.190   5.967 -0.5725  1.0540  0.4022
25568SOL    HW179242   9.141   6.216   5.982 -0.6954 -0.0284  1.6515
25568SOL    HW279243   9.283   6.249   6.022 -0.3913  2.5956 -1.3728
25569SOL     OW79244   0.649   4.196   2.317  0.1831  0.0365  0.3404
25569SOL    HW179245   0.719   4.261   2.311  0.1975  0.0856  1.0324
25569SOL    HW279246   0.624   4.179   2.226 -0.5780  1.8406  0.1976
25570SOL     OW79247   8.346   0.086   0.468 -0.2234  0.1086 -0.3183
25570SOL    HW179248   8.287   0.104   0.542 -0.6571  0.0528 -0.6506
25570SOL    HW279249   8.288   0.057   0.398  0.4410 -2.6455  0.2144
25571SOL     OW79250   9.133   7.358   1.017  0.0378  0.0165  0.0585
25571SOL    HW179251   9.154   7.437   0.966  0.6264  0.4648  0.9755
25571SOL    HW279252   9.218   7.329   1.050 -0.1262 -1.2508 -0.6219
25572SOL     OW79253   7.195   5.399   1.477  0.3572 -0.8100  0.4151
25572SOL    HW179254   7.213   5.468   1.412 -0.2607 -0.4719  0.5937
25572SOL    HW279255   7.162   5.446   1.553 -2.0878 -1.4403 -0.2031
25573SOL     OW79256   7.304   8.344   7.268 -0.0951  0.1847  0.2935
25573SOL    HW179257   7.337   8.422   7.223 -0.4085 -0.5574 -1.2652
25573SOL    HW279258   7.299   8.277   7.199 -2.8127 -0.3304  0.9437
25574SOL     OW79259   7.479   5.917   8.940  0.7921  0.0915 -0.0170
25574SOL    HW179260   7.520   5.994   8.902  0.5927 -0.1407 -0.7121
25574SOL    HW279261   7.408   5.951   8.994  0.6455  0.3898 -0.3961
25575SOL     OW79262   5.042   3.504   9.684  0.3391  0.3893 -0.1536
25575SOL    HW179263   4.964   3.472   9.729  1.9356  1.9439  3.9847
25575SOL    HW279264   5.038   3.599   9.693  2.8932  0.4756  0.5817
25576SOL     OW79265   1.606   4.586   6.320 -0.2522  0.0151  0.4980
25576SOL    HW179266   1.527   4.589   6.374 -0.5512 -0.0127  0.0550
25576SOL    HW279267   1.658   4.661   6.350  0.0075 -0.5513  1.4886
25577SOL     OW79268   6.141   7.551   9.573  0.1084 -0.0095 -0.0721
25577SOL    HW179269   6.203   7.566   9.501  1.0892 -0.3191  0.6937
25577SOL    HW279270   6.126   7.637   9.611  2.6852 -0.3196  1.8365
25578SOL     OW79271   1.496   2.537   6.770  0.7392  0.3873  0.0317
25578SOL    HW179272   1.588   2.527   6.743  1.4675 -1.5341  3.0279
25578SOL    HW279273   1.493   2.504   6.859 -2.6523  1.6595  0.4731
25579SOL     OW79274   2.264   7.512   6.942 -0.3653  0.3487 -0.0475
25579SOL    HW179275   2.199   7.538   6.877 -0.8743  0.1334  0.3681
25579SOL    HW279276   2.218   7.519   7.026 -0.0679 -0.4817  0.1904
25580SOL     OW79277   5.576   3.800   0.140 -0.9458  0.2651  0.1681
25580SOL    HW179278   5.534   3.870   0.189 -0.0467  0.5643  0.5192
25580SOL    HW279279   5.505   3.760   0.090 -1.1003  2.8211 -1.7330
25581SOL     OW79280   0.572   6.653   2.172  0.1751 -0.3929  0.4525
25581SOL    HW179281   0.501   6.716   2.182 -0.1035 -1.0567  2.9150
25581SOL    HW279282   0.530   6.573   2.140  0.1490 -0.1552 -0.1250
25582SOL     OW79283   6.917   8.830   2.576  0.1597 -0.5533  0.2617
25582SOL    HW179284   6.855   8.876   2.633  0.8647 -0.1356  0.6954
25582SOL    HW279285   6.864   8.764   2.532 -0.6172 -0.1414  0.5614
25583SOL     OW79286   5.430   3.178   4.738  0.3158  0.1287  0.4621
25583SOL    HW179287   5.363   3.197   4.673  0.8080  1.3952  0.2960
25583SOL    HW279288   5.460   3.265   4.767  0.9878 -0.4178  1.4458
25584SOL     OW79289   9.076   5.585   2.066  0.0378 -0.5998  0.2661
25584SOL    HW179290   9.090   5.493   2.044 -1.6221 -0.6391 -0.6809
25584SOL    HW279291   9.150   5.631   2.024  0.0264 -1.3214 -0.5688
25585SOL     OW79292   5.703   7.812   7.928  0.4779 -0.2274 -0.4457
25585SOL    HW179293   5.668   7.808   7.839  0.0300 -0.4170 -0.2645
25585SOL    HW279294   5.769   7.881   7.925 -1.0991  1.3195 -0.3987
25586SOL     OW79295   5.984   5.148   4.644 -0.3602 -0.4130  0.0204
25586SOL    HW179296   6.024   5.145   4.731 -1.4567  0.9059  0.5982
25586SOL    HW279297   5.991   5.240   4.617 -1.7456 -0.4200 -0.4351
25587SOL     OW79298   3.920   1.472   6.909  0.2411  0.3892  0.2055
25587SOL    HW179299   4.007   1.480   6.870 -0.0034  0.1731 -0.3909
25587SOL    HW279300   3.936   1.432   6.995  0.5417 -1.5248 -0.7243
25588SOL     OW79301   5.964  10.123   5.516  0.1478 -0.5116  0.1717
25588SOL    HW179302   5.987  10.031   5.508  1.4277 -0.1637 -0.2645
25588SOL    HW279303   5.950  10.152   5.426  0.5753 -0.0844  0.2371
25589SOL     OW79304   8.673   3.187   5.731 -0.2941 -0.0610  0.2245
25589SOL    HW179305   8.640   3.189   5.641  1.5765  0.4922 -0.4813
25589SOL    HW279306   8.614   3.126   5.777 -2.3486  1.0068 -0.9158
25590SOL     OW79307   2.174   3.939   3.387 -0.1222  0.1199  0.0149
25590SOL    HW179308   2.094   3.982   3.418  1.1021  2.5375 -0.1131
25590SOL    HW279309   2.242   3.966   3.449  0.4542 -2.7194  0.7163
25591SOL     OW79310   4.668   7.277   4.557  0.6629  0.0564  0.8226
25591SOL    HW179311   4.586   7.325   4.563  0.2253 -0.4142 -1.1063
25591SOL    HW279312   4.657   7.203   4.617 -0.9339 -0.8396 -0.5296
25592SOL     OW79313   5.075   7.435   4.341  0.2941 -0.2068  0.1774
25592SOL    HW179314   5.006   7.466   4.281  0.3315  0.9611  0.7151
25592SOL    HW279315   5.071   7.497   4.414  2.6416  0.5537 -0.3139
25593SOL     OW79316   3.039   9.444   2.010  0.2988 -0.0159  0.4041
25593SOL    HW179317   3.042   9.433   2.105 -1.4479  0.2700  0.4946
25593SOL    HW279318   2.979   9.517   1.996 -1.8563 -2.0209 -1.0635
25594SOL     OW79319   0.047   9.158  10.005 -0.4073  0.2135 -0.1106
25594SOL    HW179320   0.123   9.183   9.953 -1.0569  0.6507 -0.8532
25594SOL    HW279321   0.005   9.087   9.957 -0.5214  0.0334  0.2461
25595SOL     OW79322   8.134   7.494   4.934  0.2319 -0.1703  0.1597
25595SOL    HW179323   8.218   7.535   4.956  1.3311 -2.1090 -0.3364
25595SOL    HW279324   8.123   7.511   4.841  1.2742 -1.9438 -0.3230
25596SOL     OW79325   7.376   0.659   7.483  0.5334  0.3506 -0.6472
25596SOL    HW179326   7.365   0.583   7.425  2.0605 -0.7054  0.4199
25596SOL    HW279327   7.307   0.648   7.549  1.7277 -0.9794  0.4092
25597SOL     OW79328   8.643   5.427  10.088 -0.5454 -0.6567 -0.3353
25597SOL    HW179329   8.665   5.487  10.017 -1.7186  0.7121  0.4393
25597SOL    HW279330   8.549   5.413  10.080 -0.7387 -0.2711  1.1121
25598SOL     OW79331   3.293  10.170   1.016  0.0994  0.5057 -0.0785
25598SOL    HW179332   3.200  10.146   1.023 -0.1361  0.4298 -2.9917
25598SOL    HW279333   3.304  10.238   1.082 -2.4978  1.8494 -0.9446
25599SOL     OW79334   6.493   3.908   4.017 -0.5038 -0.0729 -0.9128
25599SOL    HW179335   6.534   3.885   4.101  1.2669 -0.9797 -1.9933
25599SOL    HW279336   6.401   3.923   4.039 -0.0973 -0.4469  1.1696
25600SOL     OW79337   1.472   3.483   4.586 -0.3895 -0.1985 -0.3557
25600SOL    HW179338   1.565   3.504   4.580 -0.2651 -0.7366 -0.3024
25600SOL    HW279339   1.444   3.470   4.496 -0.4031 -0.0783 -0.3682
25601SOL     OW79340   0.339   6.493   1.932  0.4574  0.0371 -0.0047
25601SOL    HW179341   0.307   6.575   1.894  1.0832  0.2867  0.0013
25601SOL    HW279342   0.397   6.456   1.866 -0.7211 -0.9881 -0.4852
25602SOL     OW79343   5.397   3.429   0.342  0.4864 -0.3072 -0.0166
25602SOL    HW179344   5.492   3.446   0.342  0.6106 -0.8888  1.8711
25602SOL    HW279345   5.381   3.385   0.425 -0.8579 -3.6083 -1.9434
25603SOL     OW79346   8.885   0.614   1.395 -0.1386  0.4091 -0.3894
25603SOL    HW179347   8.916   0.584   1.309  0.3595  1.4678 -0.5758
25603SOL    HW279348   8.949   0.678   1.424 -0.7012  0.6073  0.4468
25604SOL     OW79349   4.862   1.057   0.335  0.2279  0.2395 -0.1771
25604SOL    HW179350   4.812   0.983   0.299  2.5237 -1.1250 -0.6232
25604SOL    HW279351   4.858   1.124   0.266 -0.2334 -0.1964 -0.5788
25605SOL     OW79352   8.915   8.558   8.626 -0.0370 -0.4625 -0.1454
25605SOL    HW179353   8.994   8.585   8.579  0.5086 -0.6559  0.6462
25605SOL    HW279354   8.924   8.463   8.637 -1.2149 -0.7478 -1.5729
25606SOL     OW79355   8.316   9.894   6.901 -0.1827 -0.0401 -0.0205
25606SOL    HW179356   8.288   9.938   6.981  1.6147 -0.5727  0.9291
25606SOL    HW279357   8.346   9.964   6.844 -0.4916  0.2543  0.1825
25607SOL     OW79358   4.237   9.544   3.452 -0.2499 -0.4418  0.3754
25607SOL    HW179359   4.302   9.615   3.455 -0.2711 -0.3569 -0.9541
25607SOL    HW279360   4.164   9.576   3.505  0.5395 -0.2878  1.3873
25608SOL     OW79361   4.615   0.949   6.695  0.1667  0.3032 -0.1394
25608SOL    HW179362   4.586   1.002   6.620  2.2137  1.0881 -0.4168
25608SOL    HW279363   4.683   0.892   6.659  0.3665 -0.1059  0.8685
25609SOL     OW79364   9.601   1.579   6.989 -0.7290  0.4055 -0.0016
25609SOL    HW179365   9.645   1.534   6.917 -1.5793  1.7539 -1.3919
25609SOL    HW279366   9.521   1.528   7.003 -0.8705  0.5009 -0.4481
25610SOL     OW79367   0.427   6.688   5.571 -0.2210  0.6079 -0.0334
25610SOL    HW179368   0.484   6.628   5.523 -1.2815  1.3956 -2.3557
25610SOL    HW279369   0.486   6.739   5.626  0.9143 -1.0220  0.3076
25611SOL     OW79370   6.307   0.278   2.135  0.1097 -0.2120  0.2561
25611SOL    HW179371   6.242   0.337   2.172  1.9105  2.3062 -0.4293
25611SOL    HW279372   6.290   0.280   2.041 -1.0337 -2.3281  0.4000
25612SOL     OW79373   8.655   6.431   0.908 -0.6081 -0.0894  0.2096
25612SOL    HW179374   8.616   6.517   0.924 -0.8150 -0.4338  1.6270
25612SOL    HW279375   8.749   6.444   0.920 -0.7692 -0.3720  1.9747
25613SOL     OW79376   9.183   1.777   5.354 -0.0315  0.2182  0.0455
25613SOL    HW179377   9.208   1.698   5.305 -2.5769 -0.1577 -0.7181
25613SOL    HW279378   9.247   1.843   5.328 -0.5833 -0.3335 -2.8619
25614SOL     OW79379   0.953   9.448   6.723 -0.4435  0.0984 -0.6164
25614SOL    HW179380   0.904   9.471   6.644  1.5298  2.6565 -1.1629
25614SOL    HW279381   1.044   9.465   6.701  0.2320  0.0323  1.9313
25615SOL     OW79382   8.409   0.176   9.305  0.4278 -0.0281  0.2210
25615SOL    HW179383   8.392   0.103   9.246 -1.6323 -0.2481  1.0515
25615SOL    HW279384   8.382   0.144   9.391 -1.6417  2.1027  0.3989
25616SOL     OW79385   0.192   6.939   6.482  0.1613 -0.7024  0.2672
25616SOL    HW179386   0.173   6.989   6.403  0.6184 -0.4774  0.3021
25616SOL    HW279387   0.271   6.890   6.462  1.3709  0.8194  1.2478
25617SOL     OW79388   4.498   9.897   9.091 -0.4341  0.0892  0.0631
25617SOL    HW179389   4.543   9.898   9.175 -0.6954  0.0526  0.2029
25617SOL    HW279390   4.450   9.814   9.091 -0.7169  0.2520  0.0268
25618SOL     OW79391   6.058   5.835   2.429 -0.3023 -0.5974 -0.6269
25618SOL    HW179392   6.129   5.787   2.387 -0.7765 -0.1719 -1.9454
25618SOL    HW279393   6.000   5.767   2.465  0.8582 -0.9373  0.6280
25619SOL     OW79394   9.311   2.231   4.970 -0.3984  0.4494  0.4762
25619SOL    HW179395   9.386   2.226   5.029  0.1698 -0.0415 -0.2793
25619SOL    HW279396   9.263   2.150   4.984 -0.5812  0.5936  0.6855
25620SOL     OW79397   4.128   2.227   1.474  0.1904 -0.2984  0.0386
25620SOL    HW179398   4.131   2.248   1.381 -0.8290 -2.5904 -0.5465
25620SOL    HW279399   4.211   2.181   1.491  0.9358  1.2116  0.5629
25621SOL     OW79400   1.115   3.955   2.604  0.6480  0.2730 -0.1249
25621SOL    HW179401   1.126   3.948   2.510  3.0562 -1.4140  0.2179
25621SOL    HW279402   1.086   4.046   2.619  1.0913  0.8079 -2.3952
25622SOL     OW79403   8.010   0.171   2.145 -0.3561 -0.4271  0.2201
25622SOL    HW179404   7.962   0.221   2.079 -1.0330  0.4369  1.3539
25622SOL    HW279405   7.972   0.198   2.229  1.2754 -0.6244  1.0564
25623SOL     OW79406   8.579   0.125   4.673 -0.5408 -0.0257 -0.1656
25623SOL    HW179407   8.640   0.108   4.744  0.4944  0.0914 -1.0036
25623SOL    HW279408   8.605   0.063   4.604 -0.1594  1.2960 -1.2303
25624SOL     OW79409   6.350   6.039   0.970  0.0693 -0.1555 -0.2993
25624SOL    HW179410   6.280   6.053   0.906 -0.0830 -0.2572 -0.1571
25624SOL    HW279411   6.403   5.969   0.932 -0.3584 -0.6279 -0.0422
25625SOL     OW79412   6.240   8.126   7.798 -0.0413  0.2553  0.9341
25625SOL    HW179413   6.258   8.146   7.890 -0.1023  0.9784  0.7887
25625SOL    HW279414   6.277   8.200   7.749 -1.5966  0.7588  0.4995
25626SOL     OW79415   0.604   0.832   6.520 -0.0332  0.1734 -0.8519
25626SOL    HW179416   0.523   0.809   6.566  0.0666  0.1894 -0.6709
25626SOL    HW279417   0.650   0.749   6.510  0.5755  0.3643  0.2722
25627SOL     OW79418   7.662   9.623   0.611  0.0537  0.1238 -0.0346
25627SOL    HW179419   7.717   9.571   0.668  1.1904  1.5353  0.1829
25627SOL    HW279420   7.711   9.704   0.596 -1.0822  0.5917 -1.4288
25628SOL     OW79421   7.082   7.064   8.683  0.3974  0.1940  0.4256
25628SOL    HW179422   7.088   7.158   8.702 -0.0654  0.1894  0.6029
25628SOL    HW279423   7.153   7.047   8.620 -0.1784  0.8665 -0.4158
25629SOL     OW79424   3.125   2.253   1.480 -0.5608 -0.4625  0.8477
25629SOL    HW179425   3.089   2.192   1.544 -0.6629  0.0265  1.2532
25629SOL    HW279426   3.138   2.334   1.528 -2.4599  0.5108 -0.2222
25630SOL     OW79427   3.447   1.670   5.292  0.0683 -0.1478  0.3469
25630SOL    HW179428   3.371   1.678   5.349 -0.2442  1.8200 -0.2851
25630SOL    HW279429   3.523   1.682   5.350 -0.1497 -0.7657  0.7603
25631SOL     OW79430   8.913   6.427   0.952 -0.0124  0.6477  0.0688
25631SOL    HW179431   8.965   6.350   0.930 -1.4464  0.2020 -1.9590
25631SOL    HW279432   8.969   6.478   1.011  1.6915 -1.0208 -0.0482
25632SOL     OW79433   7.103   3.196   2.049 -0.1361 -0.5845  0.3783
25632SOL    HW179434   7.195   3.178   2.066 -0.1642 -0.3792  0.7477
25632SOL    HW279435   7.090   3.286   2.079  0.0861  0.1911 -1.7658
25633SOL     OW79436   5.439   5.818   0.625  0.7019  0.3361 -0.8346
25633SOL    HW179437   5.455   5.745   0.685  0.1861  0.3513 -0.6780
25633SOL    HW279438   5.394   5.884   0.678 -0.7809 -0.1107 -1.5147
25634SOL     OW79439   1.508   9.149   1.321  0.4149 -0.4707 -0.1859
25634SOL    HW179440   1.589   9.193   1.350  1.2110 -2.1068  0.1207
25634SOL    HW279441   1.533   9.057   1.313 -1.3010 -0.9028 -0.5958
25635SOL     OW79442   6.791   5.884   5.596  0.6053  0.6645 -0.0197
25635SOL    HW179443   6.818   5.901   5.686  2.6960  1.6110 -0.8138
25635SOL    HW279444   6.873   5.873   5.547 -0.4648  1.3966 -2.0477
25636SOL     OW79445   0.586   3.178   3.458  0.4971  0.2898 -0.6456
25636SOL    HW179446   0.544   3.257   3.424 -0.2062 -0.5944 -1.9112
25636SOL    HW279447   0.529   3.107   3.429 -0.1293 -0.5417  2.4307
25637SOL     OW79448   0.458   3.240   8.361  0.4561  0.7860 -0.5246
25637SOL    HW179449   0.371   3.242   8.321  0.0658 -1.2402  0.1318
25637SOL    HW279450   0.478   3.147   8.370  1.9521  1.2214  0.9267
25638SOL     OW79451   8.105   4.037   6.592  0.2882  0.1882 -0.0901
25638SOL    HW179452   8.071   4.066   6.507  0.5645  1.6773  0.3025
25638SOL    HW279453   8.178   4.096   6.611  1.0190 -0.9208  0.6154
25639SOL     OW79454   2.350   5.671   6.166  0.5178 -0.0603  0.4954
25639SOL    HW179455   2.322   5.749   6.117 -0.3866 -1.3796 -1.1646
25639SOL    HW279456   2.381   5.705   6.250  2.2178  2.2863 -1.0153
25640SOL     OW79457   6.220   9.304   5.984  0.6675 -0.3669 -0.2574
25640SOL    HW179458   6.306   9.271   6.008  1.6237  0.8688 -1.8309
25640SOL    HW279459   6.208   9.275   5.894 -0.9518 -1.2618  0.2314
25641SOL     OW79460   6.674   0.958   9.721  0.0791 -0.0046 -0.0817
25641SOL    HW179461   6.617   1.002   9.658  0.3495  0.4705  0.0059
25641SOL    HW279462   6.646   0.866   9.718  1.4089 -0.3900 -2.3507
25642SOL     OW79463   3.696   8.902   6.661 -0.0414 -0.1101 -0.3522
25642SOL    HW179464   3.676   8.984   6.706 -0.4467 -1.2551  1.6287
25642SOL    HW279465   3.745   8.851   6.725  0.9039 -1.1090 -1.8456
25643SOL     OW79466   5.772   9.233   0.726  0.0244 -0.1970 -0.7984
25643SOL    HW179467   5.712   9.165   0.695  2.0901 -1.3950 -2.3019
25643SOL    HW279468   5.828   9.189   0.789 -0.6235  0.9100  0.5777
25644SOL     OW79469   5.570   4.025   1.043  0.0479  0.5460 -0.2892
25644SOL    HW179470   5.628   4.082   0.992  0.4288  1.5210  1.2112
25644SOL    HW279471   5.622   3.997   1.118 -0.5204 -0.8582 -0.4010
25645SOL     OW79472   0.144   7.749   1.158 -0.0932  0.1354 -0.0509
25645SOL    HW179473   0.234   7.727   1.131 -0.6793 -0.7632 -1.3866
25645SOL    HW279474   0.146   7.843   1.175  0.7101  0.4757 -1.8186
25646SOL     OW79475   6.562   1.516   3.876  0.0327 -0.1192 -0.8638
25646SOL    HW179476   6.482   1.557   3.910 -1.5222 -1.9421 -2.2144
25646SOL    HW279477   6.582   1.565   3.796 -0.4716 -0.4604 -1.2043
25647SOL     OW79478   9.630   3.021   7.811 -0.4002 -0.3187  0.3774
25647SOL    HW179479   9.637   2.931   7.841  1.2924  0.4238  2.3508
25647SOL    HW279480   9.552   3.055   7.856  0.2533 -0.1624  1.4130
25648SOL     OW79481   6.150   3.565   5.262 -0.3004  0.2278 -0.2377
25648SOL    HW179482   6.196   3.543   5.343  0.7298 -0.1354 -0.9171
25648SOL    HW279483   6.169   3.658   5.248  2.5720 -0.5875 -2.0052
25649SOL     OW79484   3.828   9.295   3.285  0.3484 -0.3350 -0.2979
25649SOL    HW179485   3.753   9.309   3.342 -0.3142 -1.5945 -0.8383
25649SOL    HW279486   3.796   9.236   3.217  0.9682  1.5272 -2.2698
25650SOL     OW79487   2.548   4.039   1.102 -0.0377  0.0463  0.9403
25650SOL    HW179488   2.501   3.991   1.170 -2.4063 -1.4347 -1.6777
25650SOL    HW279489   2.493   4.032   1.024  2.0115  2.7395 -0.8622
25651SOL     OW79490   8.132   9.718   8.033 -0.3583 -0.5367  0.2940
25651SOL    HW179491   8.132   9.803   7.988 -0.1673 -0.0548  1.2043
25651SOL    HW279492   8.071   9.728   8.105  0.9494 -0.6183  1.4310
25652SOL     OW79493  10.031   2.350   8.305 -0.5158  0.3359  0.4484
25652SOL    HW179494  10.086   2.337   8.227 -1.6716  2.4921 -0.7544
25652SOL    HW279495   9.989   2.265   8.318 -1.2296  0.2475 -2.0372
25653SOL     OW79496   3.394   5.409   4.571 -0.1922  0.3422  1.0545
25653SOL    HW179497   3.479   5.452   4.571  1.0350 -1.9021 -2.2614
25653SOL    HW279498   3.403   5.337   4.633  0.7046 -0.5573 -0.1142
25654SOL     OW79499   3.949   5.609   7.837  0.2549 -0.1402  0.0630
25654SOL    HW179500   3.976   5.518   7.853  3.0123  0.5234 -0.5152
25654SOL    HW279501   3.908   5.607   7.751 -2.3393 -1.3083  1.2625
25655SOL     OW79502   9.811   3.593   8.429 -0.0045 -0.8361 -0.0336
25655SOL    HW179503   9.819   3.685   8.453 -0.3806 -0.9999  0.7311
25655SOL    HW279504   9.901   3.564   8.414  0.1341 -0.4117 -0.0299
25656SOL     OW79505   6.933   0.770   5.376  0.0867  0.5867  0.3324
25656SOL    HW179506   6.887   0.853   5.365 -2.0869 -0.6816 -0.4321
25656SOL    HW279507   6.910   0.718   5.299  0.5812 -1.1106  1.2904
25657SOL     OW79508   3.587   5.129   3.905 -0.1103 -0.0533  0.6726
25657SOL    HW179509   3.585   5.043   3.864  1.2549  0.1759  0.1026
25657SOL    HW279510   3.509   5.131   3.961 -0.3539 -1.5031  0.3963
25658SOL     OW79511   5.626   9.868   4.382 -0.1341  0.0951 -0.1654
25658SOL    HW179512   5.704   9.826   4.346 -0.0614 -0.8630  1.0451
25658SOL    HW279513   5.573   9.891   4.306  0.3418 -1.2015 -0.9035
25659SOL     OW79514   4.360   2.307   3.153 -0.1320  0.5288  0.0044
25659SOL    HW179515   4.335   2.216   3.138  0.2985  0.4665 -0.3368
25659SOL    HW279516   4.442   2.318   3.106  0.0994  0.9453  0.4938
25660SOL     OW79517   1.290   0.911   4.082  0.1095  0.1020 -0.5403
25660SOL    HW179518   1.239   0.980   4.039 -0.3281  0.1006 -0.0249
25660SOL    HW279519   1.376   0.951   4.095  0.0471  0.3339 -0.8123
25661SOL     OW79520   3.991   9.654   7.462  0.7244  0.3540 -0.5487
25661SOL    HW179521   4.025   9.606   7.538 -0.8966 -0.2483 -0.1835
25661SOL    HW279522   3.921   9.598   7.428  0.2362  1.4735 -1.4099
25662SOL     OW79523   8.298   6.769   8.424 -0.3976 -0.5270 -0.3558
25662SOL    HW179524   8.385   6.793   8.456 -0.7753 -0.5040  0.6761
25662SOL    HW279525   8.258   6.722   8.497 -1.2806 -0.4629 -0.7950
25663SOL     OW79526   9.968   5.560   0.661  0.1016 -0.1139  0.2307
25663SOL    HW179527   9.920   5.575   0.580  0.8234  1.1398  0.0259
25663SOL    HW279528   9.934   5.626   0.722 -0.4412 -1.0476  0.9595
25664SOL     OW79529   8.927   9.305   1.541  0.1305 -0.6506  0.0259
25664SOL    HW179530   8.853   9.270   1.492 -0.0840 -2.5049  1.6110
25664SOL    HW279531   8.991   9.234   1.542  0.8181 -0.0310  0.9683
25665SOL     OW79532   5.367  10.202   3.871  0.1708  0.0538 -0.5519
25665SOL    HW179533   5.441  10.147   3.847 -0.5801 -0.5184 -1.5728
25665SOL    HW279534   5.293  10.143   3.875 -0.5418  0.8944 -1.1286
25666SOL     OW79535   9.568   8.556   4.912  0.0636  0.4009 -0.6534
25666SOL    HW179536   9.498   8.494   4.891  1.6124 -1.6517  0.1346
25666SOL    HW279537   9.631   8.547   4.841  2.2717 -1.9779  1.4922
25667SOL     OW79538   8.989   8.517   1.904 -0.9213 -0.5434  0.0668
25667SOL    HW179539   8.934   8.585   1.943 -0.0483 -0.3240  0.9340
25667SOL    HW279540   9.014   8.460   1.977  1.4520  0.3822  0.0362
25668SOL     OW79541   2.936   0.625   5.859 -0.2436 -0.1389  0.4556
25668SOL    HW179542   2.855   0.596   5.902 -0.9948  0.2697 -0.6518
25668SOL    HW279543   2.952   0.559   5.792 -0.2404  0.3442 -0.0203
25669SOL     OW79544   7.880   8.367   5.079 -0.5783 -0.2944  0.5822
25669SOL    HW179545   7.925   8.330   5.003  0.2982  1.0582  0.4254
25669SOL    HW279546   7.950   8.384   5.142 -1.0078  0.7106  0.8001
25670SOL     OW79547   2.109   4.204   3.148  0.0883 -0.5546  0.6601
25670SOL    HW179548   2.203   4.203   3.166  0.5992  1.6659 -1.5979
25670SOL    HW279549   2.073   4.266   3.212  0.6605  0.9588 -0.4405
25671SOL     OW79550   4.394   6.328   4.529 -0.5886  0.4919  0.5687
25671SOL    HW179551   4.326   6.345   4.463 -2.0448  0.2811  1.9873
25671SOL    HW279552   4.454   6.402   4.521  0.8806 -0.9450 -2.9421
25672SOL     OW79553   4.812   0.683   6.729  0.0350 -0.0977 -0.1496
25672SOL    HW179554   4.839   0.775   6.723 -1.0859  0.1550 -1.6473
25672SOL    HW279555   4.779   0.673   6.818  1.9498  0.4486  0.6342
25673SOL     OW79556   8.343   1.627   9.646  0.3439 -0.4748 -0.0009
25673SOL    HW179557   8.369   1.536   9.634 -0.6382 -0.7825  0.1451
25673SOL    HW279558   8.269   1.623   9.707  1.1177  0.5216  1.0379
25674SOL     OW79559   4.915   0.132   6.504 -0.5681 -0.2499 -0.8697
25674SOL    HW179560   4.898   0.160   6.414  0.9400 -0.6254 -1.2894
25674SOL    HW279561   4.834   0.152   6.551 -0.9013  1.1954 -2.0060
25675SOL     OW79562   1.886   5.769   7.945 -0.7273  0.5223 -0.2977
25675SOL    HW179563   1.825   5.829   7.988  0.4054  1.2679  0.2942
25675SOL    HW279564   1.896   5.803   7.856  1.3034  2.3233  0.5536
25676SOL     OW79565   8.362   2.518   3.964  0.0649 -0.4573 -0.4161
25676SOL    HW179566   8.441   2.565   3.937  0.6378 -0.1261  1.7617
25676SOL    HW279567   8.324   2.572   4.033  0.0376 -2.5110  1.2390
25677SOL     OW79568   5.727   1.222   7.443 -0.4857  0.0180 -0.0058
25677SOL    HW179569   5.684   1.148   7.487  0.4690 -0.3770  0.2711
25677SOL    HW279570   5.808   1.185   7.408 -1.4708  0.2067 -2.5569
25678SOL     OW79571   8.763   5.030   4.415 -0.0352  0.5550 -0.1144
25678SOL    HW179572   8.811   4.961   4.461  0.8727  2.7213  2.2660
25678SOL    HW279573   8.691   5.052   4.474 -0.1031  1.8954 -0.7014
25679SOL     OW79574   2.551   6.152   3.441 -0.1278 -0.2015 -0.1707
25679SOL    HW179575   2.471   6.174   3.490  0.3739  1.5809 -0.1048
25679SOL    HW279576   2.589   6.237   3.419  1.8442 -1.0325 -0.0699
25680SOL     OW79577   4.475   6.169   7.679  0.2255 -0.3978  0.0201
25680SOL    HW179578   4.435   6.102   7.623  2.5406 -0.6371 -1.3786
25680SOL    HW279579   4.476   6.130   7.766  0.6004 -1.7660 -0.5942
25681SOL     OW79580   4.632   7.170   6.557  0.5039 -0.4200 -0.0715
25681SOL    HW179581   4.611   7.167   6.650  1.5353 -0.2115  0.1811
25681SOL    HW279582   4.550   7.153   6.512 -0.2767  0.8033  0.8669
25682SOL     OW79583   6.751   0.153   6.997  0.0218  0.4983  0.2203
25682SOL    HW179584   6.774   0.096   7.071 -0.6904  0.5976  0.5273
25682SOL    HW279585   6.831   0.200   6.977  0.5834 -0.5276  0.0442
25683SOL     OW79586   3.059   1.244   6.706  1.0224 -0.0433  0.2192
25683SOL    HW179587   3.099   1.233   6.619  0.4245 -2.3398  0.2091
25683SOL    HW279588   3.115   1.194   6.765  0.3194 -0.0901  0.8523
25684SOL     OW79589   9.326   8.946   9.673  0.1560  0.8025  0.3989
25684SOL    HW179590   9.299   8.914   9.759 -3.8210 -1.3412 -1.5437
25684SOL    HW279591   9.291   9.035   9.668  0.4753  0.9659  0.9878
25685SOL     OW79592   7.418   1.161   3.134  0.7210  0.4190 -0.6821
25685SOL    HW179593   7.507   1.131   3.115  0.9618 -0.0240  1.0756
25685SOL    HW279594   7.368   1.140   3.055  1.8426 -0.6977 -1.0988
25686SOL     OW79595   0.436  10.083   6.276 -0.1219 -0.1123  0.2032
25686SOL    HW179596   0.505  10.109   6.214  0.8221 -0.6138  1.0303
25686SOL    HW279597   0.423   9.990   6.259  0.4477 -0.3500  1.0382
25687SOL     OW79598   8.102   1.169   8.576  0.1815  0.1156 -0.6708
25687SOL    HW179599   8.131   1.150   8.666  0.5277  1.0694 -0.5772
25687SOL    HW279600   8.129   1.260   8.561  1.9055 -0.6773 -2.4698
25688SOL     OW79601   1.001   4.544   0.754  0.6008  0.1188  0.0023
25688SOL    HW179602   1.076   4.562   0.811 -0.3205  0.1707  1.2349
25688SOL    HW279603   1.035   4.553   0.665  1.6282  1.8993  0.5547
25689SOL     OW79604   8.079   8.427   6.884 -0.1626 -0.6767 -0.1998
25689SOL    HW179605   8.088   8.436   6.979 -0.4318  0.2545 -0.2585
25689SOL    HW279606   8.149   8.482   6.849  1.9502 -3.4256 -0.5304
25690SOL     OW79607   3.928   2.350   5.721 -0.1252 -0.0694  0.3055
25690SOL    HW179608   3.974   2.338   5.638  0.4857 -0.5854  0.7099
25690SOL    HW279609   3.949   2.439   5.747 -0.8264  0.3052 -0.3978
25691SOL     OW79610   7.939   7.541   7.118 -0.6925 -0.4771 -0.2094
25691SOL    HW179611   7.944   7.626   7.075 -0.1735 -0.0635  0.6672
25691SOL    HW279612   7.904   7.482   7.050  0.0213  0.1827 -1.1585
25692SOL     OW79613   7.643   0.052   2.287  0.4272  0.0444 -0.5534
25692SOL    HW179614   7.730   0.089   2.304  0.5837 -0.4981 -0.1561
25692SOL    HW279615   7.583   0.124   2.303  0.5840 -0.3994  2.2175
25693SOL     OW79616   0.602   4.639   9.546  0.2550  0.2073  0.1754
25693SOL    HW179617   0.532   4.692   9.585 -0.5671 -0.2574 -0.6577
25693SOL    HW279618   0.638   4.694   9.477  1.2641  0.7635  1.1208
25694SOL     OW79619   6.776   0.586   8.625  0.0826  0.0030  0.4423
25694SOL    HW179620   6.757   0.596   8.718  1.5560  1.9533  0.5713
25694SOL    HW279621   6.870   0.571   8.621  0.0981  0.3277 -0.7553
25695SOL     OW79622   9.312   7.424   3.659 -0.0304  0.0647 -0.3545
25695SOL    HW179623   9.327   7.509   3.702 -3.9633  0.5352  0.2845
25695SOL    HW279624   9.317   7.360   3.730  1.1460 -0.0543 -0.5357
25696SOL     OW79625   5.668   6.521   6.840 -0.4464 -0.0255  0.1987
25696SOL    HW179626   5.652   6.512   6.933  1.4691  0.2670  0.5773
25696SOL    HW279627   5.735   6.455   6.821  0.5773  1.2233 -0.5841
25697SOL     OW79628   9.930  10.165   7.059 -0.2358  0.4967 -0.0326
25697SOL    HW179629   9.958  10.101   7.124 -1.3694  1.1997  1.1802
25697SOL    HW279630   9.839  10.186   7.083 -0.7767  0.5533 -2.0144
25698SOL     OW79631   2.268   2.548   6.541 -0.3740 -0.0227 -0.2343
25698SOL    HW179632   2.287   2.522   6.631  0.3869 -0.0204 -0.3870
25698SOL    HW279633   2.244   2.467   6.497  0.5344 -0.2441 -0.3426
25699SOL     OW79634   6.356   2.122   6.942 -0.4283 -0.3793 -0.2774
25699SOL    HW179635   6.363   2.188   6.873  1.5668 -1.8451 -1.5081
25699SOL    HW279636   6.405   2.160   7.016 -1.7385  0.7566  0.0386
25700SOL     OW79637   3.325   8.966   6.914 -0.4877  0.1618 -0.5380
25700SOL    HW179638   3.396   8.907   6.890 -0.3242 -0.0156  0.3552
25700SOL    HW279639   3.313   8.952   7.008 -2.3763 -0.5734 -0.8555
25701SOL     OW79640   5.764   2.996   9.619 -0.2154  0.7591 -0.0954
25701SOL    HW179641   5.816   2.920   9.593 -0.5554 -0.0048  1.3870
25701SOL    HW279642   5.675   2.975   9.591 -0.8264 -0.6237  2.6318
25702SOL     OW79643   5.900   4.172   4.768  1.1557  0.3465 -0.8802
25702SOL    HW179644   5.846   4.135   4.698  1.2438 -0.8566 -0.3314
25702SOL    HW279645   5.914   4.099   4.829  2.5278  0.9180 -0.4836
25703SOL     OW79646   3.400   7.307   3.413  0.1112 -0.3747  0.7354
25703SOL    HW179647   3.319   7.274   3.453 -0.2501 -0.0195  0.3069
25703SOL    HW279648   3.429   7.235   3.357 -0.7469  0.0686 -0.3005
25704SOL     OW79649   0.559   4.013   9.269 -0.5165  0.2695 -0.0813
25704SOL    HW179650   0.576   3.940   9.210  1.3760 -0.1544  0.9652
25704SOL    HW279651   0.623   4.002   9.340  0.6231  3.6141 -0.5252
25705SOL     OW79652   6.691   6.089   2.159 -0.5846  0.3595  0.0127
25705SOL    HW179653   6.742   6.010   2.179  0.6774  0.7706 -1.4719
25705SOL    HW279654   6.608   6.055   2.124 -1.3684 -0.3149  2.4466
25706SOL     OW79655   5.536   2.169   3.117 -0.2320  0.2843 -0.1242
25706SOL    HW179656   5.556   2.083   3.080  1.5887  0.1716  1.0792
25706SOL    HW279657   5.590   2.175   3.196  1.2857  3.3816 -1.3193
25707SOL     OW79658   2.875   9.020   5.207 -0.1080 -0.1605  0.2525
25707SOL    HW179659   2.872   8.960   5.132  0.0448  0.0212  0.1013
25707SOL    HW279660   2.878   9.107   5.168 -3.9704  0.1425  0.5125
25708SOL     OW79661   9.550   8.740   2.843  0.2816  0.5135 -0.4842
25708SOL    HW179662   9.544   8.694   2.927  1.3824  1.3235  0.0410
25708SOL    HW279663   9.529   8.673   2.778  2.9409 -1.0532  0.1947
25709SOL     OW79664   8.539   4.504   4.159 -0.1786 -0.3679  0.4480
25709SOL    HW179665   8.486   4.462   4.091 -0.9869  0.0512  0.8120
25709SOL    HW279666   8.615   4.538   4.113 -0.5122 -0.4566 -0.1758
25710SOL     OW79667   1.071   6.632   3.841 -0.1751 -0.1103  0.0264
25710SOL    HW179668   1.125   6.641   3.763 -1.0202  0.1055 -0.5386
25710SOL    HW279669   1.044   6.722   3.863  0.0822 -0.1645  0.5828
25711SOL     OW79670   3.898   9.726   6.574 -0.1005  0.7495  0.5642
25711SOL    HW179671   3.979   9.679   6.554  0.1547  1.4534 -0.0888
25711SOL    HW279672   3.896   9.731   6.670 -0.4264 -1.0737  0.6588
25712SOL     OW79673   2.912   9.909   9.971 -0.3025 -0.1844 -0.0974
25712SOL    HW179674   2.983   9.964  10.005  0.1375 -2.0772  2.1230
25712SOL    HW279675   2.837   9.929  10.026 -0.3939 -1.1465  0.1324
25713SOL     OW79676   8.886   8.571   5.095 -0.0603  0.1065 -0.0801
25713SOL    HW179677   8.948   8.622   5.043 -1.1140  2.1229  0.5742
25713SOL    HW279678   8.812   8.556   5.036  0.0837 -0.3400 -0.1501
25714SOL     OW79679   7.103   2.879   2.239  0.1233 -0.0300 -0.3368
25714SOL    HW179680   7.014   2.913   2.253  0.2752  0.4334 -0.5044
25714SOL    HW279681   7.160   2.952   2.259  0.5078 -0.5803  0.6043
25715SOL     OW79682   4.253   7.952   6.807  1.1037 -0.1720  0.1614
25715SOL    HW179683   4.159   7.935   6.796  1.2185 -0.3875 -0.5169
25715SOL    HW279684   4.277   7.903   6.886  1.3807 -3.1053 -1.6562
25716SOL     OW79685   2.042   2.951   7.047 -0.1100 -0.1078 -0.7772
25716SOL    HW179686   2.007   2.935   6.959 -1.5038  1.5610 -0.5568
25716SOL    HW279687   1.980   2.906   7.105 -0.8497  1.2379 -0.4992
25717SOL     OW79688   0.799   4.912   0.949  0.0386 -0.3811 -0.4863
25717SOL    HW179689   0.814   4.862   0.868 -0.2102 -0.8678 -0.2393
25717SOL    HW279690   0.788   5.002   0.920 -0.7036 -0.6479 -1.0688
25718SOL     OW79691   3.208   6.588   8.069  0.2762 -0.7102  0.5637
25718SOL    HW179692   3.116   6.612   8.067  0.1252 -1.3295 -0.5595
25718SOL    HW279693   3.228   6.574   8.162 -0.6976 -0.3647  0.8241
25719SOL     OW79694   6.805   9.752   5.199 -0.1828  0.2737 -0.2617
25719SOL    HW179695   6.856   9.781   5.275 -1.1924 -0.2191  0.6220
25719SOL    HW279696   6.870   9.727   5.134  0.7098  2.1483 -0.1295
25720SOL     OW79697   7.105   7.316   1.765  0.0321 -0.4882  0.2443
25720SOL    HW179698   7.065   7.392   1.808  0.6705  0.2108 -0.3966
25720SOL    HW279699   7.051   7.242   1.794 -0.2763  0.1279  1.2907
25721SOL     OW79700   6.518   6.876   5.388  0.4207  0.5420 -0.1052
25721SOL    HW179701   6.609   6.904   5.394  0.9178 -1.2852  1.7437
25721SOL    HW279702   6.486   6.879   5.479 -0.9574 -0.0513 -0.5494
25722SOL     OW79703   5.822   6.938   7.763 -0.6889 -0.5271  0.2684
25722SOL    HW179704   5.813   6.926   7.668 -0.3152 -3.1051  0.5121
25722SOL    HW279705   5.734   6.962   7.792 -1.2329 -1.4967 -0.5163
25723SOL     OW79706   1.833   0.556   3.595  0.3086  0.2450 -0.5455
25723SOL    HW179707   1.927   0.568   3.581  0.0504  0.7254 -1.9355
25723SOL    HW279708   1.802   0.643   3.624 -0.1378  0.7829 -2.5796
25724SOL     OW79709   6.270   5.710   6.086 -0.1443  0.4421 -0.0888
25724SOL    HW179710   6.218   5.631   6.097  0.1223  0.2281 -0.3471
25724SOL    HW279711   6.211   5.781   6.111 -1.2627  0.3682 -2.3491
25725SOL     OW79712   0.729   7.136   3.165  0.0917  0.0469  0.3558
25725SOL    HW179713   0.701   7.143   3.074  1.9415  0.1461 -0.2249
25725SOL    HW279714   0.720   7.043   3.187 -1.4165  0.2018  0.4383
25726SOL     OW79715   5.596   0.756   1.818 -0.3829 -0.2183  0.5569
25726SOL    HW179716   5.569   0.816   1.748 -1.1832  1.9277  2.6201
25726SOL    HW279717   5.531   0.686   1.815 -1.7479  1.0153  0.5880
25727SOL     OW79718   2.550   6.069   7.195 -0.4993  0.3890 -0.2513
25727SOL    HW179719   2.513   5.999   7.248  2.1613 -1.4582 -0.7178
25727SOL    HW279720   2.534   6.149   7.245  0.5939 -1.1342  2.6011
25728SOL     OW79721   8.890   8.106   6.875 -0.0153  0.3426 -0.1271
25728SOL    HW179722   8.835   8.042   6.919  0.0420  0.1951 -0.2685
25728SOL    HW279723   8.881   8.186   6.927  0.7723 -0.0839  0.6947
25729SOL     OW79724   5.949   9.865   0.778 -0.1737 -0.0303  0.4692
25729SOL    HW179725   6.005   9.798   0.816  0.6011  0.9488  1.0784
25729SOL    HW279726   5.872   9.817   0.747 -0.8590 -0.8524  3.2844
25730SOL     OW79727   8.253   0.646   4.335  1.0131 -0.9412 -0.5681
25730SOL    HW179728   8.220   0.616   4.250  0.3367  0.0913 -0.6805
25730SOL    HW279729   8.331   0.696   4.314 -1.1188  2.3819 -0.9625
25731SOL     OW79730   9.269   2.228   0.461 -0.4191  0.1133 -0.0344
25731SOL    HW179731   9.218   2.274   0.395 -0.5949 -0.7221 -0.4756
25731SOL    HW279732   9.318   2.161   0.413  0.5776  0.4564  0.4720
25732SOL     OW79733   4.661   2.162   6.744 -0.4946  0.8023 -0.5811
25732SOL    HW179734   4.695   2.075   6.765  0.4865  0.8596 -1.8548
25732SOL    HW279735   4.586   2.146   6.687 -0.6999  0.7710 -0.3016
25733SOL     OW79736   9.426   0.294   5.461 -0.1024 -0.0299  0.4585
25733SOL    HW179737   9.405   0.225   5.397 -0.4924  0.1216  0.4232
25733SOL    HW279738   9.355   0.357   5.453 -0.2115 -0.0647  1.1251
25734SOL     OW79739   1.272   4.442   9.247 -0.1065 -0.2419 -1.0063
25734SOL    HW179740   1.240   4.525   9.212  0.4110  0.3692 -0.0541
25734SOL    HW279741   1.234   4.437   9.335 -1.0252 -1.5394 -1.4693
25735SOL     OW79742   5.912   8.771   0.951 -0.7981 -0.8304 -0.4236
25735SOL    HW179743   5.940   8.707   1.016 -0.8411 -1.7468 -1.2888
25735SOL    HW279744   5.968   8.754   0.875 -0.4896  0.4749 -0.5114
25736SOL     OW79745   5.623   0.143   0.170 -0.1860  0.2396 -0.0758
25736SOL    HW179746   5.682   0.208   0.209  0.4820 -0.4215  0.0208
25736SOL    HW279747   5.609   0.079   0.240 -1.6802  0.8234  0.1693
25737SOL     OW79748   4.112   6.571   9.847  0.7088  0.4513 -0.6856
25737SOL    HW179749   4.134   6.664   9.834 -1.4331  0.7861 -2.0372
25737SOL    HW279750   4.138   6.528   9.766  0.2398  0.1198 -0.6575
25738SOL     OW79751   8.304   3.072   7.712  0.6053  0.0309  0.1863
25738SOL    HW179752   8.245   2.999   7.727 -0.5956  1.0447  0.4839
25738SOL    HW279753   8.379   3.034   7.666  0.4451 -1.5501  1.2059
25739SOL     OW79754   4.321   2.286   4.491  0.4361  0.7323 -0.0037
25739SOL    HW179755   4.371   2.206   4.501 -0.4754  0.1594  0.0336
25739SOL    HW279756   4.230   2.257   4.486 -0.0242  1.8659  1.4562
25740SOL     OW79757   6.854   9.426   6.561 -0.6269 -0.1387  0.2370
25740SOL    HW179758   6.883   9.341   6.529 -1.1057 -0.3766  0.4241
25740SOL    HW279759   6.875   9.425   6.655  0.0291  0.2365  0.0995
25741SOL     OW79760   9.984   6.873  10.123  0.3059 -0.7956  0.4024
25741SOL    HW179761   9.991   6.781  10.148 -0.1911 -0.5466  1.4637
25741SOL    HW279762   9.939   6.915  10.196 -0.9521 -0.0086 -0.8123
25742SOL     OW79763   5.397   8.468   5.664 -0.1276  0.2173  0.1593
25742SOL    HW179764   5.411   8.375   5.684 -0.0517  0.5089  1.5246
25742SOL    HW279765   5.430   8.479   5.575 -0.4199 -1.1309 -0.1159
25743SOL     OW79766   2.420   9.287   6.557  0.2839  0.2588 -0.2313
25743SOL    HW179767   2.478   9.307   6.631  0.8650 -1.5169 -0.1886
25743SOL    HW279768   2.336   9.325   6.583  0.3242 -0.8294  1.6183
25744SOL     OW79769   9.582   1.549   8.532  0.4668  0.2356  0.2914
25744SOL    HW179770   9.607   1.487   8.463  1.4103 -0.9022  1.6269
25744SOL    HW279771   9.536   1.496   8.597 -1.8868  1.5937 -0.2032
25745SOL     OW79772   9.646   0.805   5.379  0.2100 -0.0037 -0.3154
25745SOL    HW179773   9.573   0.758   5.421 -0.0161 -0.0830 -0.7980
25745SOL    HW279774   9.668   0.751   5.303  1.1978 -0.3171  0.1891
25746SOL     OW79775   7.019   8.389   1.285  0.5405 -0.6357  0.2504
25746SOL    HW179776   6.964   8.315   1.260  0.6371 -0.4852 -0.4072
25746SOL    HW279777   6.958   8.454   1.320  0.5891 -1.5399  2.0904
25747SOL     OW79778   4.387  10.065   7.585  0.0241 -0.0305 -0.5237
25747SOL    HW179779   4.380  10.017   7.503 -0.3743 -2.3934  0.8498
25747SOL    HW279780   4.464  10.029   7.628  0.5420  1.5607 -0.0713
25748SOL     OW79781   6.037   9.754   2.305 -0.1107  0.2798 -0.1495
25748SOL    HW179782   5.948   9.724   2.291 -0.1393  1.2486 -2.2472
25748SOL    HW279783   6.090   9.674   2.302 -0.6341 -0.0238 -1.3827
25749SOL     OW79784   2.275   8.437   1.747 -0.5317  0.2837  0.0021
25749SOL    HW179785   2.352   8.435   1.803  0.5489  1.4096 -1.4056
25749SOL    HW279786   2.245   8.528   1.750 -1.3481  0.0284 -0.0859
25750SOL     OW79787   2.151   5.012   1.630  0.4862 -0.1166  0.0916
25750SOL    HW179788   2.086   5.063   1.679 -0.1944 -2.3173  1.5481
25750SOL    HW279789   2.190   4.954   1.695  0.5524 -2.1331 -1.7026
25751SOL     OW79790   2.890   6.009   3.368 -0.6669 -0.1918  0.1599
25751SOL    HW179791   2.894   5.913   3.369  0.3489 -0.1557  0.2998
25751SOL    HW279792   2.857   6.033   3.454 -1.7942 -0.4533 -0.2018
25752SOL     OW79793   4.171   6.737   5.115 -0.3453  0.5409 -0.2838
25752SOL    HW179794   4.255   6.756   5.073 -0.1587  0.0665 -0.1193
25752SOL    HW279795   4.164   6.803   5.184  1.0361 -0.9138  1.3180
25753SOL     OW79796   2.315   1.249   0.376  0.0841  0.3416 -0.3007
25753SOL    HW179797   2.265   1.167   0.384  2.2397 -1.1278 -1.4452
25753SOL    HW279798   2.301   1.277   0.286  0.6027  0.4145 -0.3573
25754SOL     OW79799   0.903   4.432   7.975 -0.4872 -0.0723 -0.4505
25754SOL    HW179800   0.965   4.365   8.005 -0.1456  0.5049  0.1490
25754SOL    HW279801   0.958   4.497   7.931 -0.5769  0.7743  0.6671
25755SOL     OW79802   3.065   9.719   9.764 -0.9425  0.3486  0.2472
25755SOL    HW179803   2.994   9.742   9.824 -1.1899  1.9687 -0.6580
25755SOL    HW279804   3.048   9.770   9.685  0.7714  0.1237 -0.2917
25756SOL     OW79805   0.708   0.609   5.453 -0.4691  0.1373 -0.2824
25756SOL    HW179806   0.737   0.573   5.537 -1.0994  1.5031  0.5385
25756SOL    HW279807   0.783   0.660   5.422 -0.2759 -0.2759 -0.4947
25757SOL     OW79808   3.691   7.389   3.146  0.5905  0.4227  0.6820
25757SOL    HW179809   3.757   7.427   3.089  0.1994  0.0515 -0.0277
25757SOL    HW279810   3.649   7.464   3.188  0.9766  0.6892  0.5926
25758SOL     OW79811   8.438   8.552   9.742 -0.1907 -0.1245  0.0203
25758SOL    HW179812   8.523   8.507   9.746  0.7278  1.6430  0.8829
25758SOL    HW279813   8.409   8.540   9.652 -0.1045 -2.6462  0.2682
25759SOL     OW79814   6.664  10.052   2.016  0.8318 -0.3511 -0.2532
25759SOL    HW179815   6.610   9.974   2.029  1.5628 -0.7649  0.3711
25759SOL    HW279816   6.631  10.091   1.935  0.1962 -1.0849 -0.3555
25760SOL     OW79817   9.037   2.073   9.485 -0.3552 -0.1072  0.0850
25760SOL    HW179818   9.018   1.992   9.437  0.2940 -1.3752  1.9132
25760SOL    HW279819   8.990   2.064   9.568 -0.7350  1.6492  0.0623
25761SOL     OW79820   4.884   2.364   5.274  0.2816 -0.3580 -0.0071
25761SOL    HW179821   4.966   2.317   5.259  1.0734  0.8814  0.3778
25761SOL    HW279822   4.817   2.297   5.271  1.4830 -1.6562  1.4169
25762SOL     OW79823   7.781   3.803   6.086  0.5046  0.0150  0.1354
25762SOL    HW179824   7.757   3.737   6.021 -1.4481  0.5010  0.3141
25762SOL    HW279825   7.811   3.877   6.035 -1.0535  0.4078 -0.2498
25763SOL     OW79826   5.137   4.157   2.331 -0.4300 -0.4424  0.6482
25763SOL    HW179827   5.191   4.161   2.409 -0.2776 -0.6349  0.5519
25763SOL    HW279828   5.109   4.248   2.317 -0.8451 -0.4842  1.1935
25764SOL     OW79829   5.671   4.920   1.001 -0.0654  0.0681  0.1731
25764SOL    HW179830   5.760   4.954   0.992  0.0963 -0.7026 -1.3745
25764SOL    HW279831   5.680   4.826   0.986 -0.6505 -0.5562  3.3490
25765SOL     OW79832   0.470   0.724   7.821  0.2534 -0.7734 -0.0209
25765SOL    HW179833   0.552   0.720   7.870  0.3096 -1.3739 -0.1611
25765SOL    HW279834   0.493   0.766   7.738  0.2994 -0.4077  0.1754
25766SOL     OW79835   7.000   7.716   1.758  0.3317 -0.4784  0.3724
25766SOL    HW179836   6.913   7.753   1.772  0.5037  0.0750  0.0106
25766SOL    HW279837   7.002   7.638   1.813  0.5880  0.9989  2.5003
25767SOL     OW79838   7.051   6.882   1.707  0.0403 -0.3086 -0.0926
25767SOL    HW179839   7.088   6.944   1.645 -1.5535  0.1083 -0.6591
25767SOL    HW279840   6.964   6.861   1.672 -0.1517 -1.4971  1.0202
25768SOL     OW79841   6.157   5.264   4.304 -0.6547 -0.7626 -0.0431
25768SOL    HW179842   6.247   5.262   4.335  0.1776 -0.9219 -2.3842
25768SOL    HW279843   6.136   5.357   4.299  1.1055 -0.4730 -4.1355
25769SOL     OW79844   5.351   8.739   0.125 -0.0291  0.1909 -0.2811
25769SOL    HW179845   5.269   8.696   0.102  1.2302 -1.3070 -2.1345
25769SOL    HW279846   5.404   8.735   0.045  1.6975  1.4825  0.7532
25770SOL     OW79847   9.029   6.971   4.382 -0.1131 -0.6401  0.1866
25770SOL    HW179848   9.011   7.049   4.329 -0.0665 -0.1889  0.8262
25770SOL    HW279849   9.069   7.006   4.462 -0.9603 -1.2465  0.8777
25771SOL     OW79850   3.639   8.189   6.433 -0.7308  0.4126  0.1537
25771SOL    HW179851   3.601   8.241   6.362  2.6824  0.4468 -1.8031
25771SOL    HW279852   3.699   8.129   6.389 -1.0245 -1.9363  2.7824
25772SOL     OW79853   0.354   3.468   5.183 -0.1056  0.2446  0.2191
25772SOL    HW179854   0.281   3.455   5.122  0.1390 -0.8938  0.1610
25772SOL    HW279855   0.314   3.471   5.269 -0.1290 -1.2659  0.2611
25773SOL     OW79856   3.313   8.416   7.391  0.0693  0.1277  0.1349
25773SOL    HW179857   3.365   8.362   7.451 -0.8475  0.8271  1.5972
25773SOL    HW279858   3.344   8.505   7.406  0.2772  0.2458 -0.9237
25774SOL     OW79859   5.834   8.376   0.439 -0.1620 -0.4217 -0.4234
25774SOL    HW179860   5.902   8.363   0.505  0.4424  0.3559 -0.8878
25774SOL    HW279861   5.760   8.323   0.470  0.2744 -0.4207  0.6331
25775SOL     OW79862   2.499   2.519   8.609 -0.4580 -0.2300 -0.0708
25775SOL    HW179863   2.425   2.571   8.639  0.0094 -0.5304  1.6963
25775SOL    HW279864   2.562   2.582   8.577 -1.2866  0.0553 -1.1695
25776SOL     OW79865   6.873   0.198   6.312 -0.6796 -0.1494  0.0770
25776SOL    HW179866   6.864   0.128   6.248  1.4528  0.3507 -0.8326
25776SOL    HW279867   6.826   0.272   6.273  1.1380  0.3475 -1.2740
25777SOL     OW79868   5.044   1.890   3.913 -0.7673 -0.6594 -0.8415
25777SOL    HW179869   5.119   1.830   3.914  0.2941  0.6784  1.0672
25777SOL    HW279870   5.046   1.928   3.825 -0.8233 -2.5918 -1.7213
25778SOL     OW79871   5.803   4.011   5.532  0.4396 -0.3393 -0.1032
25778SOL    HW179872   5.891   4.019   5.569  0.3575 -0.5184  0.1336
25778SOL    HW279873   5.745   4.040   5.602  0.1945 -2.1339  0.4650
25779SOL     OW79874   5.104   5.821   9.151 -0.2528  0.3182 -0.2641
25779SOL    HW179875   5.167   5.833   9.222  0.5908  2.0274 -1.2673
25779SOL    HW279876   5.108   5.903   9.101 -0.8666 -0.8163 -2.2470
25780SOL     OW79877   2.466   7.787   5.417 -0.4068  0.6465 -0.3580
25780SOL    HW179878   2.396   7.850   5.402 -0.6662  0.5149  0.2722
25780SOL    HW279879   2.528   7.802   5.346 -1.1707  0.6287 -1.0399
25781SOL     OW79880   7.062   1.401   4.077  0.9931  0.5008 -0.1839
25781SOL    HW179881   6.990   1.341   4.055  0.0788  1.4936  0.0848
25781SOL    HW279882   7.076   1.451   3.997  3.2168 -1.5187 -1.1158
25782SOL     OW79883   5.228   3.820   9.739 -0.1556 -0.8790  0.3092
25782SOL    HW179884   5.143   3.788   9.710 -0.4943  0.1404  0.1736
25782SOL    HW279885   5.222   3.822   9.834 -0.9598  1.0326  0.2302
25783SOL     OW79886   1.535   6.543   3.956  0.0618  0.6817  0.6071
25783SOL    HW179887   1.535   6.487   4.033 -0.9676  0.3537  0.3883
25783SOL    HW279888   1.491   6.624   3.984  0.9780  1.1313  0.7528
25784SOL     OW79889   8.130   2.362   1.579 -0.0137  0.0243  0.2592
25784SOL    HW179890   8.052   2.360   1.634 -1.0722 -0.0238 -1.1865
25784SOL    HW279891   8.182   2.286   1.605  1.0461  1.7429  3.3279
25785SOL     OW79892   0.738   2.321   5.068  0.1372 -0.8996  0.0668
25785SOL    HW179893   0.704   2.399   5.112  0.7112 -1.1471  0.9487
25785SOL    HW279894   0.814   2.295   5.120  0.1762 -1.8257 -0.4471
25786SOL     OW79895   8.580   1.472   1.048  0.0537  0.5202  0.1048
25786SOL    HW179896   8.505   1.506   1.000 -0.1703 -0.2221 -0.0739
25786SOL    HW279897   8.594   1.385   1.012  1.1372  0.7358 -0.0174
25787SOL     OW79898   3.409   9.764   3.015  0.3997 -0.3537  0.2582
25787SOL    HW179899   3.490   9.807   3.040 -0.2323  0.8924  0.2306
25787SOL    HW279900   3.403   9.688   3.073  1.8059 -0.7217 -0.0652
25788SOL     OW79901   9.494   9.741   8.454  0.4934  0.2693 -0.1108
25788SOL    HW179902   9.553   9.688   8.508  0.9099  0.1265 -0.7004
25788SOL    HW279903   9.443   9.791   8.518 -1.7993 -2.7704  0.5452
25789SOL     OW79904   9.475   6.514   3.578  0.4639 -0.2383  0.1204
25789SOL    HW179905   9.451   6.542   3.666 -1.6438 -1.9804  0.1360
25789SOL    HW279906   9.508   6.425   3.589 -1.5370 -1.1567 -1.0653
25790SOL     OW79907   7.952   6.763   8.747 -0.0561  0.0317 -0.0875
25790SOL    HW179908   7.979   6.722   8.665  0.2485  1.0288 -0.4888
25790SOL    HW279909   8.031   6.805   8.781 -0.4548  0.6437  0.1036
25791SOL     OW79910   2.907   6.249   3.647 -0.2887  0.7329  0.2428
25791SOL    HW179911   2.967   6.234   3.720  0.5484  2.8669  0.0430
25791SOL    HW279912   2.821   6.263   3.689 -0.4381 -1.0895  0.6002
25792SOL     OW79913   7.368   6.908   4.262 -0.4579 -0.0790  0.1282
25792SOL    HW179914   7.301   6.976   4.266  0.3644  0.6601  2.2019
25792SOL    HW279915   7.385   6.895   4.169 -2.9222  0.2663 -0.3913
25793SOL     OW79916   7.941   7.230  10.010 -0.1988 -0.1393 -0.3974
25793SOL    HW179917   7.853   7.195   9.997 -0.1865 -0.5579  0.5623
25793SOL    HW279918   7.998   7.153  10.007 -0.0080 -0.0248  0.2229
25794SOL     OW79919   0.381   8.666   1.280 -0.0579 -0.6552  1.3396
25794SOL    HW179920   0.413   8.737   1.335  2.5339 -1.1640  0.5773
25794SOL    HW279921   0.399   8.695   1.190  0.2559 -1.9023  0.9892
25795SOL     OW79922   3.816   4.796   7.528 -0.6390 -0.0540 -0.3772
25795SOL    HW179923   3.815   4.890   7.509 -0.0094 -0.1357 -0.8362
25795SOL    HW279924   3.885   4.785   7.593  0.2568 -0.3831 -1.3655
25796SOL     OW79925   3.692   9.586   1.570 -0.4622  0.1934 -0.2684
25796SOL    HW179926   3.599   9.564   1.561 -0.1675 -0.5469 -1.5981
25796SOL    HW279927   3.737   9.502   1.566  0.3639  0.6670 -1.1079
25797SOL     OW79928   9.818   3.606   0.737  0.1053  0.5941  0.1832
25797SOL    HW179929   9.829   3.679   0.677 -0.1772  1.3281  1.0242
25797SOL    HW279930   9.730   3.616   0.772  0.4648  0.4774  1.1360
25798SOL     OW79931   3.531   9.331   0.161  0.1832  0.0132  0.0777
25798SOL    HW179932   3.441   9.354   0.183  0.1081  1.2933 -1.5151
25798SOL    HW279933   3.573   9.316   0.246 -1.6027 -0.9507  0.8121
25799SOL     OW79934   1.054   4.599   2.299 -0.0442 -0.3531  0.4528
25799SOL    HW179935   1.045   4.608   2.204 -0.4315 -1.5113  0.3719
25799SOL    HW279936   1.134   4.647   2.320 -0.1539  0.2185 -0.4106
25800SOL     OW79937   8.813   7.452   2.387  0.4522 -0.8837  0.1475
25800SOL    HW179938   8.773   7.493   2.464 -2.1714 -1.3120 -0.9674
25800SOL    HW279939   8.820   7.523   2.323  0.0785 -1.1626 -0.2005
25801SOL     OW79940   2.848   6.720   2.645 -0.5748 -0.4657  0.5611
25801SOL    HW179941   2.819   6.638   2.604  0.5812 -0.0841 -1.0640
25801SOL    HW279942   2.931   6.697   2.687  0.6253  0.2523 -1.3586
25802SOL     OW79943   1.025   1.562   2.797 -0.2676  0.1393 -0.4233
25802SOL    HW179944   1.040   1.498   2.866 -1.1015 -0.3462 -0.6909
25802SOL    HW279945   1.092   1.543   2.731  0.1164  0.1889 -0.0484
25803SOL     OW79946   9.776   5.951   1.964 -0.5749 -0.7933  0.3229
25803SOL    HW179947   9.805   5.958   2.055 -0.6773 -2.4695  0.5099
25803SOL    HW279948   9.720   6.027   1.950  0.4882  0.1710  1.2665
25804SOL     OW79949   7.938   9.923   0.898  0.0509  0.1990 -0.3562
25804SOL    HW179950   7.878   9.849   0.899  0.5969 -0.2430 -0.4042
25804SOL    HW279951   7.981   9.921   0.983 -0.8923  1.2503  0.1588
25805SOL     OW79952   8.971   7.529   1.219  0.3293  0.1232  0.7229
25805SOL    HW179953   9.038   7.545   1.152  0.8409  1.3301  1.5019
25805SOL    HW279954   9.020   7.529   1.302 -0.6253  1.0559  1.2986
25806SOL     OW79955   5.873   8.212   9.862 -0.2515  0.0153 -0.3840
25806SOL    HW179956   5.873   8.117   9.877  0.0104  0.0380 -0.2348
25806SOL    HW279957   5.902   8.250   9.945 -1.4402  0.2887 -0.0880
25807SOL     OW79958   1.004   6.532   2.173 -1.0242 -0.0618  0.1019
25807SOL    HW179959   1.048   6.452   2.146 -1.1510 -0.3480  0.7284
25807SOL    HW279960   0.930   6.541   2.114 -0.1547  0.3924 -0.9269
25808SOL     OW79961   9.547   6.724   7.651 -0.2631  0.0252 -0.1190
25808SOL    HW179962   9.525   6.797   7.709 -0.4837 -0.2595  0.1594
25808SOL    HW279963   9.518   6.646   7.699  0.8597 -0.3141  0.0037
25809SOL     OW79964   8.176   3.895   5.363  0.2131 -0.3413 -0.6546
25809SOL    HW179965   8.098   3.840   5.358 -0.9764  1.2139  0.2790
25809SOL    HW279966   8.160   3.964   5.298  0.1991  0.7105  0.4518
25810SOL     OW79967   7.886   4.920   4.302  0.2485 -0.2762 -0.4652
25810SOL    HW179968   7.913   4.829   4.304  0.9727 -0.0410  2.1779
25810SOL    HW279969   7.816   4.923   4.237  0.7134 -2.5518 -1.1092
25811SOL     OW79970   1.664   9.200   2.508  0.1537  0.8821  0.4317
25811SOL    HW179971   1.630   9.285   2.534  1.0705  1.4521 -0.2332
25811SOL    HW279972   1.644   9.194   2.414 -0.4900  0.0939  0.6185
25812SOL     OW79973   1.009   4.777   1.176  0.3370  0.0838 -0.1551
25812SOL    HW179974   0.994   4.871   1.164 -2.4534 -0.2970  0.0145
25812SOL    HW279975   0.931   4.736   1.141  1.0153 -2.1391  0.8596
25813SOL     OW79976   9.559   3.578   8.517 -0.6745 -0.3626 -0.2816
25813SOL    HW179977   9.652   3.599   8.507 -0.2695 -1.2616  1.2962
25813SOL    HW279978   9.513   3.642   8.462  0.7952  1.1740  0.2276
25814SOL     OW79979   3.185   6.583   6.309  0.4638  0.3655  0.2177
25814SOL    HW179980   3.204   6.664   6.262 -1.1640  1.7285  1.8091
25814SOL    HW279981   3.091   6.569   6.294  0.3827 -0.2921  1.3272
25815SOL     OW79982  10.183   6.369   8.937  0.4320  0.4270 -0.1437
25815SOL    HW179983  10.129   6.314   8.879  0.8864 -0.0359 -0.1340
25815SOL    HW279984  10.230   6.306   8.991  2.0803  0.7830 -1.1415
25816SOL     OW79985   5.940   3.453   6.144 -0.1016 -0.3497 -0.1603
25816SOL    HW179986   5.960   3.431   6.235  1.8060 -1.2946 -0.7943
25816SOL    HW279987   6.012   3.510   6.117 -0.2664 -0.6883 -1.3118
25817SOL     OW79988   7.538   6.101   3.762  0.2520  0.1587  0.2919
25817SOL    HW179989   7.586   6.043   3.703  2.3235  0.6123  1.4742
25817SOL    HW279990   7.566   6.189   3.737 -0.3346  0.4595  0.6816
25818SOL     OW79991   4.637   3.308   1.747  0.4228  0.3141 -0.2892
25818SOL    HW179992   4.725   3.280   1.724  0.1897 -0.3608 -0.3577
25818SOL    HW279993   4.580   3.268   1.681 -0.1029 -0.5798  0.6879
25819SOL     OW79994   5.430   9.835   2.558  0.5861 -0.0521  0.1393
25819SOL    HW179995   5.442   9.878   2.642  0.1648 -0.9702  0.6758
25819SOL    HW279996   5.518   9.804   2.535  0.4050 -1.2283  1.0248
25820SOL     OW79997   5.915   1.814   8.979 -0.2595  0.2665 -0.5603
25820SOL    HW179998   5.895   1.861   9.060 -1.8323  2.2432 -2.0393
25820SOL    HW279999   5.966   1.739   9.007 -0.5380  1.0627  2.2424
25821SOL     OW80000   4.660   7.737   6.833 -0.1774 -0.1197  0.0392
25821SOL    HW180001   4.689   7.686   6.757 -1.3372  0.3443 -0.7273
25821SOL    HW280002   4.592   7.683   6.873  0.2819 -0.2627  0.6314
25822SOL     OW80003   6.366   5.675   3.526  0.2988 -0.3412  0.3810
25822SOL    HW180004   6.437   5.668   3.590  1.4725 -0.8297 -0.9359
25822SOL    HW280005   6.293   5.628   3.566  0.4858  0.7529  2.0486
25823SOL     OW80006   2.654   4.984   1.152 -0.3358 -0.1539 -0.1973
25823SOL    HW180007   2.571   4.996   1.198 -0.2064 -1.2246  0.3183
25823SOL    HW280008   2.677   5.072   1.122 -0.2134  0.6463  2.1385
25824SOL     OW80009   9.089   4.441  10.175 -0.0905 -0.6747 -0.3035
25824SOL    HW180010   9.054   4.528  10.193  0.6167 -0.4235 -0.1248
25824SOL    HW280011   9.059   4.420  10.086 -0.2824 -0.2657 -0.3323
25825SOL     OW80012   3.284   6.867   4.565  0.1131  0.5548 -0.1900
25825SOL    HW180013   3.206   6.893   4.614  0.0705 -0.0418  0.0728
25825SOL    HW280014   3.264   6.888   4.474  0.3823  2.1139  0.1054
25826SOL     OW80015   6.384   2.288   4.470  0.4996  0.6502 -0.3557
25826SOL    HW180016   6.390   2.337   4.552 -1.6670 -0.3231  0.4286
25826SOL    HW280017   6.474   2.267   4.447  1.2034  1.9510  1.1617
25827SOL     OW80018   9.959   5.649   8.433  0.2571  0.1612  0.7066
25827SOL    HW180019   9.930   5.614   8.349  0.0418  3.3605 -0.5939
25827SOL    HW280020   9.902   5.605   8.497 -2.7175  1.0879 -1.2053
25828SOL     OW80021   6.117   0.237   2.823  0.8779 -0.1788  0.2594
25828SOL    HW180022   6.089   0.318   2.865 -0.1932 -2.0162  3.3135
25828SOL    HW280023   6.204   0.220   2.859 -0.1470 -1.8976  2.0670
25829SOL     OW80024   5.336   8.209   5.751  0.1228  0.2465  0.7168
25829SOL    HW180025   5.281   8.247   5.819  1.3016  0.5382  1.5139
25829SOL    HW280026   5.381   8.136   5.794  1.5921  1.0244  0.5224
25830SOL     OW80027   3.679   6.482   2.782 -0.1192 -0.1494  0.0122
25830SOL    HW180028   3.641   6.495   2.695  2.9469 -1.4091 -1.5713
25830SOL    HW280029   3.657   6.392   2.805 -0.9092  0.1755  0.5776
25831SOL     OW80030   5.439   8.349   3.500  0.1284 -0.1272 -0.2352
25831SOL    HW180031   5.490   8.294   3.558 -0.9773  0.1612  1.0478
25831SOL    HW280032   5.477   8.437   3.509  0.8697 -0.3532 -1.0614
25832SOL     OW80033   3.819   0.678   6.181 -0.2460  0.3155  0.0164
25832SOL    HW180034   3.783   0.747   6.125 -1.0674  1.3650  1.7820
25832SOL    HW280035   3.913   0.688   6.174 -0.3037 -0.6963 -2.5335
25833SOL     OW80036   8.815   3.390   1.316  0.5107 -1.0330 -0.4652
25833SOL    HW180037   8.750   3.334   1.360  0.6343 -1.6529 -1.0639
25833SOL    HW280038   8.893   3.383   1.372  0.0309 -0.1703  0.3344
25834SOL     OW80039   5.682   3.047  10.056 -0.0560  0.6455  0.1092
25834SOL    HW180040   5.745   3.005   9.997 -0.6254 -0.0291 -0.0256
25834SOL    HW280041   5.600   3.050  10.005 -0.9402 -1.2490  1.3632
25835SOL     OW80042   5.153   6.324   2.396 -0.0666  1.0090  0.1779
25835SOL    HW180043   5.150   6.279   2.481  2.6918  1.1511  0.3838
25835SOL    HW280044   5.173   6.415   2.418 -0.9264  1.3740 -0.5297
25836SOL     OW80045   2.048   1.214   9.641 -0.0525  0.8847 -0.0065
25836SOL    HW180046   2.021   1.177   9.557  0.0697 -1.0699  0.7990
25836SOL    HW280047   1.970   1.208   9.697  0.5412  0.0018  0.7354
25837SOL     OW80048   4.891   0.264   5.761 -0.0061 -0.6579 -0.0676
25837SOL    HW180049   4.954   0.315   5.711 -0.6630  0.0235 -0.2145
25837SOL    HW280050   4.939   0.185   5.788  0.0405 -1.5815 -2.6924
25838SOL     OW80051   4.187  10.180   0.737 -0.2527 -0.0519 -0.2651
25838SOL    HW180052   4.117  10.126   0.775  1.7612 -0.8763  2.4599
25838SOL    HW280053   4.177  10.170   0.643 -3.5147 -0.5047  0.0747
25839SOL     OW80054   9.997   6.870   6.490  0.5212  0.1669 -0.3761
25839SOL    HW180055   9.996   6.775   6.483  1.1013  0.0210  1.3648
25839SOL    HW280056   9.949   6.900   6.413  1.9941 -1.4553 -1.9661
25840SOL     OW80057   7.295   9.948   5.642  0.5234 -0.0956  0.5772
25840SOL    HW180058   7.327   9.862   5.670  1.4243  0.4655  1.2671
25840SOL    HW280059   7.200   9.937   5.637  0.6608 -1.2523  0.2570
25841SOL     OW80060   8.113   5.129   6.055 -0.2574  0.5123 -0.2066
25841SOL    HW180061   8.180   5.097   5.995 -0.3121 -0.9946  0.5076
25841SOL    HW280062   8.036   5.074   6.037  0.0797 -0.7446  1.9953
25842SOL     OW80063   8.688   8.586   9.976 -0.0758 -0.4045 -0.9299
25842SOL    HW180064   8.604   8.591  10.021  1.4206 -2.5071  2.2798
25842SOL    HW280065   8.719   8.676   9.974 -2.2661  0.3662 -1.9740
25843SOL     OW80066   8.784   8.849   6.899  0.6603 -0.1750  0.1117
25843SOL    HW180067   8.697   8.811   6.911 -0.5659  1.1880 -3.7296
25843SOL    HW280068   8.775   8.939   6.930  0.9203 -0.2055  0.2867
25844SOL     OW80069   8.683   6.948   9.011  0.2428  0.0054 -0.6914
25844SOL    HW180070   8.732   6.933   9.092 -1.4745  0.7695  0.5043
25844SOL    HW280071   8.741   7.004   8.959  1.2842 -0.3285  0.0747
25845SOL     OW80072   3.859   5.341   9.175  0.2828  0.3981  0.1991
25845SOL    HW180073   3.946   5.329   9.212  0.3078 -0.0454 -0.0005
25845SOL    HW280074   3.817   5.255   9.184  0.3700  0.2285 -1.0013
25846SOL     OW80075   4.162   7.876  10.048 -0.1310 -0.1034  0.0106
25846SOL    HW180076   4.247   7.907  10.081 -0.2813  1.5079 -1.0524
25846SOL    HW280077   4.170   7.883   9.952 -0.6755 -2.0793 -0.1909
25847SOL     OW80078   1.956   4.939   4.251  0.3054 -0.3777 -0.0747
25847SOL    HW180079   2.006   5.017   4.228  0.4204 -1.2576 -3.0556
25847SOL    HW280080   1.874   4.973   4.287  0.1730  1.1671 -1.7384
25848SOL     OW80081   8.344   9.107   9.734 -0.1675 -0.2289 -0.2403
25848SOL    HW180082   8.279   9.071   9.674  0.6233 -0.9317 -0.7016
25848SOL    HW280083   8.418   9.045   9.728  0.6452  0.7043  0.0468
25849SOL     OW80084   0.294   8.954  10.018 -0.5261 -0.3027 -0.8945
25849SOL    HW180085   0.199   8.946  10.008 -0.4001 -0.9561 -1.6515
25849SOL    HW280086   0.320   8.873  10.062 -0.2615 -0.3382 -1.1131
25850SOL     OW80087   3.285   0.999   5.903  0.1300  0.0619  0.2153
25850SOL    HW180088   3.213   1.040   5.951 -1.6902 -0.5328 -1.9140
25850SOL    HW280089   3.340   0.961   5.971 -0.1359  2.7741  2.0335
25851SOL     OW80090   5.540   9.362   7.966  0.0262 -0.1605  0.4616
25851SOL    HW180091   5.538   9.276   7.924  3.8977 -0.9030  1.5737
25851SOL    HW280092   5.470   9.358   8.031 -0.4632 -2.1303 -0.1410
25852SOL     OW80093   9.641   5.191   7.805 -0.0392  0.3874 -0.1039
25852SOL    HW180094   9.728   5.206   7.769 -0.6186 -1.8829 -2.5681
25852SOL    HW280095   9.635   5.096   7.814 -1.8614  0.5960  1.0998
25853SOL     OW80096   8.983   9.979   2.626  0.4960 -0.1962  0.1156
25853SOL    HW180097   8.975  10.009   2.535  2.2877 -0.4171 -0.1180
25853SOL    HW280098   9.017  10.055   2.673  0.8523 -0.5088  0.3576
25854SOL     OW80099   8.000   3.556   0.857 -0.0456 -0.1223 -0.2000
25854SOL    HW180100   8.066   3.489   0.844  1.6125  1.5548 -0.6866
25854SOL    HW280101   8.002   3.575   0.951 -0.1128 -0.3484 -0.1533
25855SOL     OW80102   2.929   7.382   9.639  0.0258  0.3725  0.6382
25855SOL    HW180103   2.840   7.392   9.672 -0.4542 -1.2194 -0.1082
25855SOL    HW280104   2.955   7.294   9.667  0.8863  0.3329 -0.2568
25856SOL     OW80105   3.259   4.217   5.333 -0.2490 -0.0333 -0.5297
25856SOL    HW180106   3.290   4.286   5.275 -0.0382 -1.2394 -1.8895
25856SOL    HW280107   3.220   4.263   5.407  0.0555  1.5343 -1.3259
25857SOL     OW80108  10.016   9.028   5.671  0.3230 -0.1113 -0.3278
25857SOL    HW180109   9.945   9.042   5.608 -0.5875  0.3052  0.7676
25857SOL    HW280110   9.980   8.967   5.735  1.0472 -0.1158  0.0819
25858SOL     OW80111  10.000   0.533   0.698  1.0136 -0.4358  0.5050
25858SOL    HW180112  10.070   0.546   0.762  0.2309  1.1865  1.0481
25858SOL    HW280113   9.989   0.438   0.695  2.6042 -0.6632  1.0957
25859SOL     OW80114   1.181   7.944   3.212 -0.1112  0.1743  0.0244
25859SOL    HW180115   1.255   7.885   3.227  0.9799  1.0336 -1.8070
25859SOL    HW280116   1.139   7.910   3.134 -1.0874  0.2629  0.5090
25860SOL     OW80117   6.804   6.139   8.082  0.0196  0.1551  0.3853
25860SOL    HW180118   6.803   6.044   8.082  0.8902  0.1414 -0.2512
25860SOL    HW280119   6.881   6.163   8.031 -0.2692  1.2006  0.4139
25861SOL     OW80120   3.020   1.983   9.007  0.1437  0.4728  0.9164
25861SOL    HW180121   3.052   2.050   8.947 -1.4445  0.3237 -0.1115
25861SOL    HW280122   2.975   2.031   9.076 -1.7554  0.4332 -0.2804
25862SOL     OW80123  10.046   1.947   9.861 -0.1392 -0.0873 -0.4281
25862SOL    HW180124  10.017   2.011   9.796  0.1476 -1.4735 -1.9564
25862SOL    HW280125   9.997   1.867   9.839 -0.4658 -0.4200  1.4216
25863SOL     OW80126   5.573   1.408   7.554  0.3176 -0.2661 -0.0629
25863SOL    HW180127   5.557   1.493   7.514  0.4407  0.7162  1.9085
25863SOL    HW280128   5.650   1.374   7.509 -0.8240 -0.1707 -2.1181
25864SOL     OW80129   9.521  10.174   7.815 -0.9944  0.1671 -0.3598
25864SOL    HW180130   9.574  10.247   7.782  0.0738 -0.3178  0.2795
25864SOL    HW280131   9.494  10.127   7.736 -0.5600  0.4705 -0.6911
25865SOL     OW80132   7.231  10.059   9.664 -0.3437 -0.1364 -0.6608
25865SOL    HW180133   7.184  10.088   9.742  0.1768 -0.7207 -0.1181
25865SOL    HW280134   7.204  10.120   9.595 -1.4767 -0.1415 -0.2314
25866SOL     OW80135   9.665   3.565   2.113  0.3631  0.4671  0.4996
25866SOL    HW180136   9.646   3.527   2.199  1.7466 -1.1347  0.1079
25866SOL    HW280137   9.650   3.494   2.051 -0.6664  1.6228 -0.6249
25867SOL     OW80138   6.021   4.828   5.827 -0.0379  0.9171  0.0587
25867SOL    HW180139   5.955   4.860   5.764  0.8949  0.3721 -1.2228
25867SOL    HW280140   6.084   4.899   5.835 -0.6963  1.3860  1.1821
25868SOL     OW80141   6.248   2.011   3.561 -0.1232 -0.4914  0.3831
25868SOL    HW180142   6.230   1.937   3.619  0.6463  1.2217  2.8686
25868SOL    HW280143   6.337   1.995   3.529 -0.3551 -1.1718  0.0688
25869SOL     OW80144   9.042   0.053   1.661 -0.0084  0.1809  0.2149
25869SOL    HW180145   8.956   0.048   1.620 -0.4416 -0.6240  1.2006
25869SOL    HW280146   9.046   0.140   1.700 -0.4465  0.1518  0.3216
25870SOL     OW80147   2.322   7.856   1.081  0.6919  0.2853 -0.1849
25870SOL    HW180148   2.270   7.776   1.078 -0.8235  1.2526 -0.5171
25870SOL    HW280149   2.412   7.827   1.065  0.2062 -1.3697 -0.0269
25871SOL     OW80150   6.195   9.534   2.716  0.0183  0.4986  0.2056
25871SOL    HW180151   6.210   9.617   2.671 -0.5799  0.2324 -0.5086
25871SOL    HW280152   6.102   9.516   2.701  0.2302 -0.4693  0.0560
25872SOL     OW80153   5.538   2.041   1.341  0.2406 -0.5869  0.7945
25872SOL    HW180154   5.566   2.005   1.426 -1.1809  0.6261  1.8078
25872SOL    HW280155   5.482   2.115   1.364 -0.6069 -0.5800 -1.2115
25873SOL     OW80156   6.289   4.679   4.236  0.1509  0.1886 -0.1259
25873SOL    HW180157   6.323   4.721   4.315 -0.8110 -0.9527  0.9173
25873SOL    HW280158   6.367   4.649   4.189  0.8568  3.0114 -0.8524
25874SOL     OW80159   4.121   2.195   6.526 -0.2643  0.2307  0.2226
25874SOL    HW180160   4.206   2.174   6.486  0.5206  2.5638  0.5863
25874SOL    HW280161   4.127   2.289   6.546 -3.0121  0.4722  0.0644
25875SOL     OW80162   5.554   0.046   8.074 -0.1725 -0.4269  0.7496
25875SOL    HW180163   5.563   0.126   8.023 -0.4515 -1.9213 -1.6932
25875SOL    HW280164   5.635  -0.003   8.058 -0.9026 -1.5840  0.5111
25876SOL     OW80165   7.298   9.780   6.534 -0.1915 -0.0429  0.0686
25876SOL    HW180166   7.301   9.731   6.451  0.4479 -1.6717  1.0211
25876SOL    HW280167   7.358   9.732   6.591 -2.5648 -0.4823  2.2704
25877SOL     OW80168   7.806   5.034   2.413 -0.0367 -0.0914  0.0493
25877SOL    HW180169   7.835   4.947   2.440 -1.2007 -0.4752  0.0942
25877SOL    HW280170   7.792   5.082   2.495 -0.3316 -0.1809  0.0534
25878SOL     OW80171   6.500   6.811   2.966 -0.2993 -0.0501  0.3305
25878SOL    HW180172   6.595   6.821   2.962 -0.3115  0.1127  0.4286
25878SOL    HW280173   6.470   6.886   3.017 -0.4368 -0.3397  0.6846
25879SOL     OW80174   6.219   1.611   8.474  0.0503 -0.1296 -0.1332
25879SOL    HW180175   6.296   1.604   8.418 -0.5927  1.4308 -1.2485
25879SOL    HW280176   6.161   1.673   8.429 -1.3860 -0.4298  1.2218
25880SOL     OW80177   6.668   8.846   9.809  0.4171 -0.1561 -0.3905
25880SOL    HW180178   6.642   8.785   9.740 -0.2973  0.8306 -1.0050
25880SOL    HW280179   6.639   8.804   9.890 -0.4402 -0.4347 -0.8388
25881SOL     OW80180   8.561   6.782   6.720  0.5569 -0.1964  0.2610
25881SOL    HW180181   8.508   6.703   6.731 -1.2324  1.0527  0.8712
25881SOL    HW280182   8.633   6.773   6.782 -0.0755 -0.9975  0.8763
25882SOL     OW80183   0.303   3.656   1.995  0.0379 -0.1445  0.6627
25882SOL    HW180184   0.320   3.744   1.960  0.7638 -0.8564 -0.8398
25882SOL    HW280185   0.257   3.611   1.924 -0.2523 -1.0015  1.3967
25883SOL     OW80186   2.912   3.810   2.195 -0.1628 -0.4236 -0.1534
25883SOL    HW180187   2.866   3.737   2.154 -2.1567  0.8614 -0.2915
25883SOL    HW280188   2.929   3.781   2.284  1.9931 -2.2868 -1.1253
25884SOL     OW80189   8.049   6.658   1.779  0.1442 -0.3577 -0.4407
25884SOL    HW180190   7.969   6.635   1.731  0.5158 -0.2229 -1.1290
25884SOL    HW280191   8.020   6.723   1.843 -0.2637 -0.1498 -0.8328
25885SOL     OW80192   2.323   3.152   2.665  0.4594  0.6584  0.0881
25885SOL    HW180193   2.280   3.130   2.582  1.6191 -1.5640  0.0330
25885SOL    HW280194   2.279   3.231   2.695 -1.7776  0.0036 -1.3464
25886SOL     OW80195   2.046   5.172   9.497  0.1662  0.8586 -0.4548
25886SOL    HW180196   2.055   5.228   9.420  1.5809  0.1654 -0.7939
25886SOL    HW280197   2.083   5.088   9.471  0.9993  0.7216  1.0951
25887SOL     OW80198   6.530   1.395   5.876 -0.2378  0.1928 -0.1151
25887SOL    HW180199   6.454   1.354   5.835  0.0060 -0.2300 -0.1471
25887SOL    HW280200   6.496   1.476   5.913 -1.0766 -0.8049  1.3409
25888SOL     OW80201   1.431   5.390   0.281  0.1010  0.2362  0.0989
25888SOL    HW180202   1.506   5.352   0.236 -0.7493  0.6665 -1.7178
25888SOL    HW280203   1.469   5.451   0.344  1.3828 -1.8786  1.4194
25889SOL     OW80204   5.258   1.392   1.563  0.5581  0.0227 -0.5221
25889SOL    HW180205   5.243   1.356   1.650 -2.6846 -0.3499 -1.1694
25889SOL    HW280206   5.220   1.480   1.566  0.0566 -0.1342 -1.6302
25890SOL     OW80207   9.664   0.991   5.926 -0.2257 -0.1978  0.1128
25890SOL    HW180208   9.656   1.083   5.950 -1.8668 -0.2331 -0.2734
25890SOL    HW280209   9.693   0.993   5.834 -0.3163 -0.0799  0.0877
25891SOL     OW80210   9.781   8.527   5.276  0.1029 -0.0518 -0.1763
25891SOL    HW180211   9.783   8.431   5.278  1.1448 -0.0546 -0.9167
25891SOL    HW280212   9.712   8.548   5.213 -0.2315 -0.3043  0.1010
25892SOL     OW80213   9.941   7.802   9.105  0.1797  0.1574  0.5471
25892SOL    HW180214   9.847   7.789   9.114 -0.0059  0.9164 -0.2552
25892SOL    HW280215   9.978   7.714   9.114 -0.8327 -0.5479 -1.7839
25893SOL     OW80216   6.634   1.358   8.095  0.4293 -0.2171  0.2298
25893SOL    HW180217   6.656   1.378   8.004 -1.8477  0.5210 -0.1944
25893SOL    HW280218   6.566   1.421   8.117 -2.4420 -3.4345  0.9172
25894SOL     OW80219   2.878   0.304   5.360 -0.1704 -0.2443 -0.1290
25894SOL    HW180220   2.826   0.299   5.280  1.2919  0.8371 -1.1702
25894SOL    HW280221   2.964   0.335   5.331  0.7926 -1.1521  1.6785
25895SOL     OW80222   1.381   4.977   4.146 -0.3747  0.1838 -0.1847
25895SOL    HW180223   1.396   4.971   4.240  0.0804 -0.5973 -0.3083
25895SOL    HW280224   1.364   4.887   4.118  0.8383  0.2253 -1.0692
25896SOL     OW80225   4.366   5.332   9.256  0.2025  0.1679  0.6505
25896SOL    HW180226   4.406   5.339   9.169  0.5465 -1.3915  0.6867
25896SOL    HW280227   4.435   5.299   9.312  0.3820  2.4573  1.8385
25897SOL     OW80228   7.811   4.384   4.891  0.1314 -0.5597 -0.3854
25897SOL    HW180229   7.801   4.303   4.941 -0.9076 -0.0179  0.2756
25897SOL    HW280230   7.894   4.371   4.843  0.0506 -1.9494 -0.1868
25898SOL     OW80231   4.049   8.773   1.631  0.1090 -0.0020  0.0776
25898SOL    HW180232   4.145   8.764   1.627 -0.0269 -0.8288 -1.6830
25898SOL    HW280233   4.029   8.766   1.724  1.8552  1.1746  0.5636
25899SOL     OW80234   3.755   5.285   7.093 -0.5000  0.1800  0.4117
25899SOL    HW180235   3.804   5.213   7.052  0.3149  0.5155  0.7787
25899SOL    HW280236   3.781   5.363   7.043 -0.5401  0.3830  0.7075
25900SOL     OW80237   0.406   7.240   0.290 -0.1370 -0.1091 -0.8945
25900SOL    HW180238   0.409   7.149   0.262  2.6579  0.3403 -2.1868
25900SOL    HW280239   0.497   7.266   0.300 -0.8586  1.0991  4.4407
25901SOL     OW80240   7.495   7.138   2.079 -0.6318 -0.0686  0.2540
25901SOL    HW180241   7.425   7.163   2.139 -0.6199  1.0505 -0.1910
25901SOL    HW280242   7.464   7.057   2.039 -0.7103 -0.7469  1.6461
25902SOL     OW80243   9.311   8.328   3.256 -0.3059 -0.3107  0.1440
25902SOL    HW180244   9.248   8.400   3.268  0.5609  0.2267  1.6054
25902SOL    HW280245   9.287   8.264   3.323  0.1739 -0.4939  0.1372
25903SOL     OW80246   5.731  10.166   3.547  0.3993  0.7279 -0.2458
25903SOL    HW180247   5.653  10.222   3.538  0.1969  0.3323 -1.0044
25903SOL    HW280248   5.791  10.218   3.600 -0.0216  1.4263 -0.4346
25904SOL     OW80249   9.783   2.218   0.227  0.0409  0.1223 -0.0602
25904SOL    HW180250   9.713   2.160   0.259 -0.1222  0.8661  0.9665
25904SOL    HW280251   9.754   2.244   0.139 -0.7733  0.0967  0.1974
25905SOL     OW80252   6.246   7.678   6.632 -0.3060  0.6916 -0.4588
25905SOL    HW180253   6.157   7.671   6.668 -0.0656 -0.0043  0.0263
25905SOL    HW280254   6.258   7.596   6.583 -0.1250  1.0252 -0.9706
25906SOL     OW80255   6.845   5.339   9.465  0.6895 -0.4798  0.2555
25906SOL    HW180256   6.937   5.351   9.440  0.1265  2.7395 -0.4419
25906SOL    HW280257   6.849   5.291   9.548  2.9123 -2.4156 -0.9309
25907SOL     OW80258   4.036   1.762   3.772 -0.4859 -0.1097 -0.3973
25907SOL    HW180259   4.105   1.782   3.709  0.7208  1.4760  1.3607
25907SOL    HW280260   3.979   1.839   3.771 -1.3157 -0.7281 -0.6753
25908SOL     OW80261   5.581   0.828   1.243 -0.8569  0.1107  0.6779
25908SOL    HW180262   5.595   0.773   1.166  1.0514 -0.5013  1.4368
25908SOL    HW280263   5.486   0.833   1.252 -1.1188  0.4451 -1.8813
25909SOL     OW80264   3.667   7.254   4.083 -0.6443  0.1319 -0.6378
25909SOL    HW180265   3.620   7.206   4.151 -2.8601  1.1359 -1.4008
25909SOL    HW280266   3.602   7.266   4.013  1.0145  0.8003 -2.1052
25910SOL     OW80267   5.770   0.526   9.463 -0.0127  0.2263  0.3103
25910SOL    HW180268   5.696   0.579   9.433 -0.5104  0.4521  1.9164
25910SOL    HW280269   5.765   0.446   9.411  0.2758  1.4012 -1.5804
25911SOL     OW80270   0.334   8.718  10.152  0.2731 -0.3849 -0.5412
25911SOL    HW180271   0.313   8.636  10.106  1.3147 -0.4460 -0.9322
25911SOL    HW280272   0.400   8.692  10.216  1.5009  0.3457 -1.4723
25912SOL     OW80273   1.439   4.420   6.847  0.2546 -0.0700 -0.4399
25912SOL    HW180274   1.521   4.460   6.818 -0.2731  0.9559 -0.5135
25912SOL    HW280275   1.436   4.437   6.941  1.2460 -2.1295  0.0108
25913SOL     OW80276   9.837   3.544   7.647  0.0061  0.1515  0.1820
25913SOL    HW180277   9.821   3.618   7.706 -1.8326 -0.9886  1.1575
25913SOL    HW280278   9.750   3.515   7.620  0.7465 -0.9245 -1.1036
25914SOL     OW80279   7.928   9.042   7.194 -0.4947  0.5231 -0.3380
25914SOL    HW180280   7.890   9.091   7.121 -3.4063  0.6786  1.1670
25914SOL    HW280281   7.884   8.957   7.191  2.1452 -0.8430 -0.9971
25915SOL     OW80282   8.041   4.857   0.163 -0.0363  0.5000  0.3120
25915SOL    HW180283   7.994   4.797   0.106 -1.0206  1.1610  0.4255
25915SOL    HW280284   8.039   4.815   0.250  1.1068 -0.3049 -0.0342
25916SOL     OW80285   3.154   0.529   4.920  0.1524  0.1553  0.2637
25916SOL    HW180286   3.217   0.458   4.907 -0.1207  0.0919 -0.8080
25916SOL    HW280287   3.184   0.599   4.862  0.3001  0.8387  1.1583
25917SOL     OW80288   2.373   1.149   8.974  0.4419 -0.2796  0.4085
25917SOL    HW180289   2.381   1.218   9.040 -1.9882  0.5969 -0.1439
25917SOL    HW280290   2.428   1.078   9.006  0.8532  0.8940  2.3641
25918SOL     OW80291  10.156   7.365   8.961  0.3820 -0.3931 -0.3087
25918SOL    HW180292  10.217   7.403   8.898  1.6404 -1.5530  0.1907
25918SOL    HW280293  10.150   7.273   8.937  0.5190 -0.7520  0.9866
25919SOL     OW80294   2.229   2.538   4.565 -0.2871 -0.8340  0.0022
25919SOL    HW180295   2.301   2.492   4.522 -0.2023 -1.6272  0.9637
25919SOL    HW280296   2.186   2.470   4.618  0.3131  0.3556  2.0585
25920SOL     OW80297   7.837   2.265   0.322 -0.6801  0.1169 -0.4452
25920SOL    HW180298   7.831   2.177   0.359  1.1648 -0.0838 -0.5806
25920SOL    HW280299   7.861   2.321   0.395  0.7505  0.0706 -0.8566
25921SOL     OW80300   4.178   1.867   6.292  0.8714 -0.0595  0.0691
25921SOL    HW180301   4.133   1.846   6.373  0.7359  1.0855  0.2968
25921SOL    HW280302   4.193   1.783   6.250  1.5749 -0.7241  1.6070
25922SOL     OW80303   3.787   6.910   7.329  0.1680  0.9246  0.2157
25922SOL    HW180304   3.833   6.897   7.246 -0.1018  0.1516  0.1870
25922SOL    HW280305   3.736   6.990   7.317 -2.2472 -0.8111 -1.4124
25923SOL     OW80306   7.621   2.932   6.770  0.6300  0.2641  0.5456
25923SOL    HW180307   7.663   3.018   6.768  1.2377 -0.0265  0.6026
25923SOL    HW280308   7.583   2.921   6.683  0.7761  0.4835  0.4537
25924SOL     OW80309   9.615   1.315   9.679 -0.8483 -0.1845  0.3856
25924SOL    HW180310   9.698   1.309   9.727 -0.8973  0.3806  0.5439
25924SOL    HW280311   9.569   1.389   9.719 -0.4912  0.8821 -1.1548
25925SOL     OW80312   6.362   3.893   2.749  0.5075  0.4258  0.1604
25925SOL    HW180313   6.375   3.850   2.833 -1.2133 -1.3669 -0.4532
25925SOL    HW280314   6.370   3.986   2.769  1.0381 -0.0192  2.1372
25926SOL     OW80315   0.094   1.622   0.037  0.1683 -0.1759 -0.0502
25926SOL    HW180316   0.139   1.704   0.017 -0.8820  0.1011 -1.3063
25926SOL    HW280317   0.030   1.646   0.103  0.0191 -0.0347 -0.2468
25927SOL     OW80318   1.033   0.598   0.729 -0.0972  0.4295  0.3604
25927SOL    HW180319   1.017   0.660   0.658  0.6358  0.8169  0.5270
25927SOL    HW280320   0.971   0.623   0.797 -0.2112  0.5984  0.1962
25928SOL     OW80321   6.265   4.705   4.899 -0.3039  0.0804  0.0295
25928SOL    HW180322   6.259   4.610   4.893  0.3166 -0.1157  1.9819
25928SOL    HW280323   6.261   4.736   4.808  0.3043 -1.8591 -0.6793
25929SOL     OW80324   0.674   1.714   5.596 -0.1173 -0.3686  0.0043
25929SOL    HW180325   0.706   1.629   5.567  2.5805 -0.0796  1.9068
25929SOL    HW280326   0.742   1.776   5.569 -2.0360  1.2111 -1.3532
25930SOL     OW80327   6.919   6.305   4.918  0.3844 -0.6690  0.9366
25930SOL    HW180328   6.895   6.396   4.903  0.7060 -0.3259  2.4683
25930SOL    HW280329   7.004   6.294   4.875 -0.3690 -0.6769 -0.5846
25931SOL     OW80330  10.045   9.893   6.549  0.9727  0.3886  0.0855
25931SOL    HW180331  10.102   9.928   6.617  1.3024  1.1178 -0.5621
25931SOL    HW280332  10.038   9.963   6.485  0.6656 -0.2942 -0.6376
25932SOL     OW80333   1.580   2.358   1.028  0.1253  0.0322 -0.2220
25932SOL    HW180334   1.560   2.316   0.944  2.9693  0.9937 -1.4503
25932SOL    HW280335   1.633   2.434   1.005  0.9626  0.3160  2.4436
25933SOL     OW80336   5.235   4.355   6.262 -0.2941  0.5319 -0.6607
25933SOL    HW180337   5.167   4.409   6.223  0.7168  1.2064 -1.5086
25933SOL    HW280338   5.212   4.350   6.355 -1.3838  0.9078 -0.9110
25934SOL     OW80339   6.278   2.985   9.884  0.1560  0.2892  0.5013
25934SOL    HW180340   6.282   3.026   9.970  3.1096  0.6324  0.2558
25934SOL    HW280341   6.265   3.058   9.824  0.1213  0.2843  0.5028
25935SOL     OW80342   8.218   2.625   2.568 -0.6146  0.3206  0.3026
25935SOL    HW180343   8.136   2.602   2.525 -0.5197  0.8053 -0.1410
25935SOL    HW280344   8.280   2.638   2.497  0.1802 -1.2998  0.6954
25936SOL     OW80345   5.314   3.087   7.212 -0.3467  0.1913  0.0304
25936SOL    HW180346   5.375   3.156   7.237 -0.3093  0.2289 -0.1657
25936SOL    HW280347   5.333   3.070   7.120  0.6838 -1.1303  0.4650
25937SOL     OW80348   1.799   2.267   9.372 -0.1038  0.4932 -0.5569
25937SOL    HW180349   1.841   2.198   9.319 -1.6603 -0.7790 -0.1598
25937SOL    HW280350   1.706   2.259   9.353 -0.5518  0.8880  1.3557
25938SOL     OW80351   1.841   5.306   0.735 -1.1470  0.4164  0.2025
25938SOL    HW180352   1.902   5.351   0.793  0.2236  0.6677 -1.3924
25938SOL    HW280353   1.767   5.283   0.791  0.6576 -0.4111  2.2882
25939SOL     OW80354   5.273   8.371   8.476  0.8698 -0.7848  0.0364
25939SOL    HW180355   5.232   8.438   8.421 -1.6368 -0.8382  1.7429
25939SOL    HW280356   5.335   8.418   8.531  0.9044 -0.2392 -0.4692
25940SOL     OW80357   4.703   8.923   1.478  0.2078  0.5902  0.4638
25940SOL    HW180358   4.772   8.977   1.516 -0.0698  1.6076 -0.4432
25940SOL    HW280359   4.744   8.838   1.464  1.4181  1.3239 -0.4974
25941SOL     OW80360   6.906   3.101   6.375  0.3290  0.2972 -0.0543
25941SOL    HW180361   6.841   3.074   6.440  1.0944  0.0513  0.6278
25941SOL    HW280362   6.875   3.185   6.343 -0.5036  0.0160  0.0119
25942SOL     OW80363   9.515   2.466   2.360  0.1879 -0.0191  0.5930
25942SOL    HW180364   9.570   2.485   2.436  1.3111 -0.1286 -0.1826
25942SOL    HW280365   9.453   2.400   2.392 -0.2023  0.8968  1.7708
25943SOL     OW80366   9.226   0.373   1.984 -0.2812  0.4169  0.2528
25943SOL    HW180367   9.239   0.336   2.072 -0.2536  2.1012  0.9812
25943SOL    HW280368   9.272   0.457   1.987 -0.0140  0.3439 -1.4938
25944SOL     OW80369   6.574   4.224   4.655 -0.4789  0.2412  0.0911
25944SOL    HW180370   6.617   4.309   4.655 -0.6377  0.3223 -0.0675
25944SOL    HW280371   6.636   4.165   4.697 -0.0276  0.2609 -0.5511
25945SOL     OW80372   3.786   0.980   4.661  0.1185 -0.5495 -0.0033
25945SOL    HW180373   3.735   0.905   4.632 -0.4741  0.2954 -1.1970
25945SOL    HW280374   3.877   0.959   4.638 -0.2328 -0.2789 -1.6527
25946SOL     OW80375   8.326   1.894   2.559  0.2439 -0.1148  0.1423
25946SOL    HW180376   8.242   1.887   2.515  0.2277  0.9033 -0.0014
25946SOL    HW280377   8.324   1.825   2.625 -1.1644  0.5927  0.8685
25947SOL     OW80378   8.952   9.280   2.459 -0.7329 -0.3962  0.1006
25947SOL    HW180379   9.044   9.270   2.482 -0.7860 -1.4127 -0.0734
25947SOL    HW280380   8.951   9.342   2.386 -0.4435  1.7442  1.8819
25948SOL     OW80381   5.953   0.502   3.045 -0.0865 -0.2887  0.7367
25948SOL    HW180382   5.940   0.414   3.080 -3.1595 -1.0089 -1.9155
25948SOL    HW280383   5.866   0.540   3.044  0.3093  0.7250 -3.2250
25949SOL     OW80384   0.420   5.237   3.725  0.3507 -0.0007  0.1121
25949SOL    HW180385   0.464   5.322   3.719 -0.3891  0.3200 -0.9008
25949SOL    HW280386   0.491   5.173   3.719  0.5978  0.4891 -2.8613
25950SOL     OW80387   8.326   2.847   6.315 -0.1766  0.0726  0.2051
25950SOL    HW180388   8.259   2.784   6.289  1.4227 -1.2656 -0.7440
25950SOL    HW280389   8.324   2.845   6.411 -0.3746 -1.1652  0.1896
25951SOL     OW80390   5.860   9.253   7.425 -0.0290 -0.2595 -0.1771
25951SOL    HW180391   5.901   9.308   7.359 -0.1921  0.0177 -0.0473
25951SOL    HW280392   5.863   9.164   7.388  1.9231 -0.4588  0.4342
25952SOL     OW80393   2.226   9.733   7.440  0.0365  0.1473  0.0392
25952SOL    HW180394   2.158   9.728   7.507 -0.3149  1.1721 -0.2342
25952SOL    HW280395   2.177   9.742   7.358  0.4489 -1.5388 -0.4121
25953SOL     OW80396   3.056   4.497   8.905  0.2380  0.0196 -0.0189
25953SOL    HW180397   3.090   4.461   8.824 -0.5711  0.0823 -0.3859
25953SOL    HW280398   3.061   4.592   8.893  1.1275  0.0327  0.4279
25954SOL     OW80399   4.709   8.075   6.717 -0.8857  0.1854 -0.3135
25954SOL    HW180400   4.787   8.102   6.669 -0.6490  0.0235 -0.0259
25954SOL    HW280401   4.712   8.125   6.799 -1.6125  0.9128 -0.7271
25955SOL     OW80402   5.784   1.399   3.075  0.6406  0.4344 -0.1779
25955SOL    HW180403   5.743   1.436   3.153  0.1777 -0.3792 -0.0297
25955SOL    HW280404   5.785   1.305   3.091  0.2792  0.2376 -1.2801
25956SOL     OW80405   2.537   3.626   7.891  0.3217 -0.2574  0.2402
25956SOL    HW180406   2.482   3.567   7.839 -0.2626  2.1827 -2.0357
25956SOL    HW280407   2.610   3.647   7.833  1.7347 -0.5295  1.8857
25957SOL     OW80408   0.736  10.012   6.628  0.1764  0.3300  0.3912
25957SOL    HW180409   0.793   9.999   6.552 -0.5647 -2.1611  0.2333
25957SOL    HW280410   0.659  10.057   6.592  1.9985  3.7954  0.6237
25958SOL     OW80411   9.417   5.778   8.442  0.1466 -0.1719  0.0505
25958SOL    HW180412   9.440   5.740   8.357  0.3820 -1.7678  0.8088
25958SOL    HW280413   9.324   5.755   8.453  0.1934 -0.2215  0.3479
25959SOL     OW80414   3.082   6.222   9.049  0.3635 -0.2722 -0.0689
25959SOL    HW180415   3.164   6.193   9.090 -0.0051 -0.1743  0.7532
25959SOL    HW280416   3.017   6.158   9.078 -0.0862  0.3280  0.2500
25960SOL     OW80417   6.775   9.106   9.139 -0.2155  0.1912  0.4726
25960SOL    HW180418   6.753   9.054   9.062  1.8772  0.9113 -0.6472
25960SOL    HW280419   6.784   9.195   9.106 -1.4056  0.8888  1.9468
25961SOL     OW80420  10.188   7.674   1.891  0.1305 -0.5731  0.5858
25961SOL    HW180421  10.096   7.679   1.864  0.1889  0.3582  0.5406
25961SOL    HW280422  10.206   7.759   1.929  1.5536 -0.0012 -1.2810
25962SOL     OW80423   0.899   0.668   6.564 -0.6481 -0.4486  0.2185
25962SOL    HW180424   0.939   0.588   6.597 -2.1208 -0.7129  1.4191
25962SOL    HW280425   0.809   0.644   6.543 -1.5081  1.1684  1.8766
25963SOL     OW80426   3.533   7.598   7.163  0.0005 -0.2160  0.7996
25963SOL    HW180427   3.553   7.540   7.236  1.9610  1.3472  1.5491
25963SOL    HW280428   3.594   7.571   7.094  1.1220  1.1104  1.2522
25964SOL     OW80429   3.286   5.930   1.265  0.4235 -0.0313  0.1480
25964SOL    HW180430   3.303   6.020   1.294  0.0961 -0.0200  0.3059
25964SOL    HW280431   3.344   5.876   1.319  0.0059  0.0130  0.6417
25965SOL     OW80432   0.734   7.148   5.859 -0.0531  0.5375 -0.1697
25965SOL    HW180433   0.731   7.141   5.955 -0.1230  0.6628 -0.1615
25965SOL    HW280434   0.821   7.118   5.835 -0.1613  0.1698 -0.0956
25966SOL     OW80435   4.949   8.123   6.999  0.2704 -0.6774 -0.6168
25966SOL    HW180436   4.932   8.029   7.005  1.4658 -0.9051 -0.6692
25966SOL    HW280437   5.032   8.135   7.044  0.0347  0.3860 -0.4601
25967SOL     OW80438   2.389   0.395   7.187  0.4935 -0.0676  0.3268
25967SOL    HW180439   2.298   0.396   7.219  0.8291 -1.4574  1.3453
25967SOL    HW280440   2.396   0.475   7.136 -0.8519  0.8688  1.5482
25968SOL     OW80441   6.994   0.711   9.541 -0.3013 -0.1250  1.3386
25968SOL    HW180442   6.929   0.693   9.474 -0.6645  0.7823  1.4404
25968SOL    HW280443   7.055   0.772   9.500  1.2222 -1.9643  0.8193
25969SOL     OW80444   7.024   8.285   7.605  0.8655  0.4849 -0.2992
25969SOL    HW180445   7.090   8.267   7.671  0.6259 -0.5118 -0.3192
25969SOL    HW280446   6.982   8.200   7.590 -1.4917  1.4104  0.8721
25970SOL     OW80447   9.771   9.603   0.074  0.3080 -0.3517  0.3229
25970SOL    HW180448   9.764   9.596   0.169  0.4728  0.0213  0.3659
25970SOL    HW280449   9.769   9.513   0.043 -1.0749 -0.4162  0.5797
25971SOL     OW80450   2.145   7.351   1.178 -0.0759 -0.2695 -0.0423
25971SOL    HW180451   2.125   7.379   1.268 -0.7353  1.4323 -0.7008
25971SOL    HW280452   2.071   7.382   1.126 -0.2620 -2.2639 -1.0066
25972SOL     OW80453   2.875   2.403   5.718 -0.3943 -0.0065  0.2098
25972SOL    HW180454   2.890   2.478   5.660 -0.8621  0.2895  0.4711
25972SOL    HW280455   2.917   2.427   5.800 -0.4035 -0.1027  0.2429
25973SOL     OW80456   6.778   7.254   6.906 -0.0145 -0.4107  0.3479
25973SOL    HW180457   6.864   7.272   6.944 -0.3868 -0.3723  1.1814
25973SOL    HW280458   6.744   7.340   6.881 -0.2104 -0.3285  0.8913
25974SOL     OW80459   3.864   6.498   4.314  0.1090 -0.5394 -0.1033
25974SOL    HW180460   3.882   6.405   4.329 -0.7330 -0.9274 -1.5030
25974SOL    HW280461   3.780   6.514   4.357  0.2903 -0.3933  0.2045
25975SOL     OW80462   0.641   3.567   7.657  0.0703  0.0969 -0.3770
25975SOL    HW180463   0.660   3.576   7.751 -0.5456  0.8894 -0.3318
25975SOL    HW280464   0.727   3.550   7.618  0.5572  1.2607  0.1464
25976SOL     OW80465   5.443   0.254   7.167  0.9443 -0.0804 -0.0134
25976SOL    HW180466   5.488   0.173   7.141  1.5041  0.0934  0.4087
25976SOL    HW280467   5.445   0.254   7.262  1.7117  0.8536 -0.0183
25977SOL     OW80468   8.358   5.915   0.606 -0.2396  0.1922  0.0649
25977SOL    HW180469   8.263   5.916   0.599 -0.2176  2.2225 -0.1778
25977SOL    HW280470   8.381   5.999   0.645  1.5013  0.0143 -0.4981
25978SOL     OW80471   5.674   8.966   8.417 -0.0279  0.7898 -0.2229
25978SOL    HW180472   5.624   8.970   8.499  1.3111  1.0570  0.6116
25978SOL    HW280473   5.682   8.873   8.398 -1.2009  0.7645 -0.5911
25979SOL     OW80474   4.120   9.362   9.376 -0.0726 -0.1093  0.5100
25979SOL    HW180475   4.118   9.445   9.328  0.6619 -0.8032 -0.7687
25979SOL    HW280476   4.032   9.354   9.414 -0.3230  0.9789  0.1841
25980SOL     OW80477   1.428   6.164   1.899 -0.1508 -0.0247  0.0423
25980SOL    HW180478   1.485   6.176   1.975  0.0987  2.1458 -0.4499
25980SOL    HW280479   1.389   6.077   1.911  3.1436 -1.5339  0.4743
25981SOL     OW80480   5.736   7.075   1.863  0.3946 -0.6892  0.3305
25981SOL    HW180481   5.744   6.982   1.842 -0.3157 -0.5931 -0.4094
25981SOL    HW280482   5.771   7.120   1.785 -0.7519 -0.3349  0.0076
25982SOL     OW80483   0.462   9.254   0.732  0.0204  0.6561  0.8517
25982SOL    HW180484   0.376   9.295   0.719 -0.7667 -0.6658  1.7823
25982SOL    HW280485   0.449   9.194   0.805  1.6113  0.0306  0.6331
25983SOL     OW80486   9.376   3.127   1.692  0.9190 -0.1681  0.3738
25983SOL    HW180487   9.368   3.035   1.716  0.5201  0.1143  1.3794
25983SOL    HW280488   9.298   3.168   1.729 -0.4747  0.0652 -2.6690
25984SOL     OW80489   7.510   6.227   9.415  0.0428 -0.2799  0.4987
25984SOL    HW180490   7.570   6.196   9.482  0.1135  0.2445  0.6786
25984SOL    HW280491   7.490   6.317   9.440 -1.3139 -0.6438  0.8042
25985SOL     OW80492   0.950   9.993   8.669  0.0613 -0.3288 -0.1734
25985SOL    HW180493   0.987   9.971   8.583 -2.9508  1.5226 -2.0568
25985SOL    HW280494   0.986  10.080   8.689 -0.4778 -0.0623 -0.3448
25986SOL     OW80495   0.506  10.181   1.576 -0.3066 -0.5161 -0.1227
25986SOL    HW180496   0.417  10.163   1.544 -0.3537 -1.1841  0.3783
25986SOL    HW280497   0.523  10.112   1.640  0.7514 -0.6559 -0.5484
25987SOL     OW80498   4.341   3.827   3.420 -0.9305  0.0732 -0.0797
25987SOL    HW180499   4.383   3.810   3.336  0.1552 -0.6471  0.6054
25987SOL    HW280500   4.408   3.871   3.473 -0.7641 -1.7014  1.2589
25988SOL     OW80501   7.431   5.816   5.534  0.2893  0.3054  0.3176
25988SOL    HW180502   7.406   5.740   5.587  0.7495  0.5041  0.8124
25988SOL    HW280503   7.510   5.850   5.575  0.2028  0.9320 -0.0273
25989SOL     OW80504   1.715   2.778   6.453 -0.2228  0.8813 -0.1137
25989SOL    HW180505   1.658   2.798   6.527 -0.3922  0.0535 -0.0228
25989SOL    HW280506   1.654   2.765   6.380 -0.1334  0.3582 -0.0969
25990SOL     OW80507   9.580   6.200   0.796  0.2148  0.1267 -0.2768
25990SOL    HW180508   9.513   6.268   0.792  2.0731  2.0270  0.1438
25990SOL    HW280509   9.592   6.183   0.890 -0.3601 -0.9256 -0.3832
25991SOL     OW80510   8.240   8.641   3.960  0.9265  0.0088  0.1516
25991SOL    HW180511   8.321   8.684   3.933  0.4613  0.8197  0.0161
25991SOL    HW280512   8.171   8.703   3.935  0.3962  0.2502  2.1489
25992SOL     OW80513   9.799   1.657   3.570  0.4440  0.0740 -0.0217
25992SOL    HW180514   9.837   1.675   3.657 -0.7149  0.0287  0.5023
25992SOL    HW280515   9.741   1.583   3.585 -1.9518  1.8676 -0.2448
25993SOL     OW80516   0.458   9.528   8.630  0.1300 -0.5233  0.4097
25993SOL    HW180517   0.382   9.586   8.625 -0.1734 -0.8729  0.8952
25993SOL    HW280518   0.515   9.569   8.696  2.2794  1.9412 -2.8415
25994SOL     OW80519   5.841   0.971   8.343 -0.0779  0.2729  0.0190
25994SOL    HW180520   5.779   0.915   8.390 -0.5724  0.9822  0.2107
25994SOL    HW280521   5.917   0.977   8.401 -1.2110  2.2397  1.3505
25995SOL     OW80522   8.177   3.030   1.350 -0.2340 -0.1452 -0.6720
25995SOL    HW180523   8.092   3.020   1.309 -0.5320  0.8447 -0.3038
25995SOL    HW280524   8.159   3.033   1.444  0.3072 -0.9946 -0.5347
25996SOL     OW80525   0.287   0.366   4.003  0.3306  0.0427  0.3165
25996SOL    HW180526   0.323   0.305   4.067  0.0063 -0.6546 -0.1523
25996SOL    HW280527   0.354   0.371   3.935 -0.0105 -0.4543 -0.0570
25997SOL     OW80528   0.862   1.930   6.097 -0.4732  0.1593 -0.0077
25997SOL    HW180529   0.835   1.894   6.012  0.9619  1.4538 -1.0521
25997SOL    HW280530   0.834   2.022   6.094  2.1368  0.9860 -0.2899
25998SOL     OW80531   2.498   2.101   7.228  0.5861  0.2558 -0.2420
25998SOL    HW180532   2.536   2.189   7.228  2.3363 -0.3366  4.3191
25998SOL    HW280533   2.569   2.044   7.198 -0.0482  0.2079 -1.6805
25999SOL     OW80534   3.922   4.725   6.832  0.3128 -0.5273 -0.0327
25999SOL    HW180535   3.953   4.637   6.853 -1.4739 -1.5634 -1.6012
25999SOL    HW280536   3.969   4.750   6.753  1.3354  0.2360  0.7992
26000SOL     OW80537   0.082   0.762   4.466 -0.1569 -0.2380  0.2984
26000SOL    HW180538   0.059   0.822   4.395 -0.0672 -0.2752  0.2373
26000SOL    HW280539   0.008   0.701   4.471 -1.2680  1.2132  1.8328
26001SOL     OW80540   1.812   8.500   9.261  0.2093  0.6062 -0.4348
26001SOL    HW180541   1.863   8.531   9.187  1.2124 -0.9343 -0.3877
26001SOL    HW280542   1.876   8.488   9.331 -0.2738 -0.9740 -0.2634
26002SOL     OW80543   2.218   0.132   7.116  1.0541 -0.5900  0.3681
26002SOL    HW180544   2.251   0.069   7.179  1.3819  0.4773  1.2831
26002SOL    HW280545   2.289   0.196   7.107  0.8367 -0.5012 -0.7516
26003SOL     OW80546   8.218   1.435   8.509  0.5143  0.2519 -0.3419
26003SOL    HW180547   8.229   1.499   8.440  1.8908  0.3016 -0.1076
26003SOL    HW280548   8.281   1.365   8.487 -0.9212 -0.9906 -0.5740
26004SOL     OW80549   4.138   9.429   5.154 -0.2033 -0.5331  0.3547
26004SOL    HW180550   4.175   9.352   5.111  0.6815 -0.4898  1.0253
26004SOL    HW280551   4.079   9.394   5.220 -0.2169 -0.6248  0.2937
26005SOL     OW80552   2.033   7.122   8.830  0.0366 -0.3253 -0.6284
26005SOL    HW180553   2.060   7.210   8.856  0.3827 -0.1520 -1.5476
26005SOL    HW280554   2.066   7.066   8.900 -1.2627  0.3970  0.6022
26006SOL     OW80555   0.261   2.438   8.619 -0.1473  0.2276 -0.3550
26006SOL    HW180556   0.263   2.457   8.713 -0.5534 -0.9528 -0.1024
26006SOL    HW280557   0.176   2.469   8.590 -0.1457  0.3085 -0.2750
26007SOL     OW80558   2.355   1.020   2.398  0.2174 -0.2155  0.1600
26007SOL    HW180559   2.399   1.092   2.353  0.0109 -1.4992 -2.1553
26007SOL    HW280560   2.264   1.027   2.371 -0.2744  0.1158  1.8799
26008SOL     OW80561   1.277   0.033   4.874 -0.7144 -0.4190 -0.3215
26008SOL    HW180562   1.272  -0.004   4.962  0.6336 -1.4026 -0.6426
26008SOL    HW280563   1.344   0.102   4.881 -0.8042 -0.3107 -0.5134
26009SOL     OW80564   8.845   8.437   0.677  0.0586  0.0418  0.3810
26009SOL    HW180565   8.846   8.385   0.597 -0.9197  0.3319  0.1705
26009SOL    HW280566   8.805   8.380   0.743  0.9726 -0.2397  0.6921
26010SOL     OW80567   3.199   1.878   5.474 -0.3101 -0.6628 -0.0607
26010SOL    HW180568   3.174   1.935   5.401 -0.8677  0.9762  1.3818
26010SOL    HW280569   3.119   1.828   5.494 -0.0387 -1.4120 -0.8302
26011SOL     OW80570   9.884   8.003   2.724  0.2164 -0.2498  0.1041
26011SOL    HW180571   9.895   8.097   2.737 -1.4194  0.1687 -1.4178
26011SOL    HW280572   9.943   7.981   2.652 -0.9572  0.0260 -0.9603
26012SOL     OW80573   5.029   9.452   8.510  0.3187 -0.4744  0.5273
26012SOL    HW180574   4.992   9.418   8.591 -0.0375 -2.0920 -0.2810
26012SOL    HW280575   4.973   9.526   8.487  0.9119  0.4838  2.1742
26013SOL     OW80576  10.009   9.049   5.174  0.2038 -0.0864 -0.0205
26013SOL    HW180577   9.930   9.100   5.188  0.7024  0.4129  1.0804
26013SOL    HW280578  10.034   9.020   5.262 -1.2106 -3.9934 -0.8298
26014SOL     OW80579   2.456   8.456   7.578  0.0217  0.3308 -0.2270
26014SOL    HW180580   2.366   8.461   7.610 -0.2214 -1.3153 -0.6164
26014SOL    HW280581   2.506   8.424   7.653 -0.0550 -0.7020 -0.6193
26015SOL     OW80582   0.665   7.347   7.378 -0.4978 -0.5267  0.1238
26015SOL    HW180583   0.584   7.313   7.417  0.2337 -1.3572  0.9419
26015SOL    HW280584   0.721   7.270   7.370  0.0328 -0.0353 -0.9001
26016SOL     OW80585   5.308   2.835   7.586  0.0211 -0.6667 -0.0588
26016SOL    HW180586   5.388   2.836   7.533  0.1142 -0.5055  0.0831
26016SOL    HW280587   5.315   2.755   7.638  0.4268 -0.3033  0.4586
26017SOL     OW80588   0.670   2.704   7.954 -0.2935  0.1647  0.4771
26017SOL    HW180589   0.588   2.658   7.969 -1.1789  0.9134 -1.8516
26017SOL    HW280590   0.709   2.711   8.041 -1.8925 -1.6594  1.3875
26018SOL     OW80591   8.147   3.858   7.951  0.3638  0.5700  0.2328
26018SOL    HW180592   8.148   3.797   7.878  0.1610  0.5480  0.2501
26018SOL    HW280593   8.231   3.903   7.945  1.5885 -1.3926  1.6188
26019SOL     OW80594   0.613   4.577   2.116 -0.0846 -0.0974  0.0532
26019SOL    HW180595   0.532   4.537   2.084  0.3462 -1.5741  0.7850
26019SOL    HW280596   0.665   4.590   2.036  0.0420 -1.6396 -0.1447
26020SOL     OW80597   0.988   5.134   7.557 -0.4615  0.1065  0.0253
26020SOL    HW180598   0.933   5.201   7.598 -0.2188 -0.0216  0.5673
26020SOL    HW280599   1.047   5.106   7.627 -0.2081 -0.2922 -0.3478
26021SOL     OW80600   6.453   7.828   1.269 -0.1353  0.0764  0.0343
26021SOL    HW180601   6.439   7.918   1.240 -0.7186  0.0806  0.3177
26021SOL    HW280602   6.374   7.781   1.241 -0.1809 -0.1749  0.5741
26022SOL     OW80603   4.085   3.217   2.231 -0.3527 -0.6472 -0.1765
26022SOL    HW180604   4.167   3.209   2.181  0.1338 -1.7167  0.7690
26022SOL    HW280605   4.051   3.303   2.207  1.2287 -0.0492 -0.3260
26023SOL     OW80606   3.619   2.449   7.337 -0.0703 -0.0044  0.0931
26023SOL    HW180607   3.539   2.396   7.337 -0.3770  0.4525 -0.0880
26023SOL    HW280608   3.590   2.535   7.307  0.5649  0.0512 -0.3602
26024SOL     OW80609   6.622   0.327   3.972  0.7250  0.1969 -0.1189
26024SOL    HW180610   6.660   0.298   3.889 -1.6026  0.1430 -1.1981
26024SOL    HW280611   6.592   0.246   4.014  0.0852  0.4140 -0.1552
26025SOL     OW80612   9.053   5.645   2.626  0.1275  0.2166  0.1023
26025SOL    HW180613   9.072   5.620   2.535  2.0275  0.3557  0.4458
26025SOL    HW280614   9.001   5.725   2.617  1.4828  1.0161 -0.8653
26026SOL     OW80615   0.768   1.969   5.359  0.4969  0.5458  0.0970
26026SOL    HW180616   0.685   2.006   5.390  1.9949  4.9136 -0.8169
26026SOL    HW280617   0.746   1.929   5.274 -1.0784 -0.4226  0.9232
26027SOL     OW80618   1.240   1.883   3.712 -0.3619  0.3695  0.1822
26027SOL    HW180619   1.195   1.967   3.700 -3.0434 -0.3684  4.2279
26027SOL    HW280620   1.170   1.817   3.702  0.0438 -0.9002  4.6463
26028SOL     OW80621   7.133   8.127   4.284 -0.0681 -0.6035  0.2621
26028SOL    HW180622   7.043   8.115   4.252  0.4567 -2.7075 -0.4863
26028SOL    HW280623   7.155   8.044   4.326  1.7351 -0.3046 -0.0602
26029SOL     OW80624   6.075   7.448   6.891  0.5363 -0.1061  0.2607
26029SOL    HW180625   6.161   7.419   6.923 -0.2430 -1.9992  0.7068
26029SOL    HW280626   6.050   7.519   6.949 -0.2630 -2.6145  3.1273
26030SOL     OW80627   0.345   2.880   0.996  0.6872  0.5241 -0.0054
26030SOL    HW180628   0.266   2.830   0.978 -0.0157  0.3046  3.4071
26030SOL    HW280629   0.319   2.972   0.983  0.4319  0.3471 -0.7805
26031SOL     OW80630   3.575   3.835   5.815 -0.1362  0.2256 -0.1042
26031SOL    HW180631   3.615   3.748   5.811  0.7005  0.5893  0.3282
26031SOL    HW280632   3.590   3.872   5.728 -0.1569  0.0852 -0.1684
26032SOL     OW80633   1.031   9.956   3.926  0.3808  0.2207 -0.5335
26032SOL    HW180634   1.056   9.932   4.015 -0.9050  1.1725  0.0893
26032SOL    HW280635   1.017   9.872   3.882 -2.2376 -0.2377  1.0904
26033SOL     OW80636   2.054   4.724   8.816 -0.9130  0.6993 -0.0261
26033SOL    HW180637   2.077   4.782   8.889  1.3496  0.4414 -0.5087
26033SOL    HW280638   2.053   4.636   8.854 -0.4718  0.6447 -0.1382
26034SOL     OW80639   6.721   6.124   7.695 -0.4403  0.3731  0.3430
26034SOL    HW180640   6.669   6.104   7.618  0.9160  0.4710 -0.6208
26034SOL    HW280641   6.720   6.044   7.747 -0.8701  0.1174 -0.0624
26035SOL     OW80642   0.486   6.415   6.467 -0.0715 -0.2405  0.4835
26035SOL    HW180643   0.458   6.438   6.556  2.6763  1.8165  0.8887
26035SOL    HW280644   0.541   6.488   6.440  0.4250 -1.6012 -2.3202
26036SOL     OW80645   4.594   5.098   4.104 -0.4027 -0.0631  0.1997
26036SOL    HW180646   4.676   5.052   4.122  0.3122  0.7981 -0.7813
26036SOL    HW280647   4.585   5.095   4.009 -0.7434  1.1362  0.1875
26037SOL     OW80648   9.544   9.363   7.208  0.1555  0.0644  0.6737
26037SOL    HW180649   9.499   9.428   7.154  1.6885  0.5345 -0.0756
26037SOL    HW280650   9.477   9.297   7.227 -1.2945  1.6018  1.0413
26038SOL     OW80651   2.233   9.542   7.874  0.1733  0.4847  0.0022
26038SOL    HW180652   2.224   9.505   7.962 -0.1201  2.2317  0.7245
26038SOL    HW280653   2.317   9.509   7.842  0.1128 -0.4415  0.7900
26039SOL     OW80654   8.032   5.806   4.261 -0.4167 -0.5431 -0.5482
26039SOL    HW180655   8.111   5.834   4.215 -0.8027  0.6590 -0.5065
26039SOL    HW280656   8.063   5.780   4.348 -0.0296 -0.2828 -0.6074
26040SOL     OW80657   8.315   9.988   1.005 -0.2218 -0.3950  0.1342
26040SOL    HW180658   8.356  10.044   0.939 -0.1996 -1.1722 -0.5212
26040SOL    HW280659   8.314   9.901   0.965  0.3559 -0.9938  1.3996
26041SOL     OW80660   4.846   2.441   2.228  0.0344 -0.0956  0.4258
26041SOL    HW180661   4.832   2.349   2.252  1.0636 -0.1573  0.8198
26041SOL    HW280662   4.771   2.487   2.265 -0.9764 -0.9090 -0.5939
26042SOL     OW80663  10.013   5.752   2.553  0.1544  0.0907 -0.0122
26042SOL    HW180664  10.083   5.737   2.617  0.3104  0.3114 -0.1272
26042SOL    HW280665  10.059   5.777   2.473 -0.0678  0.6478  0.0271
26043SOL     OW80666   4.640   7.248   5.205 -0.0433  0.3218 -0.2558
26043SOL    HW180667   4.554   7.284   5.183 -0.4756 -1.4260 -1.5344
26043SOL    HW280668   4.665   7.293   5.286 -3.4152 -1.1712  1.7398
26044SOL     OW80669   3.755   8.253   1.534  0.2733 -0.4703 -0.2356
26044SOL    HW180670   3.668   8.281   1.562 -0.3752  0.4193 -2.9086
26044SOL    HW280671   3.752   8.158   1.537 -0.4141 -0.4274  0.7339
26045SOL     OW80672   5.763   7.429   1.838  0.6774  0.2935  0.0042
26045SOL    HW180673   5.745   7.341   1.807  0.0281  0.6819 -0.7273
26045SOL    HW280674   5.852   7.448   1.808  0.6086  0.1011 -0.3136
26046SOL     OW80675   7.855   1.230   5.512  0.2549 -0.2935 -0.6883
26046SOL    HW180676   7.807   1.152   5.538  2.3129 -1.1883  0.5172
26046SOL    HW280677   7.828   1.298   5.574  1.1119 -1.0069  0.4807
26047SOL     OW80678   2.521   4.456   6.671  0.2493  0.1262  0.5300
26047SOL    HW180679   2.613   4.433   6.654  0.3437  3.0885 -3.6788
26047SOL    HW280680   2.525   4.536   6.723  0.0907  0.6641 -0.2742
26048SOL     OW80681   9.020   5.276   5.605 -0.6726  0.0812 -0.5450
26048SOL    HW180682   9.109   5.304   5.585 -0.8887  0.3762 -1.0986
26048SOL    HW280683   8.977   5.355   5.637 -0.6852 -0.1048 -0.0913
26049SOL     OW80684   7.425   8.022   5.558 -0.1885  0.0171  0.2996
26049SOL    HW180685   7.447   7.936   5.594 -0.6358 -0.7323 -1.1593
26049SOL    HW280686   7.471   8.085   5.614 -1.2313 -1.0684  2.4429
26050SOL     OW80687   2.303   1.833   2.748  0.2114  0.6823  0.1605
26050SOL    HW180688   2.217   1.870   2.728 -0.8628 -1.0661  1.4171
26050SOL    HW280689   2.323   1.779   2.671 -0.0263  0.7067  0.0794
26051SOL     OW80690   2.195   3.762   8.275  0.4341  0.0034  0.2890
26051SOL    HW180691   2.113   3.810   8.262  0.9839  0.7092 -0.6207
26051SOL    HW280692   2.237   3.763   8.189  1.4857 -0.1905  0.7952
26052SOL     OW80693   8.500   0.129   8.961 -0.2181  0.4410  1.0371
26052SOL    HW180694   8.572   0.076   8.926 -1.4273 -0.6136  0.0940
26052SOL    HW280695   8.459   0.074   9.027 -0.9177  0.5686  0.7074
26053SOL     OW80696   8.014   7.558   2.688  1.3345  0.5463 -0.3747
26053SOL    HW180697   7.955   7.518   2.623 -0.7030  1.7706  0.6858
26053SOL    HW280698   8.094   7.506   2.682 -0.2618 -1.9511 -1.0000
26054SOL     OW80699   3.765   4.805   4.232  0.3829 -0.1610 -0.4749
26054SOL    HW180700   3.786   4.794   4.139 -0.4857  1.5468 -0.8908
26054SOL    HW280701   3.841   4.850   4.268  0.9438 -1.2796 -0.2304
26055SOL     OW80702   2.193   8.510   3.346 -0.3009 -0.1860  0.6084
26055SOL    HW180703   2.204   8.606   3.344 -0.8892 -0.1205  0.0178
26055SOL    HW280704   2.194   8.485   3.253 -1.0600 -0.6410  0.7217
26056SOL     OW80705   1.897   0.814   7.681  0.4437  0.4111  0.0753
26056SOL    HW180706   1.913   0.909   7.680 -0.8453  0.6445  0.5802
26056SOL    HW280707   1.821   0.804   7.738  0.8331 -0.9758  0.3487
26057SOL     OW80708   9.844   5.469   6.342  0.8874 -0.1420  0.2555
26057SOL    HW180709   9.927   5.423   6.339 -0.4101 -2.4532 -2.0355
26057SOL    HW280710   9.787   5.414   6.396 -0.4451 -0.9407 -1.8727
26058SOL     OW80711   1.530   7.216   7.885 -0.4098 -0.0019 -0.4944
26058SOL    HW180712   1.572   7.241   7.967  0.3159 -0.7091 -0.6442
26058SOL    HW280713   1.491   7.297   7.852 -0.4249  0.3523  0.3837
26059SOL     OW80714   2.246   3.000   3.877  0.1004  0.5674  0.0373
26059SOL    HW180715   2.244   2.928   3.813 -0.9387  0.3839  0.2623
26059SOL    HW280716   2.264   2.957   3.961  0.5015  0.6906  0.0135
26060SOL     OW80717   2.290   2.404   5.946 -0.5048 -0.0029  0.4172
26060SOL    HW180718   2.236   2.431   5.872 -0.8543 -0.2785  0.5734
26060SOL    HW280719   2.342   2.331   5.914 -1.6679 -1.0276  0.8563
26061SOL     OW80720   2.512   1.892   9.572 -0.4012 -0.2808 -0.4382
26061SOL    HW180721   2.470   1.806   9.573 -1.4123  0.1955  2.6498
26061SOL    HW280722   2.586   1.883   9.632 -0.1552  0.8461 -0.5615
26062SOL     OW80723   5.189   7.952   0.495  0.2224 -0.2067 -0.3082
26062SOL    HW180724   5.127   7.909   0.555  0.9289  1.0482  1.3704
26062SOL    HW280725   5.263   7.892   0.489  0.4319 -0.0492  0.6121
26063SOL     OW80726   5.600   4.266   2.567  0.1055 -0.6332 -0.0752
26063SOL    HW180727   5.682   4.218   2.552  0.9534  0.6943  0.2306
26063SOL    HW280728   5.598   4.331   2.497  0.2069  0.5115  0.9726
26064SOL     OW80729   1.378   7.552   2.863 -0.2703  0.3577  0.4084
26064SOL    HW180730   1.412   7.571   2.775 -0.3043  1.6825  0.6662
26064SOL    HW280731   1.313   7.484   2.850  0.3107 -0.0359 -0.4893
26065SOL     OW80732   0.756   3.920   2.546  0.0919  0.4528  0.2837
26065SOL    HW180733   0.677   3.870   2.564  0.7262 -0.6682  0.0462
26065SOL    HW280734   0.737   4.008   2.577 -1.7258  0.5358 -0.9907
26066SOL     OW80735   8.907   9.755   2.210 -0.0355 -0.2626 -0.0660
26066SOL    HW180736   8.918   9.731   2.118 -0.1790 -1.7028  0.2840
26066SOL    HW280737   8.958   9.836   2.220  0.4882 -0.4404 -1.2551
26067SOL     OW80738   8.467   7.994   2.356 -0.4092  0.3409 -0.0706
26067SOL    HW180739   8.536   7.945   2.313  0.5046  1.6718 -0.1520
26067SOL    HW280740   8.427   7.931   2.416  0.7608 -0.4896 -0.1383
26068SOL     OW80741   5.307   6.182   1.772  0.6917 -0.8412 -0.4191
26068SOL    HW180742   5.303   6.273   1.803  2.0714 -1.0195  0.3294
26068SOL    HW280743   5.398   6.171   1.743  0.2710 -1.6869 -1.4283
26069SOL     OW80744   1.758   9.502   6.705  0.3886 -0.1794  0.1785
26069SOL    HW180745   1.775   9.468   6.793  1.3032 -1.1606 -0.3727
26069SOL    HW280746   1.676   9.461   6.680 -0.4073  0.8849  0.9558
26070SOL     OW80747   8.050   2.660   2.795 -0.5225 -0.2230  0.3825
26070SOL    HW180748   8.108   2.636   2.723 -0.9222  1.8359 -0.6579
26070SOL    HW280749   7.975   2.601   2.784  0.0123 -0.8313 -0.0834
26071SOL     OW80750   3.838  10.035   0.158  0.3637  0.5335 -0.3613
26071SOL    HW180751   3.857   9.970   0.090 -0.7623  0.9728 -1.1023
26071SOL    HW280752   3.787   9.986   0.223 -2.3374  1.1678 -1.9449
26072SOL     OW80753   6.035   8.732   1.883 -0.2820 -0.1255  0.0430
26072SOL    HW180754   6.116   8.782   1.898  0.8272 -1.4573 -1.3389
26072SOL    HW280755   6.064   8.641   1.874 -1.8958 -0.5851 -0.7646
26073SOL     OW80756   9.319   5.521   4.886  0.1710  0.5387 -0.1126
26073SOL    HW180757   9.371   5.490   4.812 -0.4984 -0.3714 -0.2037
26073SOL    HW280758   9.285   5.442   4.927  0.9901  1.0168  1.5072
26074SOL     OW80759   7.527   1.901   9.792  0.1137  0.2607  0.0277
26074SOL    HW180760   7.444   1.943   9.772  1.2470  1.9080 -1.3855
26074SOL    HW280761   7.592   1.970   9.780  1.7989 -1.3098 -0.0390
26075SOL     OW80762   6.817   8.098   0.501 -0.4481 -0.4216 -0.1349
26075SOL    HW180763   6.804   8.021   0.556 -0.5236 -0.0002  0.4328
26075SOL    HW280764   6.750   8.090   0.432 -1.3590 -0.1367  0.7128
26076SOL     OW80765   9.875   3.585   2.570  0.6944 -0.5888 -0.1708
26076SOL    HW180766   9.837   3.579   2.658 -0.1779  0.6713 -0.4605
26076SOL    HW280767   9.967   3.609   2.586  0.1923  1.0695  0.3649
26077SOL     OW80768   4.216   4.508   2.358 -0.0851 -0.0760  0.1075
26077SOL    HW180769   4.182   4.419   2.350 -0.4462  0.1366 -0.7393
26077SOL    HW280770   4.168   4.558   2.292  1.6869  0.2955 -0.9065
26078SOL     OW80771   0.335   1.647   6.874 -0.4427  0.5040  0.2414
26078SOL    HW180772   0.387   1.614   6.947  0.4793  0.6865 -0.3295
26078SOL    HW280773   0.290   1.570   6.840  1.0030 -0.0370 -0.5111
26079SOL     OW80774   1.211   3.200   3.785 -0.5603  0.3534  0.2441
26079SOL    HW180775   1.278   3.170   3.847  0.7244  1.5514 -0.5214
26079SOL    HW280776   1.135   3.145   3.803  0.1729 -0.0998  2.0874
26080SOL     OW80777   2.308   0.946   1.505  0.5809  0.7022 -0.4369
26080SOL    HW180778   2.347   0.861   1.484 -1.5614 -0.0703 -1.3632
26080SOL    HW280779   2.331   1.001   1.431  1.9005  0.9428  0.1240
26081SOL     OW80780   0.115   7.623  10.131 -0.1049 -0.0981  0.4573
26081SOL    HW180781   0.066   7.679  10.071  2.7239 -0.1171 -1.9455
26081SOL    HW280782   0.090   7.534  10.106 -0.1692 -0.0577  0.3783
26082SOL     OW80783   7.259   1.140   4.628  0.2403  0.4339  0.1040
26082SOL    HW180784   7.213   1.089   4.561 -0.2129  1.7385 -0.6114
26082SOL    HW280785   7.247   1.090   4.708 -0.0381 -0.6732 -0.6089
26083SOL     OW80786   3.414   3.684   2.755 -0.0881 -0.1596 -0.2584
26083SOL    HW180787   3.497   3.710   2.794  0.4443  1.1830 -2.2320
26083SOL    HW280788   3.360   3.656   2.830  1.5688  0.4690  1.1975
26084SOL     OW80789   7.314   2.606   5.588 -0.3389  0.5336  0.3184
26084SOL    HW180790   7.327   2.637   5.498 -1.6970  1.0621  0.2872
26084SOL    HW280791   7.347   2.516   5.587 -0.4215  0.5043 -0.7404
26085SOL     OW80792   0.511   4.627   6.592  0.2334 -0.0176  0.1183
26085SOL    HW180793   0.418   4.622   6.570  0.1111 -0.3197  0.6837
26085SOL    HW280794   0.556   4.627   6.508 -0.3250  1.2650 -0.1765
26086SOL     OW80795   6.881   0.946   9.065 -0.1742 -0.2918 -0.2999
26086SOL    HW180796   6.905   0.914   9.152 -0.8711  1.8849  0.7348
26086SOL    HW280797   6.787   0.926   9.057 -0.3509  0.4555 -0.1154
26087SOL     OW80798   4.846   0.074   3.206  0.1255  0.4171 -0.3167
26087SOL    HW180799   4.921   0.021   3.180  0.3407  0.7398 -0.3622
26087SOL    HW280800   4.879   0.164   3.204 -0.1543  0.5276  0.0353
26088SOL     OW80801   9.137   7.014   5.685  0.1357  0.0923 -0.0011
26088SOL    HW180802   9.072   7.037   5.750  1.0954  1.0478  0.6509
26088SOL    HW280803   9.171   7.099   5.654  1.1953 -0.3809 -0.1806
26089SOL     OW80804   2.320   9.082   2.847 -0.4057  0.3192  0.0860
26089SOL    HW180805   2.390   9.087   2.912  1.5268  1.8036 -2.0326
26089SOL    HW280806   2.300   8.988   2.842  0.3353  0.0418  1.8499
26090SOL     OW80807   5.918   9.625   7.644  0.1692 -0.1270 -0.7930
26090SOL    HW180808   5.852   9.564   7.676  0.0094 -0.3542 -1.5335
26090SOL    HW280809   5.992   9.569   7.620  0.3702  0.0573 -0.6010
26091SOL     OW80810  10.195   0.326   5.580  0.4930  0.0741 -0.0026
26091SOL    HW180811  10.265   0.383   5.549  0.1612  0.0436 -0.8056
26091SOL    HW280812  10.141   0.383   5.636  0.2015  0.5357 -0.7448
26092SOL     OW80813   3.373   3.357   8.658 -0.1284  0.2247 -0.0209
26092SOL    HW180814   3.340   3.329   8.573  0.1847 -0.9562  0.2470
26092SOL    HW280815   3.463   3.325   8.661 -0.4774 -0.6676  1.1838
26093SOL     OW80816   3.611   9.694   2.640  0.3851 -0.3729 -0.5790
26093SOL    HW180817   3.617   9.644   2.721  0.7388 -0.6593 -0.7777
26093SOL    HW280818   3.662   9.643   2.577  0.5568  0.1265 -0.8430
26094SOL     OW80819   3.444   6.758   6.321 -0.0325  0.1329 -0.3141
26094SOL    HW180820   3.486   6.688   6.272  0.8093  0.5289 -0.1637
26094SOL    HW280821   3.368   6.782   6.267 -0.7215 -1.3529 -0.0219
26095SOL     OW80822   8.597   6.181   1.160 -0.5022  0.6144  0.1562
26095SOL    HW180823   8.565   6.195   1.071 -0.4247 -1.9889 -0.3402
26095SOL    HW280824   8.656   6.254   1.177  0.3764  0.5335 -2.3813
26096SOL     OW80825   0.243   3.450   5.423  0.0645 -0.0228 -0.6184
26096SOL    HW180826   0.213   3.389   5.490  0.2896  0.6850  0.1444
26096SOL    HW280827   0.185   3.525   5.431  0.2311  0.1569 -1.0743
26097SOL     OW80828   4.843   7.639   9.206  0.4515 -0.7535  0.0349
26097SOL    HW180829   4.775   7.577   9.235  1.0899 -1.4219  0.1149
26097SOL    HW280830   4.797   7.699   9.147 -0.3485 -0.8092  0.5894
26098SOL     OW80831   2.433   4.234   0.425 -0.1653 -0.0912 -0.3553
26098SOL    HW180832   2.519   4.200   0.403 -0.1392 -0.0130 -0.3739
26098SOL    HW280833   2.402   4.178   0.497  0.3540  0.5522  0.3798
26099SOL     OW80834   4.482   7.480   3.913  0.1196  0.1558  0.5756
26099SOL    HW180835   4.512   7.395   3.946  3.3097  1.2893  0.7522
26099SOL    HW280836   4.502   7.541   3.984  2.0917  1.7516 -1.2821
26100SOL     OW80837   6.689   7.558   8.991  0.0274 -0.2129  0.4606
26100SOL    HW180838   6.775   7.517   8.990  0.2460  0.2471  0.1558
26100SOL    HW280839   6.628   7.485   8.998  0.4246 -0.5655  0.2958
26101SOL     OW80840   2.499   0.020   2.513 -0.1817  0.2464  0.0682
26101SOL    HW180841   2.503   0.101   2.565 -0.8175 -0.0811  0.6411
26101SOL    HW280842   2.405  -0.000   2.508  0.0317 -0.8726  0.5824
26102SOL     OW80843   5.406   2.841   6.552 -0.0343  0.5285 -0.6449
26102SOL    HW180844   5.380   2.876   6.467 -2.8789 -1.0778 -0.5315
26102SOL    HW280845   5.432   2.917   6.604 -0.4360  1.7736 -2.2515
26103SOL     OW80846   1.978   2.006   9.589  0.5558 -0.1509 -0.2659
26103SOL    HW180847   1.969   2.013   9.494  0.9643  0.5765 -0.2496
26103SOL    HW280848   1.941   1.920   9.610 -2.3532  0.9264 -0.7329
26104SOL     OW80849   5.359   2.010   9.417  0.0918 -0.0906  0.3444
26104SOL    HW180850   5.453   2.028   9.423 -0.0836  0.7393  0.7441
26104SOL    HW280851   5.317   2.090   9.450 -0.7452 -1.1879  2.0311
26105SOL     OW80852   9.072   0.101   8.851 -0.1940 -0.4975  0.5751
26105SOL    HW180853   9.051   0.181   8.899 -0.6322 -0.1860 -0.1308
26105SOL    HW280854   9.168   0.100   8.847 -0.2232  0.8897 -0.9173
26106SOL     OW80855   7.621   3.439   9.004 -0.0175 -0.2772 -0.1949
26106SOL    HW180856   7.717   3.443   8.994  0.0660 -0.4137  0.5037
26106SOL    HW280857   7.590   3.525   8.975  0.3716 -0.0312  0.1049
26107SOL     OW80858   8.341   3.651   8.704 -0.1041  0.2487  0.2685
26107SOL    HW180859   8.327   3.676   8.795 -1.2428  0.1636  0.1248
26107SOL    HW280860   8.254   3.627   8.672  0.0025  1.9321 -1.3448
26108SOL     OW80861   1.850   3.776   3.928 -0.0721 -0.7552  0.5045
26108SOL    HW180862   1.890   3.698   3.890  0.4908 -1.3746  2.3272
26108SOL    HW280863   1.777   3.742   3.981  0.3491 -0.0748  1.5234
26109SOL     OW80864   8.165   7.218   7.256 -0.4458 -0.3322 -0.6476
26109SOL    HW180865   8.104   7.149   7.281  0.1603 -0.6452 -0.0073
26109SOL    HW280866   8.245   7.198   7.305 -1.0752  2.2618  1.5308
26110SOL     OW80867   8.509   3.052   4.362  0.1499 -0.1974  0.3625
26110SOL    HW180868   8.426   3.079   4.401 -0.0320  2.6569 -1.8122
26110SOL    HW280869   8.569   3.124   4.383 -0.3044  2.1562 -5.5772
26111SOL     OW80870   7.028   0.261   1.149  0.6559 -0.3774  1.0500
26111SOL    HW180871   7.068   0.259   1.062  1.8614  0.1079  1.5778
26111SOL    HW280872   7.044   0.174   1.184  1.2443 -0.1917  1.2511
26112SOL     OW80873   0.170   0.176   2.778 -0.1511  0.2140 -0.2288
26112SOL    HW180874   0.245   0.209   2.828 -0.6322  0.7303  0.1711
26112SOL    HW280875   0.116   0.131   2.843 -1.2043  1.6196 -0.0972
26113SOL     OW80876   2.600   9.496   8.480  0.2447 -0.2803 -0.3870
26113SOL    HW180877   2.595   9.572   8.539 -1.1129 -1.7495  1.4526
26113SOL    HW280878   2.510   9.465   8.472  0.1199  0.9041 -4.7201
26114SOL     OW80879   2.722   5.026   3.855 -0.4790  0.6566  0.1777
26114SOL    HW180880   2.795   5.012   3.795  0.0381  1.5218  0.5849
26114SOL    HW280881   2.761   5.015   3.942 -1.2855 -0.8944  0.3511
26115SOL     OW80882   1.268  10.009   0.854 -0.1079 -0.4135  0.3143
26115SOL    HW180883   1.264  10.104   0.841 -0.0638 -0.6914 -1.8754
26115SOL    HW280884   1.362   9.990   0.862 -0.1809 -0.1311  2.0559
26116SOL     OW80885   3.529   5.081   5.091 -0.4415 -0.3504 -0.1378
26116SOL    HW180886   3.597   5.073   5.157 -1.4538 -1.7174  0.7536
26116SOL    HW280887   3.499   4.991   5.076 -2.4561  0.2806 -0.0762
26117SOL     OW80888   8.567   2.961   9.030 -0.1554  0.8203  0.5649
26117SOL    HW180889   8.577   2.954   8.935  2.1286 -0.5209  0.8733
26117SOL    HW280890   8.476   2.938   9.047 -0.1165 -0.6120 -1.1418
26118SOL     OW80891   5.051   1.583   1.837 -0.1385  0.0728 -0.7354
26118SOL    HW180892   5.117   1.615   1.775  1.5909  1.5821  1.7566
26118SOL    HW280893   5.058   1.642   1.912 -1.3364 -2.3581  1.3910
26119SOL     OW80894   7.254   9.366   3.174 -0.0083  0.4823 -0.3241
26119SOL    HW180895   7.246   9.343   3.267  3.3127 -0.8557 -0.2858
26119SOL    HW280896   7.337   9.413   3.169 -0.5910  1.3161 -2.4962
26120SOL     OW80897   2.649   0.557   3.389 -0.2751 -0.0254 -0.0640
26120SOL    HW180898   2.742   0.569   3.372 -0.3110  0.0095 -0.2306
26120SOL    HW280899   2.607   0.572   3.305 -0.4107 -0.2854 -0.0426
26121SOL     OW80900   2.875   8.882   9.917 -0.6062  0.1556  0.7871
26121SOL    HW180901   2.912   8.825   9.984  2.5815 -0.7830 -1.6844
26121SOL    HW280902   2.798   8.835   9.886 -0.5902 -0.6438  1.9095
26122SOL     OW80903  10.129   0.077   9.215 -0.1713  0.4626 -0.4762
26122SOL    HW180904  10.188   0.007   9.243 -1.7253 -0.6692  0.0562
26122SOL    HW280905  10.187   0.145   9.181  1.4650 -0.3146  0.6976
26123SOL     OW80906   0.245   2.443   1.366 -0.3809  0.1686  0.1058
26123SOL    HW180907   0.304   2.471   1.296  0.4897  2.3795  1.6611
26123SOL    HW280908   0.302   2.400   1.430 -0.7004  0.7599  0.8010
26124SOL     OW80909   2.961   7.231   5.637 -0.3594  0.2769  0.0218
26124SOL    HW180910   3.022   7.244   5.565  0.2745 -2.3488  0.0344
26124SOL    HW280911   2.878   7.208   5.594 -0.1295 -0.7183  0.0986
26125SOL     OW80912   2.666   2.814   0.359  0.1652  0.0771 -0.1034
26125SOL    HW180913   2.664   2.906   0.332 -1.1391  0.4533  1.2689
26125SOL    HW280914   2.688   2.816   0.452 -0.2687 -0.9795  0.0335
26126SOL     OW80915   6.370   6.553   2.251  0.4438 -0.3783  0.3771
26126SOL    HW180916   6.350   6.553   2.157  0.4175 -0.5114  0.3823
26126SOL    HW280917   6.296   6.507   2.291  0.6368 -0.6562  0.4214
26127SOL     OW80918   7.331   1.270   8.571 -0.0505 -0.2789  0.3805
26127SOL    HW180919   7.304   1.220   8.648 -1.3064  1.3110  1.0151
26127SOL    HW280920   7.425   1.283   8.582  0.0049 -1.1318  0.9987
26128SOL     OW80921   2.204   7.047   4.367  0.8206 -0.4498 -0.2647
26128SOL    HW180922   2.157   7.100   4.432 -0.9010 -1.7860 -0.3527
26128SOL    HW280923   2.287   7.091   4.355  0.4589  0.8016  1.5628
26129SOL     OW80924   7.899   7.302   0.991 -0.1297 -0.5247  0.1350
26129SOL    HW180925   7.903   7.245   1.068  1.2236 -1.0552 -0.3164
26129SOL    HW280926   7.964   7.370   1.010 -0.1422 -0.3853 -0.3318
26130SOL     OW80927   3.041   8.508   4.628 -0.1351 -0.0184 -0.1621
26130SOL    HW180928   3.002   8.519   4.541 -0.8285 -1.6451 -0.0743
26130SOL    HW280929   3.057   8.414   4.635  0.8719  0.2332  1.0772
26131SOL     OW80930   6.014  10.193   5.229  0.3078  0.0363  0.1728
26131SOL    HW180931   5.942  10.231   5.179 -1.2078 -0.4251  1.9535
26131SOL    HW280932   6.011  10.099   5.210  0.3097 -0.0099  0.3844
26132SOL     OW80933  10.113   2.498   0.538  0.1842 -0.3229 -0.0420
26132SOL    HW180934  10.149   2.580   0.504  0.5862 -0.4508  0.0680
26132SOL    HW280935  10.145   2.431   0.479  0.1443 -0.4401  0.0690
26133SOL     OW80936   5.472   5.811   1.380 -0.5395  0.0042 -0.2881
26133SOL    HW180937   5.500   5.734   1.330  1.1194  0.1786  0.3643
26133SOL    HW280938   5.464   5.780   1.470 -0.3262  0.4816 -0.1020
26134SOL     OW80939   2.747   3.721   7.285  0.0144 -0.0091  0.8225
26134SOL    HW180940   2.820   3.671   7.250 -0.3191  0.6566 -0.8401
26134SOL    HW280941   2.726   3.785   7.217 -2.3722 -0.4331  1.1050
26135SOL     OW80942   7.591  10.162   0.359  0.2006  0.1380 -0.7563
26135SOL    HW180943   7.584  10.231   0.425  0.5904 -1.6985  1.2478
26135SOL    HW280944   7.685  10.144   0.354  0.0860 -0.3305 -1.2003
26136SOL     OW80945   8.888   4.799   1.873  0.2163  0.2485  0.3328
26136SOL    HW180946   8.866   4.892   1.866  0.5106  0.5234  2.8643
26136SOL    HW280947   8.979   4.798   1.904 -0.1455 -0.8799  1.3900
26137SOL     OW80948   0.083   9.109   0.615 -0.1580  0.0824  0.0174
26137SOL    HW180949   0.010   9.153   0.573 -1.0568 -1.7575 -0.4082
26137SOL    HW280950   0.146   9.095   0.544  0.4894  1.3799  0.3191
26138SOL     OW80951   0.661   8.178   6.019 -0.3115 -0.1534 -0.3985
26138SOL    HW180952   0.753   8.200   6.031 -0.0284 -1.6877  0.3374
26138SOL    HW280953   0.637   8.132   6.100 -1.9582  0.9946 -0.2169
26139SOL     OW80954   5.618   7.089   2.952  0.0968  0.1750  0.2440
26139SOL    HW180955   5.656   7.001   2.949  0.2402  0.2503 -0.0934
26139SOL    HW280956   5.694   7.146   2.965  0.2674  0.4616 -1.9558
26140SOL     OW80957   7.394   7.833   7.809 -0.4538 -1.0115  0.3442
26140SOL    HW180958   7.343   7.913   7.823 -1.4257 -1.2830 -1.5720
26140SOL    HW280959   7.472   7.863   7.762 -0.1010 -0.9800  0.9459
26141SOL     OW80960   9.847   0.121   4.213  0.0910 -0.0423  0.0426
26141SOL    HW180961   9.865   0.049   4.272  0.4284  0.8257  1.0043
26141SOL    HW280962   9.788   0.084   4.147  1.7521 -1.6744 -0.5425
26142SOL     OW80963   6.044   7.907   1.335  0.7195 -0.5075 -0.8218
26142SOL    HW180964   5.961   7.919   1.290  1.1416 -1.2002 -1.7865
26142SOL    HW280965   6.075   7.997   1.353 -1.5116 -0.2251  1.9674
26143SOL     OW80966   5.079   6.893   0.773  0.1608 -0.3841 -0.1022
26143SOL    HW180967   5.065   6.921   0.682  3.1582 -1.0316 -0.8202
26143SOL    HW280968   5.079   6.798   0.769  0.1262 -0.4178  0.6333
26144SOL     OW80969   8.316   7.684   1.849  0.6260 -0.1723 -0.1199
26144SOL    HW180970   8.341   7.732   1.928 -1.2030 -1.2352  1.1432
26144SOL    HW280971   8.381   7.613   1.844  0.0316 -0.8400  1.1585
26145SOL     OW80972   1.906   0.154   7.156  0.7393 -0.9295  0.1997
26145SOL    HW180973   1.932   0.065   7.179  1.3409 -1.3251 -1.9701
26145SOL    HW280974   1.988   0.201   7.139  0.3423 -0.4855 -0.5320
26146SOL     OW80975   3.071   1.818   4.714 -0.4782 -0.2864  0.1549
26146SOL    HW180976   3.160   1.785   4.726 -0.9719 -1.0223  2.1347
26146SOL    HW280977   3.074   1.869   4.634  1.4809 -1.1635 -0.3586
26147SOL     OW80978   5.301   3.601   7.380  0.4527  0.0704  0.0984
26147SOL    HW180979   5.262   3.605   7.292  1.5726  1.1379 -0.3688
26147SOL    HW280980   5.233   3.562   7.435 -0.9680  1.1325 -0.8647
26148SOL     OW80981   7.026   8.727   7.536  0.1240 -0.0646 -0.2614
26148SOL    HW180982   7.016   8.821   7.525 -0.5778 -0.0231  0.5798
26148SOL    HW280983   7.079   8.698   7.462  0.4358  1.0070 -0.4546
26149SOL     OW80984   6.432   6.254   0.634 -0.2019 -0.5289 -0.2909
26149SOL    HW180985   6.413   6.270   0.727 -0.7750 -0.1041 -0.4792
26149SOL    HW280986   6.455   6.339   0.599 -1.3897 -0.4385 -0.8630
26150SOL     OW80987   9.656   1.109   5.349  0.4408 -0.9240  0.6049
26150SOL    HW180988   9.740   1.141   5.316 -0.8400  0.7001 -1.2314
26150SOL    HW280989   9.668   1.014   5.357  2.6425 -0.6339  1.0038
26151SOL     OW80990   2.922   7.923   3.835 -0.1194 -0.3956 -0.6535
26151SOL    HW180991   2.964   7.945   3.919 -0.0302 -1.7719 -0.3235
26151SOL    HW280992   2.830   7.909   3.857 -0.2047 -0.1932 -0.8823
26152SOL     OW80993   0.844   0.725   0.075 -0.0176  0.0482  0.0670
26152SOL    HW180994   0.783   0.673   0.022  0.0211 -1.3831  1.3791
26152SOL    HW280995   0.810   0.718   0.164  1.5143  0.0474  0.6652
26153SOL     OW80996   1.815   2.753   5.117  0.3832 -0.0337 -0.6625
26153SOL    HW180997   1.777   2.682   5.066  0.9448 -1.0071  0.2567
26153SOL    HW280998   1.816   2.828   5.057 -0.1286 -0.8194 -1.6622
26154SOL     OW80999   1.070   1.177   5.416  0.1114  0.2556  0.2354
26154SOL    HW181000   1.066   1.249   5.354 -1.0823  0.7682  0.8871
26154SOL    HW281001   0.979   1.146   5.422 -0.0352  1.0784  2.7052
26155SOL     OW81002   3.955   7.304   1.873 -0.2790  0.1517 -0.0067
26155SOL    HW181003   4.006   7.225   1.858 -0.5398  0.0514 -0.3614
26155SOL    HW281004   3.916   7.325   1.788  0.6373  1.2598 -0.1776
26156SOL     OW81005   0.055   3.687   5.444  0.1356 -0.5165 -0.1881
26156SOL    HW181006  -0.037   3.713   5.444  0.0394 -0.8505  0.0603
26156SOL    HW281007   0.081   3.689   5.536  0.1739 -1.1237 -0.1822
26157SOL     OW81008   8.992   0.719   6.227 -0.0699 -0.0273 -0.0332
26157SOL    HW181009   8.939   0.654   6.180 -2.2218  2.2360 -0.8672
26157SOL    HW281010   9.070   0.730   6.173 -0.8661 -0.0845 -1.2065
26158SOL     OW81011   6.603  10.153   9.097  1.0452  0.1291 -0.0686
26158SOL    HW181012   6.655  10.106   9.032  0.6792 -1.3757  0.7092
26158SOL    HW281013   6.652  10.143   9.179 -0.6763 -1.7365  0.7835
26159SOL     OW81014   1.391   0.614   9.801 -0.0865 -0.1088  0.0282
26159SOL    HW181015   1.469   0.657   9.766 -0.2072  0.7692  0.8428
26159SOL    HW281016   1.368   0.664   9.879  0.0205 -1.9072  1.2245
26160SOL     OW81017   1.100   3.344   8.990  0.1411  0.7664  0.4584
26160SOL    HW181018   1.133   3.433   8.982 -0.1423  0.7411 -1.2621
26160SOL    HW281019   1.167   3.289   8.948 -0.7873  0.4394 -0.6446
26161SOL     OW81020   1.924   2.072   9.227  0.3803 -0.1620 -0.5512
26161SOL    HW181021   1.957   2.068   9.137 -2.0245  0.0551 -1.4748
26161SOL    HW281022   1.891   1.984   9.244  0.6062 -0.1316  0.0473
26162SOL     OW81023   0.742   1.658   8.021 -0.0484 -0.1719 -0.1251
26162SOL    HW181024   0.806   1.637   7.953  0.1798  0.8849 -0.2480
26162SOL    HW281025   0.791   1.649   8.103 -0.5202 -2.1853 -0.0243
26163SOL     OW81026   4.178   0.292   6.473  0.4806 -0.6835 -0.0565
26163SOL    HW181027   4.260   0.340   6.478 -0.6832  1.3932 -0.0118
26163SOL    HW281028   4.127   0.323   6.548 -0.7641 -1.0702 -0.7240
26164SOL     OW81029   6.247   6.196   8.787  0.2352  0.3803 -0.5976
26164SOL    HW181030   6.215   6.197   8.696  0.2298  0.0290 -0.6018
26164SOL    HW281031   6.257   6.103   8.807 -3.0454  0.2864  0.8987
26165SOL     OW81032   1.172   8.209   7.927 -0.1732  0.3056 -0.2236
26165SOL    HW181033   1.209   8.121   7.928 -1.3040 -0.2247 -2.6406
26165SOL    HW281034   1.189   8.242   7.839 -0.3000  2.2998  0.4632
26166SOL     OW81035   6.829   7.654   9.359  0.2423  0.6569 -0.0202
26166SOL    HW181036   6.747   7.669   9.313  0.1054  0.3711  0.1265
26166SOL    HW281037   6.826   7.561   9.383  0.8730  0.5003 -0.5330
26167SOL     OW81038   2.882   5.829   7.596  0.3413  0.0144 -0.4681
26167SOL    HW181039   2.834   5.891   7.650 -0.4176 -1.7509  0.9360
26167SOL    HW281040   2.926   5.771   7.658 -0.9925 -2.4055 -1.6781
26168SOL     OW81041   1.856  10.065   2.783 -0.4837  0.2150 -0.4290
26168SOL    HW181042   1.833  10.008   2.710 -1.2657 -0.7931  0.5839
26168SOL    HW281043   1.926  10.020   2.829  0.1069  0.9159 -0.6246
26169SOL     OW81044   7.966   9.311   4.088  0.9158 -0.6370 -0.1357
26169SOL    HW181045   8.027   9.369   4.043  0.9298 -0.2219  0.4049
26169SOL    HW281046   7.886   9.363   4.096  1.5437  0.0558  2.1007
26170SOL     OW81047   2.326   7.755   3.940  0.0745  0.1253 -0.5259
26170SOL    HW181048   2.365   7.668   3.936 -2.3189 -0.9521 -1.0049
26170SOL    HW281049   2.294   7.772   3.852  0.6001  1.5670 -0.4665
26171SOL     OW81050   9.256   7.353   4.417 -0.6565 -0.0462  0.2713
26171SOL    HW181051   9.273   7.285   4.353  1.2027  0.7382 -0.1044
26171SOL    HW281052   9.329   7.347   4.479 -0.9420  1.0109  0.7352
26172SOL     OW81053   2.711   8.496   9.082 -0.6054 -0.0185 -0.0022
26172SOL    HW181054   2.737   8.585   9.057  2.1100 -0.0763  2.3903
26172SOL    HW281055   2.694   8.502   9.176  0.1665 -2.1608  0.2952
26173SOL     OW81056   4.417   5.755   5.660  0.0775  0.3965 -0.0156
26173SOL    HW181057   4.322   5.742   5.656 -0.0077  0.9368  0.2196
26173SOL    HW281058   4.439   5.796   5.577  0.1104  0.2377 -0.0853
26174SOL     OW81059   7.464   2.322   3.574 -0.5943 -0.0221 -0.1690
26174SOL    HW181060   7.394   2.370   3.531 -1.2274 -0.0622  0.7990
26174SOL    HW281061   7.424   2.238   3.597 -0.8320  0.6994  2.1522
26175SOL     OW81062   5.648   2.649   0.244  0.6009 -0.0621 -0.4053
26175SOL    HW181063   5.552   2.654   0.252  0.7216  0.3150  0.8844
26175SOL    HW281064   5.665   2.676   0.154 -0.5197 -0.3306 -0.7186
26176SOL     OW81065   2.395   8.206   7.854  0.2750  0.4673 -0.8361
26176SOL    HW181066   2.479   8.163   7.839  0.6483  0.3913  1.2724
26176SOL    HW281067   2.416   8.280   7.911 -0.9661  0.9766 -1.0241
26177SOL     OW81068   2.223   1.239   3.198 -0.0725  0.1471  0.0017
26177SOL    HW181069   2.278   1.255   3.121  0.1219 -1.2410 -0.1628
26177SOL    HW281070   2.214   1.143   3.201 -0.6298  0.2359  1.3139
26178SOL     OW81071   9.897   7.047   4.639 -0.0797  0.5288 -0.1286
26178SOL    HW181072   9.979   7.006   4.667  0.2578 -0.7531 -2.8425
26178SOL    HW281073   9.917   7.083   4.553 -2.2174  0.6905 -0.5781
26179SOL     OW81074  10.143   1.038   1.248  0.3499 -0.1040  0.7465
26179SOL    HW181075  10.168   0.981   1.320 -0.3045  1.1996  2.0326
26179SOL    HW281076  10.182   1.123   1.269  1.5536 -0.1081 -1.2748
26180SOL     OW81077   7.026   8.545   3.988 -0.1541 -0.4709 -0.3647
26180SOL    HW181078   6.963   8.476   4.010 -1.0886  0.2782 -0.6912
26180SOL    HW281079   7.093   8.539   4.056 -1.1242 -0.5675  0.5817
26181SOL     OW81080   7.034   8.758   5.354 -0.3423  0.0859 -0.2663
26181SOL    HW181081   7.082   8.837   5.378 -1.0604  0.7072 -0.8195
26181SOL    HW281082   7.055   8.695   5.422 -0.8516  1.2086  0.9472
26182SOL     OW81083   0.285   0.097   4.775  0.6427  0.2698 -0.4359
26182SOL    HW181084   0.189   0.091   4.772  0.6485 -0.3367  0.6571
26182SOL    HW281085   0.310   0.057   4.858  1.8069  0.9897 -0.4248
26183SOL     OW81086   9.166   4.014   3.443  0.7834 -0.0711 -0.3102
26183SOL    HW181087   9.079   3.979   3.424  1.7236 -2.0677 -1.1055
26183SOL    HW281088   9.185   3.984   3.532  0.2454  1.2457  0.2565
26184SOL     OW81089   7.508   5.925   3.005 -0.1017  0.3229  0.0693
26184SOL    HW181090   7.419   5.945   3.034  0.1979  1.6024  0.1545
26184SOL    HW281091   7.510   5.951   2.913 -0.2085 -0.9993 -0.3155
26185SOL     OW81092   1.295   4.784   6.066  0.6206 -0.0983  0.2783
26185SOL    HW181093   1.287   4.724   5.992  0.8925 -1.0438  0.9877
26185SOL    HW281094   1.389   4.798   6.075  0.5824  0.0897  0.3823
26186SOL     OW81095   3.812   2.311   1.521 -0.1498  0.3853 -0.1980
26186SOL    HW181096   3.719   2.287   1.517 -0.1483  0.3838 -0.2234
26186SOL    HW281097   3.831   2.319   1.615  0.5064 -2.3493 -0.0292
26187SOL     OW81098   0.751   0.685   7.934  0.2772  0.5845  0.2767
26187SOL    HW181099   0.761   0.672   8.028 -0.5812  0.1531  0.3149
26187SOL    HW281100   0.781   0.774   7.919 -3.1334  2.0435  1.5510
26188SOL     OW81101   2.797   4.690   0.883  0.5521  0.1543 -0.3674
26188SOL    HW181102   2.774   4.643   0.963 -1.4153 -0.6752 -1.3836
26188SOL    HW281103   2.836   4.624   0.826  0.3031  0.3518 -0.7705
26189SOL     OW81104   2.060   4.044   7.170 -0.1644 -0.1863 -0.1780
26189SOL    HW181105   1.968   4.022   7.157  0.2389 -1.7691 -0.4166
26189SOL    HW281106   2.069   4.051   7.265 -0.1021 -2.0055 -0.0310
26190SOL     OW81107   9.050   5.753   0.602  0.1613 -0.3143  0.1674
26190SOL    HW181108   9.054   5.662   0.632 -0.4613 -0.0260  1.1724
26190SOL    HW281109   9.118   5.760   0.536  1.4894 -1.0303  1.4268
26191SOL     OW81110   2.638   7.807   2.643  0.1114  0.0137  0.3013
26191SOL    HW181111   2.649   7.847   2.730 -1.5632 -1.3816  1.1964
26191SOL    HW281112   2.612   7.716   2.662 -2.6408  0.3396 -1.6144
26192SOL     OW81113   7.386   5.596   1.727  0.3868  0.3817  0.2248
26192SOL    HW181114   7.412   5.521   1.781  1.7698  1.0683  0.5327
26192SOL    HW281115   7.308   5.631   1.771  1.0571  0.4812  1.3759
26193SOL     OW81116   9.154   4.369   1.746 -0.2657  0.1196  0.0668
26193SOL    HW181117   9.062   4.355   1.769 -0.4027 -1.4914 -1.3795
26193SOL    HW281118   9.157   4.360   1.651  1.2810  0.8245  0.0359
26194SOL     OW81119   7.380   2.630   9.343  0.1843  0.2684  0.1659
26194SOL    HW181120   7.425   2.562   9.393 -0.8702 -0.2864  0.3721
26194SOL    HW281121   7.437   2.707   9.350  1.6057 -0.7204 -0.4503
26195SOL     OW81122   1.134   6.226   4.054 -0.6195 -0.2785 -0.0175
26195SOL    HW181123   1.124   6.320   4.039 -0.0428 -0.2310 -0.0983
26195SOL    HW281124   1.044   6.193   4.058 -0.8208  0.2175 -0.3625
26196SOL     OW81125   5.502   8.669   4.247 -0.0345  0.0213 -0.0369
26196SOL    HW181126   5.546   8.748   4.276  1.3067 -1.0926  1.0242
26196SOL    HW281127   5.568   8.622   4.196 -1.1019  0.0079 -1.4348
26197SOL     OW81128   4.420   5.708   6.755 -0.3603 -0.2932  0.4957
26197SOL    HW181129   4.514   5.725   6.749 -0.0566 -2.4678 -1.7049
26197SOL    HW281130   4.380   5.794   6.743  1.3175  0.4537 -0.0138
26198SOL     OW81131   6.158   9.270   8.523 -0.0833 -0.2536 -0.2357
26198SOL    HW181132   6.224   9.261   8.592 -3.0137 -0.2630  2.7329
26198SOL    HW281133   6.134   9.363   8.525  0.2521 -0.1342 -1.6765
26199SOL     OW81134   6.533   0.159   9.473  0.1389  0.2386 -0.1753
26199SOL    HW181135   6.589   0.189   9.401  0.8496  0.6975  0.5684
26199SOL    HW281136   6.574   0.079   9.505  1.0603  1.2328  1.1706
26200SOL     OW81137   2.900   2.766   7.160 -0.2568  0.2850  0.2072
26200SOL    HW181138   2.944   2.842   7.121 -3.0286  1.2727 -1.1308
26200SOL    HW281139   2.853   2.802   7.235 -0.3185 -0.3952  0.4958
26201SOL     OW81140   1.153   6.743   8.301  0.0336  0.6102  0.0223
26201SOL    HW181141   1.191   6.667   8.257 -0.3541  1.2406 -1.4241
26201SOL    HW281142   1.077   6.766   8.248 -0.9372  0.8811  1.4971
26202SOL     OW81143   2.657   5.014   8.252 -0.4284  0.4681  0.6365
26202SOL    HW181144   2.614   4.972   8.326 -0.5610  0.2713  0.4487
26202SOL    HW281145   2.721   4.950   8.222 -1.3483 -0.0320 -0.3046
26203SOL     OW81146   8.107   9.015   5.381  0.4641 -0.5929  0.1795
26203SOL    HW181147   8.151   8.932   5.362 -0.4936 -0.5872 -2.2404
26203SOL    HW281148   8.152   9.079   5.326 -0.5118 -0.0110  0.0557
26204SOL     OW81149   6.931   0.832   5.686  0.2499 -0.0944 -0.0016
26204SOL    HW181150   7.020   0.810   5.713  0.5158  1.5445  0.5025
26204SOL    HW281151   6.935   0.838   5.591 -0.1988 -3.7500 -0.3214
26205SOL     OW81152   8.673   9.167   6.925  0.0587 -0.3989  0.3179
26205SOL    HW181153   8.675   9.137   6.834 -0.8221  0.9880 -0.1879
26205SOL    HW281154   8.765   9.173   6.950  0.5368  3.3647 -1.9488
26206SOL     OW81155   0.520   5.201   4.014 -0.7648 -0.3930  0.1954
26206SOL    HW181156   0.496   5.198   3.922 -0.9104 -2.7925  0.2766
26206SOL    HW281157   0.501   5.291   4.041 -0.1362  0.5003 -2.2483
26207SOL     OW81158   8.401   3.458   3.203  0.0567  0.2694 -0.8081
26207SOL    HW181159   8.307   3.452   3.182  0.0930  0.2781 -0.9726
26207SOL    HW281160   8.445   3.449   3.118  0.2236 -0.2303 -0.6672
26208SOL     OW81161   5.756   6.616   5.282 -0.0206 -0.1904 -0.2149
26208SOL    HW181162   5.787   6.672   5.211 -0.5899  1.6812  0.9708
26208SOL    HW281163   5.757   6.528   5.246  1.1182  0.5601 -2.0520
26209SOL     OW81164   2.504   5.258   2.890 -0.1208 -0.4060  0.4160
26209SOL    HW181165   2.430   5.254   2.830  2.2932  1.5516 -2.8786
26209SOL    HW281166   2.544   5.171   2.884 -0.5228 -0.5630 -0.0437
26210SOL     OW81167   1.910   8.125   4.353  0.2677 -0.4622  0.0639
26210SOL    HW181168   1.985   8.066   4.343 -0.0276 -0.9909  0.9801
26210SOL    HW281169   1.856   8.108   4.275  0.7596 -0.5534 -0.2613
26211SOL     OW81170   0.754   6.087   8.180 -0.1225  0.1773 -0.3440
26211SOL    HW181171   0.847   6.102   8.196 -0.5906  0.5976  2.0481
26211SOL    HW281172   0.750   6.068   8.086  2.3547  0.2311 -0.5100
26212SOL     OW81173   2.793   5.764   8.512 -0.3422  0.0160  0.6439
26212SOL    HW181174   2.879   5.804   8.527  0.4834 -0.6987 -1.9603
26212SOL    HW281175   2.783   5.701   8.583  0.1472  1.8844  2.4270
26213SOL     OW81176   9.638   6.664   1.708  0.4428 -0.3650 -0.3017
26213SOL    HW181177   9.556   6.714   1.702  0.4288 -0.1442  1.4656
26213SOL    HW281178   9.700   6.714   1.656 -0.4241 -0.2833 -1.2739
26214SOL     OW81179   0.586   2.991   8.031 -0.2475 -0.3276 -0.2196
26214SOL    HW181180   0.579   2.901   7.998 -2.4082 -0.5198  0.6925
26214SOL    HW281181   0.652   2.985   8.100 -3.1437 -2.0878  2.5402
26215SOL     OW81182   2.255   0.336   6.029 -0.5051 -0.3332 -0.2676
26215SOL    HW181183   2.274   0.334   5.935 -1.6551 -0.8003 -0.4910
26215SOL    HW281184   2.211   0.253   6.047 -0.0198 -0.3860  0.7535
26216SOL     OW81185   0.306   5.635   8.772  0.5871 -0.0571 -0.0598
26216SOL    HW181186   0.291   5.541   8.767 -0.4022  0.0559  0.5970
26216SOL    HW281187   0.345   5.649   8.858 -1.8905  0.4502  1.0258
26217SOL     OW81188   7.708   7.964   6.831  0.2258 -0.2288 -0.7796
26217SOL    HW181189   7.668   8.024   6.769 -1.0590 -1.1014 -0.7977
26217SOL    HW281190   7.635   7.925   6.878  1.0963 -1.0964 -0.1226
26218SOL     OW81191   8.117   7.806   0.338  0.8624  0.5476  0.2710
26218SOL    HW181192   8.175   7.770   0.405 -1.2855  0.7505  2.3172
26218SOL    HW281193   8.065   7.731   0.309 -0.1439  0.9883  0.8964
26219SOL     OW81194   5.361   0.915   7.706 -0.3609  0.2907  0.3707
26219SOL    HW181195   5.275   0.911   7.749  0.0029  1.2799  1.1862
26219SOL    HW281196   5.372   1.007   7.682 -0.3149 -0.1498 -1.3502
26220SOL     OW81197   8.719   3.826   5.940 -0.2270 -0.2226 -0.6677
26220SOL    HW181198   8.710   3.921   5.934 -0.1002 -0.2485 -1.2456
26220SOL    HW281199   8.631   3.795   5.962 -0.0873  0.0931  0.4049
26221SOL     OW81200   7.580   3.256   9.582 -0.3702 -0.1819 -0.0908
26221SOL    HW181201   7.675   3.259   9.599 -0.1666  0.1230 -1.2832
26221SOL    HW281202   7.551   3.347   9.591 -0.2184  0.0278 -1.5681
26222SOL     OW81203   9.363   8.282   9.808 -0.2982 -0.1605  0.5098
26222SOL    HW181204   9.296   8.254   9.746 -0.8977  0.3355  0.9132
26222SOL    HW281205   9.313   8.313   9.884  0.3700  0.8915  0.5330
26223SOL     OW81206   8.737   1.917   3.202  0.9253 -0.4564  0.4038
26223SOL    HW181207   8.752   1.851   3.134 -2.2805 -1.9797  1.0847
26223SOL    HW281208   8.789   1.887   3.276  0.7157 -1.3707  0.1917
26224SOL     OW81209   9.473   6.433   4.829 -0.1891  0.0284 -0.1182
26224SOL    HW181210   9.440   6.415   4.741 -1.9891  0.5295  0.4480
26224SOL    HW281211   9.487   6.347   4.868  0.0836 -0.1856 -0.6794
26225SOL     OW81212   4.249   5.806   9.959 -0.3986 -0.7687  0.3145
26225SOL    HW181213   4.329   5.857   9.950  0.3883 -1.8733  0.9895
26225SOL    HW281214   4.276   5.716   9.944 -1.7394 -1.0356 -0.6805
26226SOL     OW81215   5.280   3.235   3.405  0.3025  0.0850  0.2067
26226SOL    HW181216   5.277   3.150   3.361 -0.4250  0.5634 -0.6803
26226SOL    HW281217   5.325   3.292   3.343 -2.2146  1.1821 -0.6446
26227SOL     OW81218   0.049   5.463   1.694  0.0766 -0.2638  0.4880
26227SOL    HW181219   0.078   5.554   1.685 -1.7299  0.2988  0.0103
26227SOL    HW281220   0.043   5.449   1.788  1.8358 -0.3806  0.5869
26228SOL     OW81221   3.606   3.106   4.828 -0.0873 -0.0140 -0.3925
26228SOL    HW181222   3.691   3.144   4.804 -0.3709  1.7451  1.2405
26228SOL    HW281223   3.543   3.176   4.808 -0.9311 -0.6006  0.1927
26229SOL     OW81224   9.039   2.329   2.906 -0.7579  0.4393 -0.0981
26229SOL    HW181225   9.021   2.422   2.895  1.7649  0.8129 -1.5982
26229SOL    HW281226   9.058   2.298   2.817  0.7007 -0.9597  0.6732
26230SOL     OW81227   6.878   0.447   1.928 -0.1598  0.3431  0.1801
26230SOL    HW181228   6.795   0.486   1.957  0.1561  0.5901  0.7640
26230SOL    HW281229   6.943   0.481   1.989 -0.0664 -2.0947  1.5125
26231SOL     OW81230   6.493   7.339   6.747 -0.0313 -0.2499  0.3143
26231SOL    HW181231   6.480   7.365   6.656  0.0207 -0.2589  0.3042
26231SOL    HW281232   6.549   7.408   6.784 -0.4766  0.0308  0.4784
26232SOL     OW81233   2.312   8.173   2.166  0.6912 -0.2200  0.3911
26232SOL    HW181234   2.370   8.099   2.181  0.4694 -0.3131  0.8029
26232SOL    HW281235   2.234   8.135   2.125  1.2912  0.0293 -1.0167
26233SOL     OW81236   7.766   7.216   9.635 -0.6699 -0.3032 -0.2517
26233SOL    HW181237   7.739   7.223   9.727  1.4053 -0.4023  0.3903
26233SOL    HW281238   7.821   7.138   9.631  2.5435  1.8378 -0.6774
26234SOL     OW81239   7.718   0.001   8.753 -0.8762  0.7772 -0.3232
26234SOL    HW181240   7.643   0.027   8.806 -0.7939 -0.7786  0.5729
26234SOL    HW281241   7.728  -0.093   8.769  0.7132  0.7907 -1.1196
26235SOL     OW81242   1.021   1.932   7.191  0.2492  0.0861 -0.2513
26235SOL    HW181243   1.035   1.940   7.285  0.3535  0.5576 -0.3083
26235SOL    HW281244   0.938   1.976   7.175 -0.6812 -1.5798 -0.1094
26236SOL     OW81245   3.815   2.833   0.421 -0.1208  0.2877  0.0290
26236SOL    HW181246   3.875   2.838   0.495 -3.2132  0.9348  2.5958
26236SOL    HW281247   3.803   2.924   0.393 -0.6173  0.2569  0.1348
26237SOL     OW81248   4.804   1.373   3.363 -0.2060  0.0831 -0.1831
26237SOL    HW181249   4.868   1.305   3.340  0.5030  0.5755  0.3013
26237SOL    HW281250   4.761   1.339   3.442  0.2720  0.2701  0.1616
26238SOL     OW81251   3.777   1.763   4.211  0.0136 -0.1146  0.1316
26238SOL    HW181252   3.801   1.711   4.134  0.1177  0.0144  0.0767
26238SOL    HW281253   3.858   1.806   4.237  0.2910 -1.1792  1.1009
26239SOL     OW81254   5.930   7.261   1.312 -0.0993  0.0323  0.0467
26239SOL    HW181255   5.898   7.323   1.246  0.6733 -0.2419 -0.6030
26239SOL    HW281256   6.009   7.224   1.273 -1.1537 -2.2084 -0.0933
26240SOL     OW81257   9.784   2.683   4.311 -0.4348  0.2113 -0.6811
26240SOL    HW181258   9.807   2.619   4.378  2.0221 -0.5407 -2.1774
26240SOL    HW281259   9.702   2.651   4.274 -0.6031 -0.6157  0.3866
26241SOL     OW81260   9.678   0.453   2.382  0.7323  0.3706 -0.0142
26241SOL    HW181261   9.772   0.454   2.363  0.5269 -0.1898 -1.1523
26241SOL    HW281262   9.639   0.502   2.309  0.0730 -0.1545 -0.0175
26242SOL     OW81263   2.617   5.518   7.986  0.5275 -0.1116  0.0633
26242SOL    HW181264   2.644   5.556   7.903 -1.0411 -1.8564 -1.2678
26242SOL    HW281265   2.670   5.438   7.995 -0.8118 -1.0510 -0.3006
26243SOL     OW81266   4.466   9.766   5.013 -0.3568  0.1886 -0.4945
26243SOL    HW181267   4.454   9.683   4.968  1.0900  0.5135 -1.5199
26243SOL    HW281268   4.478   9.743   5.105  0.8500 -0.8218 -0.8862
26244SOL     OW81269   2.215   2.107   7.461 -0.3270  0.5196 -0.0278
26244SOL    HW181270   2.167   2.136   7.383 -1.1952 -1.0719 -0.1079
26244SOL    HW281271   2.150   2.060   7.513  0.2950  1.4013  1.5910
26245SOL     OW81272   5.227   1.991   2.927  0.1450 -0.3224  0.1621
26245SOL    HW181273   5.165   1.921   2.907 -0.0847 -0.2303  0.5365
26245SOL    HW281274   5.193   2.030   3.008  0.3452  0.1353  0.0270
26246SOL     OW81275   1.447   1.556   7.490  0.2716  0.3293 -0.7137
26246SOL    HW181276   1.432   1.650   7.494 -0.0263  0.3022 -1.1996
26246SOL    HW281277   1.522   1.541   7.547 -1.0495  0.5750  1.1332
26247SOL     OW81278   8.480   2.106   3.239 -0.3025  0.1842  0.1360
26247SOL    HW181279   8.521   2.019   3.235 -0.3578  0.0362  2.5536
26247SOL    HW281280   8.506   2.148   3.156 -2.1820 -2.9527 -2.1569
26248SOL     OW81281   1.494   3.676   1.615 -0.4711  0.4574 -0.0562
26248SOL    HW181282   1.552   3.600   1.602  0.3890  1.1067 -0.0688
26248SOL    HW281283   1.443   3.680   1.534 -0.0190  0.3158 -0.3518
26249SOL     OW81284   5.829   0.511   2.763 -0.3734 -0.1314 -0.1971
26249SOL    HW181285   5.748   0.512   2.815  0.1843  1.0665  0.6639
26249SOL    HW281286   5.898   0.534   2.825  0.6561 -1.2577 -0.9040
26250SOL     OW81287   7.665   5.085   6.440  0.0458 -0.4273  0.3995
26250SOL    HW181288   7.683   5.082   6.347 -0.4329 -1.7683  0.3443
26250SOL    HW281289   7.610   5.162   6.452 -1.7781 -1.5453 -0.7578
26251SOL     OW81290   3.536   8.598   6.341  0.4819 -0.2088  0.0689
26251SOL    HW181291   3.608   8.550   6.382  1.1243 -0.7994 -1.7475
26251SOL    HW281292   3.564   8.690   6.345  0.2202 -0.1748  1.5703
26252SOL     OW81293   8.686   5.989   4.271  0.2823 -0.6741 -0.2403
26252SOL    HW181294   8.623   6.037   4.219  2.1439 -0.0831 -2.0244
26252SOL    HW281295   8.760   6.049   4.281  0.7956 -1.5308  1.3784
26253SOL     OW81296   2.024   2.649   2.812 -0.1535 -0.1792 -0.4617
26253SOL    HW181297   2.052   2.570   2.858  1.8393  0.3944 -0.6645
26253SOL    HW281298   1.968   2.695   2.875 -1.3541 -1.7388 -0.3546
26254SOL     OW81299   0.809   0.451   8.934 -0.5955 -0.0625  0.6695
26254SOL    HW181300   0.746   0.523   8.927  0.9709  1.2009 -1.0671
26254SOL    HW281301   0.870   0.478   9.002 -0.7906 -0.3743  0.9682
26255SOL     OW81302   8.198   3.476   9.086  0.4245  0.4948  0.5847
26255SOL    HW181303   8.250   3.403   9.052 -1.2522 -0.0552 -0.9024
26255SOL    HW281304   8.156   3.441   9.164 -0.8078 -0.3498 -0.4253
26256SOL     OW81305   8.340   0.506  10.044  0.1832  0.3497  0.1257
26256SOL    HW181306   8.260   0.557  10.055  0.7560  1.1812  0.5096
26256SOL    HW281307   8.369   0.488  10.134  0.1502 -0.3945 -0.0095
26257SOL     OW81308   1.284   0.609   2.078 -0.1324  0.2799  0.1279
26257SOL    HW181309   1.304   0.580   2.167 -0.8609 -0.8629 -0.0669
26257SOL    HW281310   1.325   0.542   2.022 -0.9096  0.2072 -0.3564
26258SOL     OW81311   8.590   3.834   7.934 -0.2292  0.1075 -0.3191
26258SOL    HW181312   8.516   3.881   7.894 -0.7577 -0.6732 -0.2765
26258SOL    HW281313   8.572   3.741   7.916  2.0977  0.0533 -2.6210
26259SOL     OW81314   1.815   6.745   7.744  0.0312 -0.0225  0.0824
26259SOL    HW181315   1.820   6.739   7.649  2.2688  0.0038  0.1708
26259SOL    HW281316   1.872   6.675   7.776  0.2296  0.7095  1.3780
26260SOL     OW81317   9.580   5.739   5.414 -0.5352  0.4795  0.0867
26260SOL    HW181318   9.634   5.661   5.424 -2.0870 -0.3719  1.9323
26260SOL    HW281319   9.641   5.805   5.379  1.6201 -0.5780  1.7167
26261SOL     OW81320   9.437   3.737   8.345 -0.5447 -0.0900  0.6289
26261SOL    HW181321   9.356   3.745   8.396  0.3217 -0.5808  2.1175
26261SOL    HW281322   9.438   3.816   8.290 -1.1740  0.8204  1.8802
26262SOL     OW81323   5.708   3.112   4.637  0.1014  0.4162 -1.0001
26262SOL    HW181324   5.718   3.161   4.719 -0.3543 -1.2195  0.0464
26262SOL    HW281325   5.614   3.113   4.620 -0.1048 -1.4835 -0.0852
26263SOL     OW81326   1.181   2.089   4.447  0.6769 -0.0609  0.1939
26263SOL    HW181327   1.112   2.081   4.382  0.7133  1.4871 -0.0553
26263SOL    HW281328   1.173   2.010   4.501 -2.0252  0.6381  0.8819
26264SOL     OW81329   3.197   5.074   6.663 -0.3680 -0.3091  0.1184
26264SOL    HW181330   3.281   5.104   6.698 -0.9549 -0.1389  1.3950
26264SOL    HW281331   3.184   4.988   6.703 -0.2971 -0.8125 -0.9133
26265SOL     OW81332   9.451   8.800   4.662  0.2819 -0.2164  0.5326
26265SOL    HW181333   9.480   8.822   4.750  1.1041 -0.5126  0.3461
26265SOL    HW281334   9.524   8.826   4.606  0.4691 -1.5904  0.1211
26266SOL     OW81335   9.127   4.418   2.810  0.0544  0.0232  0.1937
26266SOL    HW181336   9.127   4.491   2.747 -0.8058  0.3694  0.5866
26266SOL    HW281337   9.218   4.409   2.836  0.2712  0.5158 -0.3749
26267SOL     OW81338   2.745   1.926   7.187 -0.2949  0.1985 -0.1426
26267SOL    HW181339   2.723   1.835   7.210 -0.6021  0.0675 -0.9293
26267SOL    HW281340   2.833   1.921   7.151  0.3826  0.4777  1.4546
26268SOL     OW81341   1.883   5.198   5.774  0.1352 -0.5847  0.7790
26268SOL    HW181342   1.922   5.174   5.859  0.1792 -0.1363  0.8858
26268SOL    HW281343   1.797   5.232   5.796 -0.0362 -0.8956  0.6003
26269SOL     OW81344   3.024   7.698   7.110 -0.0521  0.1363 -0.1137
26269SOL    HW181345   3.118   7.710   7.095  0.4156 -2.0879  0.7940
26269SOL    HW281346   3.010   7.725   7.201 -0.2443  0.1961 -0.1603
26270SOL     OW81347   1.633   9.537   3.232 -0.2758 -0.2573  0.1514
26270SOL    HW181348   1.579   9.611   3.206 -1.6700 -1.0042  0.8325
26270SOL    HW281349   1.723   9.569   3.227 -0.8223  1.2236 -0.3194
26271SOL     OW81350   7.903   0.617   2.905  0.2470 -0.0429  0.3033
26271SOL    HW181351   7.948   0.537   2.932 -0.8425 -0.8101 -0.0849
26271SOL    HW281352   7.879   0.660   2.987 -0.2923 -0.7688  0.5292
26272SOL     OW81353   7.730   4.082   1.128 -0.3114  0.1832 -0.3365
26272SOL    HW181354   7.723   4.111   1.037  1.3624 -0.6027 -0.7217
26272SOL    HW281355   7.639   4.070   1.156 -0.9659  3.0558 -1.0417
26273SOL     OW81356   0.954   8.253   4.382 -0.0395  0.4204  0.3699
26273SOL    HW181357   1.001   8.318   4.330  0.0147  1.0936  1.2435
26273SOL    HW281358   0.862   8.265   4.359  0.1442 -0.4037 -0.7989
26274SOL     OW81359   2.790   2.223   0.776  0.0086  0.2105 -0.2072
26274SOL    HW181360   2.786   2.272   0.695  1.0726  1.2556  0.3523
26274SOL    HW281361   2.854   2.153   0.759  0.3739  0.5449 -0.2091
26275SOL     OW81362   7.024   2.926   0.328  0.7001  0.0073  0.4656
26275SOL    HW181363   6.952   2.865   0.309 -0.3171  1.1536  0.6070
26275SOL    HW281364   7.081   2.919   0.251 -0.6605  0.6559 -0.6424
26276SOL     OW81365   3.159   4.692   7.530 -0.0213 -0.3899 -0.6553
26276SOL    HW181366   3.174   4.731   7.444 -0.9458  1.1581 -0.1276
26276SOL    HW281367   3.206   4.749   7.591 -0.1915 -0.9113 -0.0281
26277SOL     OW81368   5.697   7.358   2.415 -0.2866  0.2738  0.0451
26277SOL    HW181369   5.761   7.392   2.477  0.3809  1.9457 -1.5040
26277SOL    HW281370   5.669   7.275   2.453  0.6949  0.8643  2.1599
26278SOL     OW81371   7.697   2.625   4.741 -0.3902 -0.0922 -0.2973
26278SOL    HW181372   7.701   2.712   4.780  1.5896 -0.4822  0.4487
26278SOL    HW281373   7.607   2.615   4.711 -1.0762  1.5217  1.1921
26279SOL     OW81374   3.793   6.692   9.095 -0.1687 -0.0063  0.3351
26279SOL    HW181375   3.773   6.606   9.131 -0.2079 -0.6056 -1.0903
26279SOL    HW281376   3.787   6.752   9.170  3.4729 -1.7296  2.1300
26280SOL     OW81377   5.693   8.573   3.799 -0.2875  0.3730  0.4362
26280SOL    HW181378   5.731   8.533   3.721 -0.1954 -1.3927  1.3708
26280SOL    HW281379   5.769   8.599   3.852 -0.3366  2.1002 -0.2816
26281SOL     OW81380   7.780   2.120   6.213  0.3623 -0.1345  0.1803
26281SOL    HW181381   7.747   2.197   6.259 -0.7677 -1.7300  2.0866
26281SOL    HW281382   7.777   2.050   6.277  1.8966 -1.6832 -1.3747
26282SOL     OW81383   8.652   0.980   9.397  0.1571  0.2067 -0.4789
26282SOL    HW181384   8.682   0.920   9.466 -0.6882  1.6854  1.1989
26282SOL    HW281385   8.719   1.048   9.394 -0.3917  0.7600 -0.3125
26283SOL     OW81386   0.333  10.086   4.160  0.1919  0.4517 -0.4830
26283SOL    HW181387   0.368  10.005   4.123 -0.7201 -0.3235  0.3395
26283SOL    HW281388   0.239  10.083   4.139 -0.1479  0.4975  0.9838
26284SOL     OW81389   2.640   4.522   5.340  0.9553  0.3103  0.0438
26284SOL    HW181390   2.614   4.596   5.394 -1.1445 -0.1085 -0.3450
26284SOL    HW281391   2.637   4.447   5.400  2.7447  0.4703  0.3539
26285SOL     OW81392   1.773   1.169   9.856  0.4428 -0.1102 -0.2600
26285SOL    HW181393   1.767   1.103   9.787 -1.9998  0.8025 -0.9646
26285SOL    HW281394   1.699   1.227   9.841  2.0516  2.3255  0.8727
26286SOL     OW81395   1.094   6.914   1.407  0.5071  0.6582 -0.2618
26286SOL    HW181396   1.114   6.947   1.494 -0.7634  2.1368 -0.5083
26286SOL    HW281397   1.114   6.987   1.348 -3.4779  1.5397 -0.7100
26287SOL     OW81398   1.567   8.882   6.868  0.0894  0.2963  0.1766
26287SOL    HW181399   1.641   8.883   6.808 -0.4189  2.8973 -0.4630
26287SOL    HW281400   1.496   8.843   6.817 -0.2076  2.0349 -0.7670
26288SOL     OW81401   3.154   4.061   2.804  0.3644 -0.1129  0.5043
26288SOL    HW181402   3.224   4.125   2.816 -0.8983  1.1118  1.4101
26288SOL    HW281403   3.090   4.081   2.872 -0.6854 -1.4840 -0.0434
26289SOL     OW81404   4.506   5.906   9.978 -0.4894  0.0236 -0.0681
26289SOL    HW181405   4.551   5.985   9.950  1.1677 -1.3766 -1.5284
26289SOL    HW281406   4.572   5.836   9.968 -2.7744 -2.0041 -1.7872
26290SOL     OW81407   5.087   1.190   9.416 -0.0708 -0.6248 -0.4824
26290SOL    HW181408   5.018   1.138   9.458 -0.3567  0.3708  0.2987
26290SOL    HW281409   5.167   1.166   9.462 -0.2590 -0.1223  0.1188
26291SOL     OW81410   6.965   9.998   6.469  0.0628  0.6002  0.8324
26291SOL    HW181411   6.969   9.944   6.390 -0.7288 -2.6379  2.8870
26291SOL    HW281412   6.874  10.024   6.476 -0.1202 -0.1768  1.3495
26292SOL     OW81413   6.177   6.273   3.640 -0.0120  0.0770 -0.1199
26292SOL    HW181414   6.211   6.261   3.728  0.9460 -1.1070 -0.6399
26292SOL    HW281415   6.254   6.293   3.587 -0.8183  2.6860 -0.3654
26293SOL     OW81416   8.939   7.163   2.879 -0.0347  0.0270 -0.0470
26293SOL    HW181417   8.943   7.248   2.923  0.9034  0.5870 -1.1911
26293SOL    HW281418   9.030   7.141   2.861 -0.3781 -0.4410 -1.2283
26294SOL     OW81419   8.193   6.087   4.789 -0.2278  0.1626  0.0646
26294SOL    HW181420   8.161   6.015   4.844 -0.4035  1.0963  1.1950
26294SOL    HW281421   8.143   6.078   4.707 -0.0891 -1.1284  0.1084
26295SOL     OW81422   0.506   0.491   2.287 -0.1169 -0.1330  0.5086
26295SOL    HW181423   0.432   0.431   2.291  1.8945 -3.1806 -3.6088
26295SOL    HW281424   0.493   0.542   2.207  1.7984 -0.1818  0.1235
26296SOL     OW81425   0.108   6.023   1.166  0.3867  0.8101 -0.0282
26296SOL    HW181426   0.139   6.029   1.075  0.8650 -0.7532  0.0163
26296SOL    HW281427   0.159   5.951   1.204 -1.6558 -0.2996  0.7027
26297SOL     OW81428   8.584   9.843   4.783  0.0892  0.6851  0.5681
26297SOL    HW181429   8.663   9.894   4.764 -0.3959  1.6464  1.0639
26297SOL    HW281430   8.599   9.807   4.870  0.4884 -0.1395  0.1610
26298SOL     OW81431   2.143   5.103   8.475  0.6335 -0.2408  0.1388
26298SOL    HW181432   2.144   5.037   8.544 -1.9728 -0.0554  0.3961
26298SOL    HW281433   2.154   5.186   8.522 -1.8580 -0.0531  0.4610
26299SOL     OW81434   3.368   1.029   7.923  0.2119  0.2731 -0.0216
26299SOL    HW181435   3.350   1.101   7.862  0.5612  0.5723  0.2280
26299SOL    HW281436   3.287   0.978   7.925 -0.3189  1.1244  0.4320
26300SOL     OW81437   4.868   7.174   0.434  0.0879  0.0741  0.2191
26300SOL    HW181438   4.883   7.220   0.351  0.3181  0.8335  0.6760
26300SOL    HW281439   4.807   7.231   0.482 -0.4743 -0.6303  0.3545
26301SOL     OW81440   4.588   0.856   5.068 -0.1259 -0.1505  0.3764
26301SOL    HW181441   4.656   0.903   5.021 -2.1403  1.5522 -0.9208
26301SOL    HW281442   4.523   0.923   5.091 -1.8346 -1.8604  0.7461
26302SOL     OW81443   5.839   0.461   9.001  0.1193  0.6911 -0.1812
26302SOL    HW181444   5.910   0.414   9.044  0.3060  0.4021 -0.8029
26302SOL    HW281445   5.808   0.402   8.932 -1.0751  0.5952  0.4213
26303SOL     OW81446   2.275   3.310   1.478  0.3312 -0.1359 -0.2147
26303SOL    HW181447   2.197   3.339   1.526  0.3058 -0.3298 -0.1391
26303SOL    HW281448   2.333   3.386   1.478 -1.2159  1.1284 -3.1149
26304SOL     OW81449   3.403   9.186   4.585 -0.4839  0.1157  0.0454
26304SOL    HW181450   3.495   9.177   4.561 -0.0844  0.6598  1.3281
26304SOL    HW281451   3.381   9.106   4.632 -0.1638  0.7153  1.2563
26305SOL     OW81452   1.986   0.921   8.972 -0.6659  0.1150 -0.1356
26305SOL    HW181453   1.925   0.862   8.927 -0.8279 -1.2439  1.7874
26305SOL    HW281454   2.071   0.903   8.933 -0.8818 -0.7052 -0.2374
26306SOL     OW81455   9.051   6.002   1.408  0.2215  0.0703 -0.7496
26306SOL    HW181456   8.965   5.965   1.429  0.3055  0.0883 -0.3703
26306SOL    HW281457   9.081   5.951   1.333  0.8438 -1.4273  0.4882
26307SOL     OW81458   0.055   7.075   0.211 -0.1627 -0.6214 -0.2234
26307SOL    HW181459   0.118   7.078   0.139 -0.0625 -2.4781 -0.2230
26307SOL    HW281460   0.104   7.107   0.287 -0.0295  0.5401 -0.7769
26308SOL     OW81461   8.123   2.470   7.964  0.5687  0.4511  0.4526
26308SOL    HW181462   8.150   2.550   8.009 -0.6733  0.3445  1.4252
26308SOL    HW281463   8.188   2.404   7.989  1.7315  1.2092 -0.5487
26309SOL     OW81464   7.195   6.543   4.939  0.3290 -0.5701 -0.0486
26309SOL    HW181465   7.111   6.590   4.935  0.4823 -0.4407 -2.1069
26309SOL    HW281466   7.259   6.605   4.904  1.2472 -0.7973  1.1984
26310SOL     OW81467   8.103   0.590   3.300 -0.3383 -0.0177  0.0470
26310SOL    HW181468   8.167   0.624   3.362  0.3473  0.8144 -1.1005
26310SOL    HW281469   8.155   0.554   3.228 -1.1037 -1.8430  0.3783
26311SOL     OW81470   7.235   6.302   8.110  0.0189 -0.5118 -0.5869
26311SOL    HW181471   7.177   6.241   8.064 -0.5956 -1.2704  1.1077
26311SOL    HW281472   7.321   6.262   8.104 -0.4389 -1.7829  0.8183
26312SOL     OW81473   7.632   5.412   6.141 -0.1792  0.0574  0.8562
26312SOL    HW181474   7.543   5.381   6.158 -0.4236 -1.4836 -2.7481
26312SOL    HW281475   7.688   5.338   6.165  0.0867  0.6216  2.0365
26313SOL     OW81476   1.383   8.172   4.261 -0.0875 -0.4229  0.2986
26313SOL    HW181477   1.440   8.114   4.210 -1.2490  1.7191 -3.6349
26313SOL    HW281478   1.297   8.133   4.254 -0.5095  0.6311 -0.6879
26314SOL     OW81479   0.531   9.282   3.064  0.3832 -0.3206 -0.5165
26314SOL    HW181480   0.544   9.342   2.990 -1.4785  0.1295 -0.5150
26314SOL    HW281481   0.436   9.279   3.075  0.5810 -1.4899  0.9651
26315SOL     OW81482   2.981   8.104   7.474 -0.4393  0.4444 -0.2669
26315SOL    HW181483   3.055   8.123   7.532 -0.5943  2.2973 -0.6334
26315SOL    HW281484   3.022   8.074   7.393 -0.1955 -1.1664  0.4246
26316SOL     OW81485   7.722   5.164   0.286 -0.2092 -0.5782  0.3066
26316SOL    HW181486   7.801   5.181   0.235  0.1598 -1.0681  0.7191
26316SOL    HW281487   7.741   5.085   0.336 -1.0303 -0.8118  0.2635
26317SOL     OW81488   7.179   7.413   4.144 -0.2223 -0.0431 -0.1195
26317SOL    HW181489   7.158   7.479   4.079 -1.4026 -0.9928 -0.7261
26317SOL    HW281490   7.270   7.390   4.126  0.2978  1.6240  0.3037
26318SOL     OW81491   3.041   9.455   5.549  0.2710 -0.2301 -0.4871
26318SOL    HW181492   3.066   9.427   5.637 -0.6237  0.5868  0.0275
26318SOL    HW281493   2.954   9.491   5.559 -0.1371 -0.8070 -1.8552
26319SOL     OW81494   9.839   6.455   2.267 -0.1164  0.3365 -0.5811
26319SOL    HW181495   9.858   6.511   2.192  3.0777 -0.8122 -0.7038
26319SOL    HW281496   9.787   6.383   2.231 -3.0653  2.4309 -0.6729
26320SOL     OW81497   5.120   1.602   0.334  0.7769 -0.0823 -0.1631
26320SOL    HW181498   5.107   1.533   0.269 -0.3389 -1.7498  1.7542
26320SOL    HW281499   5.164   1.558   0.407  1.1129  1.5105  0.6178
26321SOL     OW81500   5.382   2.743   7.190  0.1183  0.0222  0.0111
26321SOL    HW181501   5.435   2.803   7.138  0.6864 -0.0185  0.5481
26321SOL    HW281502   5.414   2.752   7.279  1.2049 -2.1007 -0.1081
26322SOL     OW81503   3.520   3.080   2.901 -0.5634  0.7015 -0.0992
26322SOL    HW181504   3.508   3.109   2.991 -1.2566  0.1713 -0.0180
26322SOL    HW281505   3.589   3.137   2.866  1.9950 -1.1588  1.7276
26323SOL     OW81506   7.382   0.825   0.953  0.4850  0.4895 -0.2942
26323SOL    HW181507   7.318   0.876   0.904  0.5641  0.9756  0.0981
26323SOL    HW281508   7.448   0.800   0.887 -0.6434 -0.9317 -0.9091
26324SOL     OW81509   6.423   3.632   2.665 -0.0617 -0.3715  0.2504
26324SOL    HW181510   6.405   3.724   2.682 -0.1523 -0.6568  1.7757
26324SOL    HW281511   6.416   3.590   2.751 -1.1303 -1.9820 -0.5977
26325SOL     OW81512   8.171   6.360  10.105  0.2325 -0.7229  0.4597
26325SOL    HW181513   8.210   6.444  10.082 -3.9634  1.3673  0.5778
26325SOL    HW281514   8.165   6.312  10.023  2.4806 -0.8795  0.3622
26326SOL     OW81515   1.242   3.917   6.928 -0.2719 -0.2513 -0.0689
26326SOL    HW181516   1.146   3.911   6.924 -0.3306  1.3337 -2.4978
26326SOL    HW281517   1.259   4.011   6.933  1.1708 -0.4869 -0.4644
26327SOL     OW81518   0.875   3.986   1.938  0.2294 -0.0156 -0.3720
26327SOL    HW181519   0.848   4.058   1.881 -0.6057 -0.6199 -0.7477
26327SOL    HW281520   0.970   3.995   1.945  0.1339  1.1230 -0.4104
26328SOL     OW81521   2.052   8.823   6.745 -0.0603  0.2082  0.1523
26328SOL    HW181522   2.021   8.904   6.786 -2.6719 -0.0205 -1.2311
26328SOL    HW281523   2.008   8.753   6.793  1.8648 -0.3892  1.0739
26329SOL     OW81524   9.721   8.701   1.878  0.1696  0.5124 -0.0084
26329SOL    HW181525   9.648   8.745   1.922 -0.5479 -0.6487  0.0147
26329SOL    HW281526   9.795   8.711   1.937 -0.1749  1.0456  0.3330
26330SOL     OW81527   6.641   8.779   9.537  0.6115 -0.3668 -0.5134
26330SOL    HW181528   6.630   8.713   9.469 -1.4696 -0.7198  0.1168
26330SOL    HW281529   6.662   8.859   9.490 -0.2288 -0.7318 -1.5380
26331SOL     OW81530   0.770   6.880   0.467 -0.2230  0.0778 -0.1726
26331SOL    HW181531   0.751   6.863   0.559 -0.7611  1.3546 -0.0352
26331SOL    HW281532   0.842   6.820   0.445 -0.5392 -0.6904  0.8929
26332SOL     OW81533   8.064   2.972   9.603  0.0366  0.4040  0.3000
26332SOL    HW181534   8.125   2.954   9.675 -0.4744 -0.0202  0.6219
26332SOL    HW281535   7.994   2.908   9.613  1.5426 -1.7638 -2.4491
26333SOL     OW81536   8.750   8.272   0.879  0.3014  0.3986 -0.2992
26333SOL    HW181537   8.655   8.257   0.883  0.1630  1.2913 -0.1507
26333SOL    HW281538   8.778   8.277   0.970  0.6823 -1.0226 -0.3348
26334SOL     OW81539   8.034   8.474   3.032 -0.0867  0.3569  0.1909
26334SOL    HW181540   7.987   8.556   3.023 -1.0083 -0.2948 -1.0858
26334SOL    HW281541   8.078   8.480   3.117  1.9033  3.1931 -0.9902
26335SOL     OW81542   2.189   3.701   9.106  0.0652  0.4585 -0.3196
26335SOL    HW181543   2.207   3.667   9.019 -0.0433  1.3623 -0.6940
26335SOL    HW281544   2.195   3.624   9.163  2.1509  0.1888 -0.8389
26336SOL     OW81545  10.192   6.123   6.670  0.7467  0.1291 -0.5477
26336SOL    HW181546  10.240   6.127   6.587  0.4707  1.2109 -0.6680
26336SOL    HW281547  10.231   6.192   6.724 -1.0267  1.4128 -0.8466
26337SOL     OW81548   5.064   1.200   7.619  0.7346 -0.4492 -0.0789
26337SOL    HW181549   5.107   1.285   7.627 -2.2026  1.1578 -0.2871
26337SOL    HW281550   4.983   1.219   7.572 -1.2495 -2.8976  2.1590
26338SOL     OW81551   2.386   3.908   6.357  0.3248  0.1493 -0.0680
26338SOL    HW181552   2.333   3.925   6.279  1.8384  2.6966 -0.5991
26338SOL    HW281553   2.361   3.819   6.384 -1.0601 -0.3423 -2.7739
26339SOL     OW81554  10.070   3.655   6.752 -0.0763 -0.4206  0.3844
26339SOL    HW181555  10.145   3.665   6.693 -1.4467  1.4219 -1.1170
26339SOL    HW281556  10.106   3.674   6.839  1.0137  1.4364 -0.4386
26340SOL     OW81557   7.755   9.266   8.555  0.9872  0.1272 -0.2174
26340SOL    HW181558   7.849   9.264   8.573  1.3599 -0.7475 -2.0870
26340SOL    HW281559   7.749   9.284   8.461 -0.7105 -0.0405 -0.1571
26341SOL     OW81560   6.770   8.562   9.809  0.5776  0.2993 -0.4770
26341SOL    HW181561   6.810   8.621   9.873 -0.0397  0.1071  0.1007
26341SOL    HW281562   6.680   8.552   9.840 -0.1425  1.3173 -2.1636
26342SOL     OW81563   9.994   8.911   6.055  0.1804  0.4503  0.3509
26342SOL    HW181564  10.029   8.827   6.086  1.4489  1.6048  2.0896
26342SOL    HW281565   9.901   8.893   6.041  0.1877 -0.9554  1.8785
26343SOL     OW81566   2.010   6.004   0.311 -0.3822  0.5705 -0.1124
26343SOL    HW181567   2.011   5.945   0.387 -0.2570  0.9494  0.1821
26343SOL    HW281568   2.004   5.945   0.235 -0.2869  0.1808  0.1795
26344SOL     OW81569   0.370   8.906   8.835 -0.0645  0.1663  0.4223
26344SOL    HW181570   0.304   8.927   8.768  0.7198 -0.9817 -0.7465
26344SOL    HW281571   0.319   8.884   8.913 -0.9810  2.0427  0.3587
26345SOL     OW81572   2.432   9.451   5.183 -0.4237  0.0274  0.3551
26345SOL    HW181573   2.393   9.393   5.248 -1.3124  0.3044  0.0752
26345SOL    HW281574   2.358   9.485   5.134  0.1865  0.4555 -0.2727
26346SOL     OW81575   2.140   0.500   7.444 -0.0913 -0.1488 -0.0091
26346SOL    HW181576   2.117   0.593   7.452 -1.0124 -0.3147 -0.6992
26346SOL    HW281577   2.205   0.486   7.513 -0.2616  0.9056  0.3818
26347SOL     OW81578   6.860   9.484  10.005  0.3060  0.1183  0.0627
26347SOL    HW181579   6.874   9.393   9.978  1.6389  0.0095  1.0824
26347SOL    HW281580   6.937   9.531   9.972  0.6840  0.4602  1.4289
26348SOL     OW81581   7.164   8.192   3.163 -0.1196 -0.3667  0.0487
26348SOL    HW181582   7.168   8.102   3.132  0.2676 -0.9939  1.8966
26348SOL    HW281583   7.255   8.223   3.159 -0.2555 -0.0250 -0.6111
26349SOL     OW81584   9.520   8.155   3.991  0.0385  0.3019 -0.1260
26349SOL    HW181585   9.506   8.236   4.039  0.4676  0.5046 -0.3384
26349SOL    HW281586   9.444   8.147   3.933 -1.4411 -0.9369  1.9585
26350SOL     OW81587   7.521   5.490   2.481  0.0252  0.5859 -0.1776
26350SOL    HW181588   7.524   5.411   2.535  0.1998  0.0133 -1.0091
26350SOL    HW281589   7.608   5.494   2.440 -1.4203 -1.3117 -3.6662
26351SOL     OW81590   0.742   2.808   8.196  0.3954 -0.4124  0.0321
26351SOL    HW181591   0.828   2.848   8.212  0.5769 -0.5403 -0.6282
26351SOL    HW281592   0.717   2.772   8.281  1.5699 -1.4816 -0.0470
26352SOL     OW81593   1.749   9.158   5.743  0.1616 -0.1524  0.7357
26352SOL    HW181594   1.655   9.140   5.742  0.3225 -0.9400 -0.2584
26352SOL    HW281595   1.790   9.074   5.762  0.7290 -0.0789 -0.1523
26353SOL     OW81596   3.953   8.767   7.451  0.7231 -0.1994 -0.9457
26353SOL    HW181597   3.862   8.797   7.455  0.5854 -0.8286  1.3687
26353SOL    HW281598   3.947   8.671   7.455  1.4845 -0.2432 -0.7462
26354SOL     OW81599   3.343   3.209   4.030  0.1316  0.5515  0.4693
26354SOL    HW181600   3.257   3.251   4.040  0.8731  2.3971 -0.6936
26354SOL    HW281601   3.406   3.275   4.059  1.2557 -0.2039 -0.2117
26355SOL     OW81602   4.166   4.942   5.202 -0.0896 -0.2892 -0.2171
26355SOL    HW181603   4.085   4.963   5.158 -2.0595 -2.6396  2.0930
26355SOL    HW281604   4.159   4.983   5.288  0.6612 -1.3884  0.3963
26356SOL     OW81605   1.180   5.457   0.742  0.3473  0.5050  0.0456
26356SOL    HW181606   1.206   5.427   0.829 -0.9701  1.9934  0.9789
26356SOL    HW281607   1.168   5.376   0.691 -0.7394 -0.4647  1.7960
26357SOL     OW81608   3.889   7.068   4.707  0.8349  0.1893 -0.2724
26357SOL    HW181609   3.802   7.055   4.670  0.0009  0.0874  1.6918
26357SOL    HW281610   3.946   7.014   4.653 -0.3793 -0.1152 -1.2755
26358SOL     OW81611   8.023   7.266   1.582 -0.4715  0.1502 -0.5943
26358SOL    HW181612   8.117   7.285   1.583 -0.3000 -0.7595  0.8369
26358SOL    HW281613   7.984   7.343   1.540  0.5349  2.2129  2.1421
26359SOL     OW81614   0.043   5.495   2.281  0.2130  0.0249 -0.7234
26359SOL    HW181615  -0.036   5.477   2.331 -0.5127 -0.1675 -1.9068
26359SOL    HW281616   0.106   5.429   2.310 -0.3380 -0.3516 -0.3810
26360SOL     OW81617   1.853   5.307   5.186  0.5126  1.2169 -0.1892
26360SOL    HW181618   1.801   5.260   5.121  1.2158 -0.9600  0.7865
26360SOL    HW281619   1.811   5.393   5.192 -0.5433  0.8977 -2.3073
26361SOL     OW81620   9.363   4.844   2.398  0.0246 -0.8108  0.0450
26361SOL    HW181621   9.377   4.779   2.466  0.7493  0.6451  1.3187
26361SOL    HW281622   9.369   4.928   2.443  3.4322  0.2918 -2.2326
26362SOL     OW81623   3.407   7.287   7.448 -0.0142  0.0747  0.1594
26362SOL    HW181624   3.401   7.285   7.353 -0.2280  0.8708  0.1557
26362SOL    HW281625   3.316   7.279   7.478 -0.1345  1.7293  0.2641
26363SOL     OW81626   1.140   0.676   3.483 -0.2370 -0.3483  0.0522
26363SOL    HW181627   1.119   0.628   3.563 -0.6918  0.8341  0.6443
26363SOL    HW281628   1.186   0.755   3.514  0.8200 -0.5581 -0.9336
26364SOL     OW81629   8.185   7.854   3.258  0.6547 -0.0991  0.3200
26364SOL    HW181630   8.221   7.806   3.184  0.1140  1.3113 -0.8691
26364SOL    HW281631   8.102   7.811   3.277 -0.4098  1.1145 -1.5249
26365SOL     OW81632   3.106   1.991   1.068 -0.7537 -0.1573 -1.5078
26365SOL    HW181633   3.018   1.999   1.032 -0.3384 -1.8722 -2.9796
26365SOL    HW281634   3.123   2.076   1.109 -2.6156  0.6118 -2.2691
26366SOL     OW81635   4.700   8.244   3.006 -0.2369  0.2844 -0.3657
26366SOL    HW181636   4.725   8.195   2.928 -1.3883  1.4125 -1.4557
26366SOL    HW281637   4.689   8.177   3.074 -1.9854 -1.0230 -1.8917
26367SOL     OW81638   8.759   8.204   7.603  0.3502 -0.3847 -0.0398
26367SOL    HW181639   8.688   8.233   7.545  0.6902 -0.3286 -0.4305
26367SOL    HW281640   8.756   8.265   7.677  1.6819  1.2662 -1.3051
26368SOL     OW81641   4.598   2.942   3.989  0.5675 -0.3437  0.0110
26368SOL    HW181642   4.628   3.033   3.988  1.6555 -0.6809  0.9338
26368SOL    HW281643   4.679   2.890   3.986 -0.0872 -1.3059 -2.7703
26369SOL     OW81644   6.649   2.203   1.249 -0.0689  0.0397  0.6039
26369SOL    HW181645   6.579   2.139   1.238 -1.1874  1.2405  0.5361
26369SOL    HW281646   6.725   2.165   1.205 -1.5294  0.0481 -2.0275
26370SOL     OW81647   2.386   2.014   8.378 -0.0207  0.0388  0.2910
26370SOL    HW181648   2.441   1.937   8.372 -0.2072 -0.3981  3.3667
26370SOL    HW281649   2.301   1.981   8.406 -0.4971  1.2185  0.2788
26371SOL     OW81650   1.287  10.157   3.080  0.4590 -0.1483 -0.1637
26371SOL    HW181651   1.305  10.214   3.155  0.8619 -0.8240  0.2581
26371SOL    HW281652   1.248  10.215   3.015 -0.5774  0.3035  0.8421
26372SOL     OW81653   6.940   7.747   0.870 -0.6570 -0.2701 -0.3612
26372SOL    HW181654   6.977   7.734   0.958 -0.8213 -0.1795 -0.2784
26372SOL    HW281655   6.941   7.842   0.857 -1.4587 -0.2247 -0.0995
26373SOL     OW81656   0.788   3.555   5.993  0.8226  0.4637 -0.4429
26373SOL    HW181657   0.841   3.499   6.050 -0.1404  0.6370  0.6407
26373SOL    HW281658   0.782   3.506   5.911  1.0237 -0.4545  0.0773
26374SOL     OW81659   5.929   2.473   5.904  0.2189  0.3996  0.1245
26374SOL    HW181660   5.965   2.548   5.952 -3.0371  1.7165  0.6159
26374SOL    HW281661   5.933   2.499   5.812  2.0288 -0.1567  0.0336
26375SOL     OW81662   2.822   1.465   3.788 -0.1469 -0.1026  0.3563
26375SOL    HW181663   2.791   1.405   3.856 -0.0922 -1.1681 -0.5366
26375SOL    HW281664   2.766   1.446   3.712 -1.5661  2.4917  0.6869
26376SOL     OW81665   0.040   8.597   2.379  0.1918 -0.2163  0.0454
26376SOL    HW181666   0.092   8.671   2.348 -0.1891 -0.2414 -0.6627
26376SOL    HW281667  -0.011   8.571   2.303  1.7698 -2.4650 -0.2896
26377SOL     OW81668   9.052   0.417   1.564  0.1104 -0.2660 -0.0795
26377SOL    HW181669   9.061   0.512   1.565  0.2637 -0.2822  0.1274
26377SOL    HW281670   9.071   0.393   1.474 -2.3471  0.1188 -0.7398
26378SOL     OW81671   7.266   1.445   7.098 -0.4320 -0.0274  0.0418
26378SOL    HW181672   7.197   1.431   7.033  0.6869 -0.1932 -1.1441
26378SOL    HW281673   7.290   1.537   7.087 -1.0347  0.2479  1.0275
26379SOL     OW81674   8.136   9.557   1.483 -0.0310  0.2636  0.1233
26379SOL    HW181675   8.169   9.573   1.572  2.2629 -2.6249 -0.1286
26379SOL    HW281676   8.063   9.496   1.496  2.3482 -2.7669 -0.1028
26380SOL     OW81677   8.576   1.636   6.697 -0.0174 -0.1644 -0.3495
26380SOL    HW181678   8.582   1.696   6.623  0.6111 -1.1615 -1.1168
26380SOL    HW281679   8.529   1.560   6.662 -2.5577  0.6747  1.1410
26381SOL     OW81680   4.299   6.105   6.313  0.5259  0.3120  0.0945
26381SOL    HW181681   4.380   6.149   6.286  0.2153  0.3835 -0.7412
26381SOL    HW281682   4.257   6.079   6.230  0.2755 -0.7752  0.5585
26382SOL     OW81683   9.628   9.322   5.746  0.0166 -0.6602  0.2718
26382SOL    HW181684   9.545   9.320   5.793 -0.1823 -0.5724 -0.0729
26382SOL    HW281685   9.609   9.282   5.661  0.5785 -1.6134  0.5780
26383SOL     OW81686   1.791   2.540   9.242  0.2989  0.2344  0.4328
26383SOL    HW181687   1.859   2.592   9.285  0.6597  0.4686 -0.4129
26383SOL    HW281688   1.797   2.454   9.283  1.6094  0.0385 -0.1485
26384SOL     OW81689   6.697   0.901   8.080 -0.0653 -0.0261 -0.1029
26384SOL    HW181690   6.742   0.820   8.102  0.4702  0.6964  1.5778
26384SOL    HW281691   6.621   0.873   8.029  1.8702 -1.3000 -2.3587
26385SOL     OW81692   3.563   8.685   1.429 -1.2586 -0.5942  0.0347
26385SOL    HW181693   3.647   8.668   1.471 -1.2217 -1.0620 -0.2260
26385SOL    HW281694   3.586   8.714   1.340 -1.3622 -0.3587  0.0834
26386SOL     OW81695   9.856   6.975   3.992 -0.2852  0.2017 -0.1592
26386SOL    HW181696   9.779   6.917   3.996  1.1828 -1.7622  0.1655
26386SOL    HW281697   9.821   7.062   4.013 -2.2280 -0.8338  1.0782
26387SOL     OW81698   3.621  10.098   0.729 -0.0586  0.2678  1.2714
26387SOL    HW181699   3.672  10.049   0.665  1.6840 -1.8647  4.1366
26387SOL    HW281700   3.680  10.167   0.759  0.0352 -0.2437  2.2954
26388SOL     OW81701   4.023   3.951   1.051  0.1083 -0.0827 -0.1152
26388SOL    HW181702   3.978   3.871   1.079  2.5975 -2.0427 -1.4714
26388SOL    HW281703   4.086   3.969   1.121  0.1999  0.1371 -0.2543
26389SOL     OW81704   5.192   9.611   1.048  0.7804  0.4908 -0.2772
26389SOL    HW181705   5.260   9.648   1.103  0.1248 -0.1671  0.9902
26389SOL    HW281706   5.149   9.688   1.009  1.7856  0.9232 -0.5317
26390SOL     OW81707   5.934   6.417   5.955  0.2488  0.5086 -0.5305
26390SOL    HW181708   6.008   6.461   5.997 -0.3978  0.2547  0.8985
26390SOL    HW281709   5.861   6.430   6.015 -0.3767 -0.9823 -0.9356
26391SOL     OW81710   6.575   2.959   0.086 -0.1914  0.2508  0.5455
26391SOL    HW181711   6.571   3.013   0.165  0.9485  0.5711  0.3902
26391SOL    HW281712   6.654   2.906   0.097 -0.7815 -0.7144  0.2551
26392SOL     OW81713   6.168   7.992   9.033  0.1586 -0.1780 -0.0834
26392SOL    HW181714   6.087   8.043   9.036  0.4318  0.2238  0.9534
26392SOL    HW281715   6.149   7.919   8.975 -0.9360 -0.0626  0.1154
26393SOL     OW81716   4.102   0.657   6.250 -0.5460 -0.5648 -0.0259
26393SOL    HW181717   4.114   0.566   6.224  0.6881 -0.5575  0.4945
26393SOL    HW281718   4.112   0.656   6.345 -2.3922 -0.1712  0.1990
26394SOL     OW81719   4.947   7.399   1.802 -0.0688  0.2149  0.0405
26394SOL    HW181720   4.919   7.324   1.749  0.2038  0.1585 -0.0286
26394SOL    HW281721   4.919   7.476   1.752 -0.6751  0.1548  0.2950
26395SOL     OW81722   8.333   3.916   8.638  0.2979  0.6171 -0.0778
26395SOL    HW181723   8.362   3.900   8.728 -0.2683  0.3562  0.0631
26395SOL    HW281724   8.308   3.830   8.605 -0.9653  0.9212  0.0443
26396SOL     OW81725   0.186   1.202   4.718  0.1600  0.1676  0.0887
26396SOL    HW181726   0.149   1.117   4.695 -0.4617  0.4487  0.0598
26396SOL    HW281727   0.169   1.258   4.642  0.3690  0.3806  0.1955
26397SOL     OW81728   7.290   9.835   5.977 -0.7546  0.4380  1.2188
26397SOL    HW181729   7.214   9.776   5.970  0.8219 -1.8031  2.2351
26397SOL    HW281730   7.344   9.813   5.901 -0.8722  1.6938  0.7628
26398SOL     OW81731   6.062   7.930   7.136  0.5517  0.3930 -0.3365
26398SOL    HW181732   6.100   8.015   7.114 -1.2643  1.1451 -0.6725
26398SOL    HW281733   6.096   7.911   7.223  0.1868  1.9430  0.1617
26399SOL     OW81734   8.945   0.251   6.259 -0.7701 -0.4197  0.4015
26399SOL    HW181735   8.877   0.193   6.225 -0.0246 -1.3147  0.4211
26399SOL    HW281736   8.926   0.257   6.353 -0.9375 -0.4919  0.3722
26400SOL     OW81737   7.288   1.599   3.513 -0.5239  0.0999 -0.2998
26400SOL    HW181738   7.303   1.539   3.587 -2.7774 -0.1623 -0.0151
26400SOL    HW281739   7.374   1.636   3.494  0.4507 -1.3749  1.1386
26401SOL     OW81740   9.702   3.912   7.524  0.2373  0.0442 -0.2956
26401SOL    HW181741   9.786   3.896   7.567  0.5099  1.0615 -0.4222
26401SOL    HW281742   9.637   3.875   7.583  0.5919  1.6127  1.1116
26402SOL     OW81743   9.456   6.170   3.864  0.2868  0.3872 -0.2542
26402SOL    HW181744   9.459   6.230   3.937 -0.7314  0.2588 -0.1013
26402SOL    HW281745   9.363   6.151   3.852  0.5555 -0.7444 -0.6232
26403SOL     OW81746   9.087   7.776   1.934  0.2242  0.1445  0.1351
26403SOL    HW181747   9.013   7.810   1.882  0.5880 -0.5858 -0.8677
26403SOL    HW281748   9.164   7.795   1.880  0.5617 -1.0411  0.2073
26404SOL     OW81749   5.300   8.990   8.908  0.0668  0.7913  0.1559
26404SOL    HW181750   5.227   9.044   8.877 -1.0746 -1.0195 -0.4100
26404SOL    HW281751   5.258   8.915   8.951  1.6181  0.8904  1.9361
26405SOL     OW81752   6.644   2.843   9.975 -0.8528 -0.3041 -0.0355
26405SOL    HW181753   6.738   2.827   9.970 -0.6909  0.7433 -0.4787
26405SOL    HW281754   6.609   2.768  10.024  0.0747 -1.1741 -0.6949
26406SOL     OW81755   0.811   0.525   5.702 -0.1006  0.5413  0.1610
26406SOL    HW181756   0.905   0.538   5.691  0.0547 -2.1718 -2.4632
26406SOL    HW281757   0.779   0.609   5.736  2.9844  2.0506 -0.4556
26407SOL     OW81758   9.505   6.477   7.723  0.3457 -0.2511 -0.4355
26407SOL    HW181759   9.457   6.403   7.684 -1.4682  0.0671  1.1658
26407SOL    HW281760   9.513   6.455   7.815 -0.4053  1.6571  0.1066
26408SOL     OW81761   6.931   8.835   6.449  0.5015 -0.3738 -0.0533
26408SOL    HW181762   7.015   8.880   6.448  0.2774  0.0697  0.6428
26408SOL    HW281763   6.899   8.846   6.538  0.5597 -2.1390  0.2126
26409SOL     OW81764   0.559   5.496   2.942 -0.2106  0.2172 -0.2241
26409SOL    HW181765   0.648   5.525   2.958 -0.3997  0.6934 -0.0105
26409SOL    HW281766   0.510   5.526   3.019 -0.4136 -0.6591 -0.0085
26410SOL     OW81767   4.763   1.484   7.928 -0.0508 -1.1787 -0.2325
26410SOL    HW181768   4.817   1.498   7.850 -0.4212  1.5285 -0.0630
26410SOL    HW281769   4.822   1.446   7.992  1.0946 -0.4085 -0.8173
26411SOL     OW81770   1.046   9.843   4.996  0.2378  0.4860  0.2448
26411SOL    HW181771   1.040   9.772   5.060 -0.4494 -1.3985 -1.8264
26411SOL    HW281772   0.967   9.895   5.011 -0.9033 -1.0450 -0.2940
26412SOL     OW81773   4.805   0.500   0.958 -0.1303  0.4824  0.3222
26412SOL    HW181774   4.723   0.515   0.911 -0.0629 -1.3226 -0.4084
26412SOL    HW281775   4.854   0.440   0.901  0.4020 -0.8889  2.1894
26413SOL     OW81776   7.185   3.074   2.941  0.1602  0.3467  0.1636
26413SOL    HW181777   7.238   3.041   3.013  0.3845  1.3587  0.4752
26413SOL    HW281778   7.105   3.022   2.945  0.7458 -0.5579  0.2636
26414SOL     OW81779   4.166   1.332   2.635 -0.3121 -0.0339 -0.7025
26414SOL    HW181780   4.238   1.270   2.623 -0.8441 -1.0918  1.3230
26414SOL    HW281781   4.208   1.418   2.642  0.5447 -0.3413 -2.0272
26415SOL     OW81782   0.163   0.967   0.371  0.2907  0.6448 -0.1954
26415SOL    HW181783   0.079   0.928   0.348  0.6053 -0.5278  0.6381
26415SOL    HW281784   0.197   0.912   0.441 -0.2120  3.5668  2.4664
26416SOL     OW81785   6.710   3.304   2.971  0.0671 -0.3595  0.1276
26416SOL    HW181786   6.747   3.294   3.059  2.0663 -0.8283 -0.7243
26416SOL    HW281787   6.745   3.389   2.941 -0.7555 -0.1145 -0.1486
26417SOL     OW81788   0.451   5.385   0.846  0.2176  0.0121  0.1823
26417SOL    HW181789   0.372   5.423   0.809 -0.7390 -0.5201  1.6549
26417SOL    HW281790   0.476   5.444   0.917  0.2397 -0.6713  0.7513
26418SOL     OW81791   1.354   3.546   6.922 -0.1128  0.1138 -0.1612
26418SOL    HW181792   1.367   3.617   6.985  1.5720 -0.2625 -0.0555
26418SOL    HW281793   1.393   3.579   6.841  0.5768 -0.6483 -0.1385
26419SOL     OW81794   0.477   4.911   3.506 -0.0353  0.0310 -0.2009
26419SOL    HW181795   0.572   4.918   3.503 -0.0251 -0.1468 -0.2872
26419SOL    HW281796   0.459   4.817   3.499 -0.1868  0.0006  0.4829
26420SOL     OW81797   8.554   9.663   0.153 -0.3169 -0.6851  0.4788
26420SOL    HW181798   8.519   9.614   0.227 -0.0991  0.8828  1.6418
26420SOL    HW281799   8.492   9.647   0.082 -0.9247 -1.6002  1.2038
26421SOL     OW81800   7.005   7.373   9.971  0.8623  0.3067 -0.8047
26421SOL    HW181801   7.048   7.453   9.941  0.9534  1.2280  1.6927
26421SOL    HW281802   7.064   7.338  10.038 -0.8560 -0.0075  0.5499
26422SOL     OW81803   7.134   4.579   7.965  0.2514  0.8801 -0.2074
26422SOL    HW181804   7.093   4.655   8.007 -0.9039 -0.6741  1.5821
26422SOL    HW281805   7.212   4.562   8.018 -0.8031 -0.6245  0.9260
26423SOL     OW81806   4.122   4.564   4.179 -0.4015  0.1407 -0.5248
26423SOL    HW181807   4.043   4.553   4.127 -1.0770  0.9611  0.3167
26423SOL    HW281808   4.095   4.550   4.270  0.7582 -1.2196 -0.3610
26424SOL     OW81809   7.611   0.031   1.892 -0.4281  0.1784 -0.0884
26424SOL    HW181810   7.660   0.082   1.827 -0.2141 -1.0895 -0.9490
26424SOL    HW281811   7.541  -0.011   1.842 -0.9737  0.1252  0.7143
26425SOL     OW81812   8.207   7.703   3.920 -0.1160  0.2493 -0.2523
26425SOL    HW181813   8.174   7.742   3.838 -0.4896 -0.7743 -0.6000
26425SOL    HW281814   8.138   7.720   3.983  0.2888  1.2782 -0.0679
26426SOL     OW81815   5.080   5.470  10.185 -0.0670 -0.3658 -0.9491
26426SOL    HW181816   4.995   5.453  10.144 -0.5314 -0.8110  0.1627
26426SOL    HW281817   5.108   5.385  10.219  0.6127 -0.1369 -0.9284
26427SOL     OW81818   8.324   8.645   2.779  0.4983  0.8239 -0.2160
26427SOL    HW181819   8.279   8.567   2.746  0.0551  0.5642  0.9777
26427SOL    HW281820   8.335   8.628   2.872  1.9384  1.4564 -0.2615
26428SOL     OW81821   7.179   0.206   5.229  0.7685 -0.1544 -0.1389
26428SOL    HW181822   7.265   0.228   5.267  0.2645 -2.3167  2.3694
26428SOL    HW281823   7.198   0.134   5.168  0.9846  0.6962 -1.1047
26429SOL     OW81824   0.117   2.902   3.339 -0.4186  0.2322 -0.1691
26429SOL    HW181825   0.055   2.962   3.298 -0.7404 -0.0315 -0.0656
26429SOL    HW281826   0.065   2.852   3.402  0.1358  0.8688  0.8158
26430SOL     OW81827   9.565   5.610   9.592 -0.0542 -0.7513 -0.2461
26430SOL    HW181828   9.531   5.680   9.535 -0.2607  0.2460  1.0739
26430SOL    HW281829   9.529   5.530   9.555 -1.9859  0.0836 -0.2382
26431SOL     OW81830   0.883   3.641   2.907 -0.5309 -0.2390  0.0722
26431SOL    HW181831   0.792   3.651   2.932 -1.1248  0.5244 -2.2868
26431SOL    HW281832   0.887   3.672   2.816  2.5730  2.1469  0.9478
26432SOL     OW81833   6.737   5.647   5.418 -0.1306 -0.3388  0.0058
26432SOL    HW181834   6.809   5.587   5.435 -0.2765 -0.5204 -0.0183
26432SOL    HW281835   6.775   5.715   5.362  0.2875  0.1244  0.8318
26433SOL     OW81836   0.927   3.339   4.468  0.1616  0.1641  0.2852
26433SOL    HW181837   0.965   3.317   4.553  0.1312 -0.2880  0.1806
26433SOL    HW281838   0.843   3.382   4.489  0.9388  1.5944  0.5298
26434SOL     OW81839   0.517   4.288   6.072  0.3590 -0.1637 -0.2929
26434SOL    HW181840   0.578   4.224   6.034  0.0689  0.6330 -2.1572
26434SOL    HW281841   0.572   4.344   6.127  0.7315 -1.5402  0.7761
26435SOL     OW81842   4.708   4.967   0.083  0.1942 -0.3005  0.3647
26435SOL    HW181843   4.632   4.912   0.099  0.5432 -0.6277  0.9096
26435SOL    HW281844   4.683   5.020   0.007 -1.6895  1.6845  2.3137
26436SOL     OW81845   8.215   7.491   8.968 -0.7884  0.0014  0.4495
26436SOL    HW181846   8.278   7.421   8.985 -0.9480  0.1520  1.7425
26436SOL    HW281847   8.133   7.446   8.951 -0.6638 -0.1569  0.2650
26437SOL     OW81848   6.514   9.224   7.806  0.3056 -0.3762  0.2887
26437SOL    HW181849   6.588   9.165   7.821 -0.0169 -0.6444  0.8129
26437SOL    HW281850   6.499   9.219   7.711  2.3573  1.3611 -0.1575
26438SOL     OW81851   0.309   5.796   9.926  0.1604 -0.0745 -0.8485
26438SOL    HW181852   0.400   5.816   9.905  0.4025  2.1182  1.9938
26438SOL    HW281853   0.278   5.872   9.975 -3.1395 -0.8939 -1.5337
26439SOL     OW81854   1.405   0.133   5.681 -0.1324 -0.5106  0.4930
26439SOL    HW181855   1.417   0.183   5.600 -1.6491 -1.0879 -0.1205
26439SOL    HW281856   1.491   0.095   5.699  0.1260 -0.7205 -1.1069
26440SOL     OW81857   7.903   8.774   4.838 -0.0248 -0.1844  0.6658
26440SOL    HW181858   7.874   8.808   4.753 -0.1460  2.1954  1.6306
26440SOL    HW281859   7.844   8.701   4.856  0.2384 -0.9499 -1.4742
26441SOL     OW81860   6.361   9.003   5.122 -0.9611 -0.1177  0.1739
26441SOL    HW181861   6.351   9.080   5.066  0.1910 -0.3220 -0.3114
26441SOL    HW281862   6.343   8.929   5.064  2.1109 -0.4461 -0.4471
26442SOL     OW81863   9.728   4.196   9.334  0.5735 -0.4633 -0.6884
26442SOL    HW181864   9.712   4.249   9.412  2.4235  0.4268 -0.8686
26442SOL    HW281865   9.693   4.249   9.262 -0.0261 -0.7259 -0.5921
26443SOL     OW81866   0.586   2.116   6.345  0.3508  0.2627  0.4795
26443SOL    HW181867   0.592   2.069   6.262  0.0813  0.6234  0.2538
26443SOL    HW281868   0.519   2.069   6.395  0.5405  0.0230  0.5091
26444SOL     OW81869   3.953   0.403   7.651 -0.1845  0.9286 -0.0704
26444SOL    HW181870   3.866   0.395   7.690 -0.0330  1.9630  0.5000
26444SOL    HW281871   3.944   0.474   7.587 -0.4665 -0.8559 -2.0552
26445SOL     OW81872   1.420   7.672   5.948  0.1821 -0.6459 -0.0535
26445SOL    HW181873   1.507   7.662   5.908 -0.7167 -1.4702 -1.8622
26445SOL    HW281874   1.429   7.747   6.006  2.1969 -0.9250  0.0425
26446SOL     OW81875   3.344   0.733   5.637  0.0206 -0.0250 -0.0976
26446SOL    HW181876   3.264   0.779   5.661 -0.5439 -0.4402 -1.1099
26446SOL    HW281877   3.346   0.656   5.694 -1.6345 -1.3398 -1.7171
26447SOL     OW81878   0.618   1.022   6.771  0.3718 -0.0853  0.1621
26447SOL    HW181879   0.531   1.050   6.798  0.7485  0.6866  0.6150
26447SOL    HW281880   0.633   1.067   6.688  0.0719 -0.7513 -0.2540
26448SOL     OW81881   5.577   2.320   5.948 -0.6960 -0.4080  0.0878
26448SOL    HW181882   5.616   2.346   6.031 -1.3156 -1.8611  0.8610
26448SOL    HW281883   5.610   2.231   5.933  0.4018  0.2983 -1.8618
26449SOL     OW81884   2.679   0.540   4.747 -0.5338 -0.2343  0.1509
26449SOL    HW181885   2.734   0.465   4.773 -0.9893 -0.9040 -0.7988
26449SOL    HW281886   2.623   0.555   4.823 -0.8575 -1.2573  0.1266
26450SOL     OW81887   4.370   3.074   4.453  0.7654  0.0974 -0.2389
26450SOL    HW181888   4.320   3.088   4.533  1.3961  0.7068  0.0571
26450SOL    HW281889   4.414   2.990   4.465  2.0079  0.8536  0.6776
26451SOL     OW81890   5.580   9.792   7.233 -0.4796 -0.3635 -0.0811
26451SOL    HW181891   5.630   9.753   7.305  0.2181 -1.6178 -1.2216
26451SOL    HW281892   5.624   9.876   7.216 -1.1953  0.3580  1.5263
26452SOL     OW81893   5.654   6.944   1.004 -0.2796 -0.2514 -0.2005
26452SOL    HW181894   5.699   6.973   0.925  0.0234 -0.8864 -0.2609
26452SOL    HW281895   5.562   6.965   0.989 -0.0096  1.1005 -0.0587
26453SOL     OW81896  10.127   2.339   0.758 -0.4903 -0.7092 -0.1743
26453SOL    HW181897  10.207   2.290   0.736 -1.0335 -1.3528 -0.7473
26453SOL    HW281898  10.092   2.367   0.674  0.4250  1.6966  0.2047
26454SOL     OW81899   7.161   4.004  10.180  0.3727  0.0884 -0.3363
26454SOL    HW181900   7.191   3.913  10.179 -0.3498 -0.2116  2.2413
26454SOL    HW281901   7.066   3.998  10.193  0.3709  1.1981  0.2614
26455SOL     OW81902   7.015   2.427   2.781 -0.4042 -0.6585  0.2520
26455SOL    HW181903   7.040   2.403   2.691  1.4195 -1.7500  1.0312
26455SOL    HW281904   7.017   2.522   2.781  0.9081 -0.6730 -0.5157
26456SOL     OW81905   2.052   6.547   2.049 -0.1918 -0.0725  0.1804
26456SOL    HW181906   1.996   6.537   1.972 -0.5834 -0.6540  0.5346
26456SOL    HW281907   2.115   6.615   2.024 -0.2292 -0.3486 -0.6952
26457SOL     OW81908   1.241   2.882   0.429  0.1754  0.4657 -0.1232
26457SOL    HW181909   1.314   2.923   0.476 -0.7395  0.4169  1.3857
26457SOL    HW281910   1.276   2.863   0.342  1.3845  2.1656 -0.0407
26458SOL     OW81911   6.627   9.994   0.907  0.0918  0.3182 -0.1107
26458SOL    HW181912   6.618   9.903   0.879 -1.5726 -0.0177  1.3898
26458SOL    HW281913   6.581  10.044   0.840 -2.2971 -0.3204  0.9772
26459SOL     OW81914   8.157   4.321   8.019 -0.3637  0.0607 -0.1187
26459SOL    HW181915   8.233   4.371   8.050 -0.3021  0.7959 -1.4297
26459SOL    HW281916   8.183   4.290   7.932 -0.8079 -1.3732  0.2458
26460SOL     OW81917   6.550   9.910   3.189 -0.9253  0.3091 -0.5245
26460SOL    HW181918   6.635   9.915   3.232 -1.0693 -1.0164 -0.0465
26460SOL    HW281919   6.512   9.997   3.199  0.4475  0.9607 -0.9053
26461SOL     OW81920   3.421   0.791   3.833 -0.0188 -0.3040 -0.2673
26461SOL    HW181921   3.503   0.758   3.797  1.2535  2.1975  0.2641
26461SOL    HW281922   3.359   0.719   3.821  2.0782 -1.9885 -1.2562
26462SOL     OW81923   3.068   6.775   5.926 -0.2490  0.3447 -0.4330
26462SOL    HW181924   3.090   6.687   5.896  0.6546  0.1225  0.8649
26462SOL    HW281925   2.972   6.777   5.925 -0.2760 -0.7171 -0.2717
26463SOL     OW81926   5.228   0.469   9.380  0.5283 -0.3179  0.7356
26463SOL    HW181927   5.137   0.498   9.388 -0.0322 -1.1255 -2.3332
26463SOL    HW281928   5.224   0.374   9.386  0.7927 -0.5552 -2.2234
26464SOL     OW81929   1.555   7.071   0.739  0.1482  0.1434  0.4351
26464SOL    HW181930   1.618   7.080   0.809  0.5678 -1.0858  0.2193
26464SOL    HW281931   1.537   7.161   0.711 -0.5517  0.6849  2.5633
26465SOL     OW81932   9.856   9.446   3.780  0.0775 -0.1459  0.3796
26465SOL    HW181933   9.901   9.463   3.863 -0.3024 -0.9600  0.7559
26465SOL    HW281934   9.764   9.434   3.804 -0.4621  2.0951 -0.4487
26466SOL     OW81935   9.156   9.972   9.634  0.3241  0.0619  0.2758
26466SOL    HW181936   9.146   9.988   9.727  0.3786 -0.4433  0.3713
26466SOL    HW281937   9.133   9.879   9.622 -0.6591  0.3789 -0.3665
26467SOL     OW81938   5.165   3.740   3.079  0.1534  0.4204  0.5296
26467SOL    HW181939   5.186   3.681   3.151 -0.5555  0.0903  0.4719
26467SOL    HW281940   5.112   3.809   3.121 -0.6640 -0.0251  0.2473
26468SOL     OW81941   2.336   0.489   7.628 -0.4796 -0.9961  0.2977
26468SOL    HW181942   2.356   0.508   7.719  0.2376  1.1440 -0.2655
26468SOL    HW281943   2.416   0.451   7.592  0.5002  1.5639 -0.3291
26469SOL     OW81944   5.285   6.415   4.237  0.1737 -0.3833 -0.2184
26469SOL    HW181945   5.205   6.447   4.193 -1.6032  0.3334  3.3588
26469SOL    HW281946   5.272   6.321   4.246  0.8586 -0.6419 -1.7876
26470SOL     OW81947   1.165   9.211   0.844 -0.3792  0.4638  0.4330
26470SOL    HW181948   1.149   9.302   0.816 -1.8981  0.2891  0.7336
26470SOL    HW281949   1.255   9.213   0.878 -0.2574  1.7643  0.0824
26471SOL     OW81950   5.758   4.587   6.459  0.2631  0.2182  0.1165
26471SOL    HW181951   5.746   4.594   6.554  2.4196  2.5336  0.2862
26471SOL    HW281952   5.675   4.615   6.422 -0.3953 -0.1139  1.2998
26472SOL     OW81953   9.629   4.633   9.382 -0.3979 -0.0038  0.7150
26472SOL    HW181954   9.586   4.595   9.458  1.6273 -2.4099  0.7242
26472SOL    HW281955   9.723   4.624   9.400  0.1232  0.8885 -1.3422
26473SOL     OW81956   3.230   7.222   5.165  0.3787  0.5008 -0.2329
26473SOL    HW181957   3.317   7.182   5.157  0.6605  0.7545  1.4734
26473SOL    HW281958   3.170   7.148   5.169  0.6450  0.3041  0.0839
26474SOL     OW81959   0.235   2.347   3.924  0.2929 -0.0251 -0.5593
26474SOL    HW181960   0.276   2.315   3.843  1.0158 -0.5717  0.0206
26474SOL    HW281961   0.277   2.297   3.994  0.6327  1.3854  0.2671
26475SOL     OW81962   3.712   2.502   7.649  0.0345 -0.5020 -0.0204
26475SOL    HW181963   3.617   2.487   7.651 -0.2683  1.3530  0.5605
26475SOL    HW281964   3.736   2.490   7.558 -0.9468  0.0578 -0.3646
26476SOL     OW81965   3.365   0.517  10.007  0.1255  0.2234  0.2892
26476SOL    HW181966   3.357   0.608   9.976  1.1085  0.3637  0.4354
26476SOL    HW281967   3.352   0.464   9.929  3.1916  0.5870 -0.5360
26477SOL     OW81968   1.032   7.557   3.618  1.0641 -0.3119 -0.2078
26477SOL    HW181969   0.943   7.556   3.654  0.3864  0.4594 -1.8218
26477SOL    HW281970   1.082   7.608   3.681 -0.5381  2.6970 -1.3086
26478SOL     OW81971   1.995   0.056   9.475  0.7770 -0.1721 -0.0958
26478SOL    HW181972   1.942   0.001   9.533  0.2893  1.9446  1.5246
26478SOL    HW281973   2.084   0.046   9.508  0.6496  0.1924  0.3736
26479SOL     OW81974   7.710   1.325   3.324  0.1413 -0.3303 -0.0661
26479SOL    HW181975   7.697   1.389   3.255 -0.9255 -0.8363 -0.3495
26479SOL    HW281976   7.624   1.284   3.336  0.1394  0.2006  2.0146
26480SOL     OW81977   4.424   9.534   2.628  0.0554 -0.5738 -0.0281
26480SOL    HW181978   4.463   9.609   2.672  1.0032 -0.6431 -0.7402
26480SOL    HW281979   4.497   9.473   2.614 -0.5642 -1.3034 -0.1166
26481SOL     OW81980   7.129   2.263   1.129  0.1431 -0.4749  0.2438
26481SOL    HW181981   7.216   2.225   1.132  0.5880  0.5484  0.4301
26481SOL    HW281982   7.121   2.298   1.040  0.5403  0.8417  0.7094
26482SOL     OW81983   3.409   7.542   4.291  0.5280  0.0857  0.0329
26482SOL    HW181984   3.415   7.635   4.312 -1.0697  0.1012  0.4919
26482SOL    HW281985   3.494   7.505   4.317  1.4704  1.5455 -0.8998
26483SOL     OW81986   1.606   6.269   2.093  0.2024 -0.5394 -0.1893
26483SOL    HW181987   1.650   6.334   2.148 -0.3726 -1.3083  1.2157
26483SOL    HW281988   1.550   6.220   2.154 -3.8314  1.3991 -2.1191
26484SOL     OW81989   6.184   7.802   0.727 -0.2928  0.3518 -0.1532
26484SOL    HW181990   6.213   7.842   0.809  0.0037 -0.2048  0.0141
26484SOL    HW281991   6.261   7.758   0.693 -0.5610  0.1135 -0.4534
26485SOL     OW81992   6.120   6.059   0.805 -0.3255 -0.3434 -0.1968
26485SOL    HW181993   6.060   6.034   0.735 -1.5993 -1.0129  1.1014
26485SOL    HW281994   6.063   6.081   0.878  0.9664  0.9586  0.4513
26486SOL     OW81995   7.677   0.617   4.617 -0.3422 -0.0695 -0.1568
26486SOL    HW181996   7.772   0.613   4.630 -0.3070 -0.7093 -0.6314
26486SOL    HW281997   7.647   0.678   4.684  0.2961 -0.5495  0.5720
26487SOL     OW81998   1.121   4.264   8.040 -1.1949 -0.5799  0.3474
26487SOL    HW181999   1.141   4.181   8.083 -0.5813 -0.7843 -0.3336
26487SOL    HW282000   1.204   4.311   8.039 -1.7040  0.3765  1.4280
26488SOL     OW82001   6.754   7.837   8.949  0.4400 -0.0457 -0.1416
26488SOL    HW182002   6.714   7.751   8.962  0.6116 -0.1463 -0.2760
26488SOL    HW282003   6.712   7.872   8.871  0.7477 -0.2307 -0.3924
26489SOL     OW82004   0.686   8.066   3.465 -0.3614 -0.1631 -0.8577
26489SOL    HW182005   0.652   7.982   3.436  0.0929  0.4488 -3.2756
26489SOL    HW282006   0.768   8.077   3.417 -0.9648  2.1454 -1.4607
26490SOL     OW82007  10.037   1.651   2.056  0.2936 -0.3250  0.5567
26490SOL    HW182008  10.082   1.721   2.104 -0.5377  0.8171 -0.3238
26490SOL    HW282009   9.968   1.622   2.116 -0.3190  0.6487  0.3401
26491SOL     OW82010   6.334   7.635   4.239 -0.1067 -0.6001 -0.2784
26491SOL    HW182011   6.294   7.673   4.317  3.2819  1.0542  0.7738
26491SOL    HW282012   6.274   7.658   4.168 -2.0867 -0.1142  1.5097
26492SOL     OW82013   2.370   3.101   4.521  0.4666  0.3844  0.4087
26492SOL    HW182014   2.409   3.055   4.447  0.2517  1.2341 -0.2371
26492SOL    HW282015   2.439   3.104   4.587  1.3213  1.3985 -0.5240
26493SOL     OW82016   8.745   5.989   7.394 -0.3621 -0.3645 -0.1955
26493SOL    HW182017   8.772   6.075   7.360  1.0319 -1.1328 -1.1201
26493SOL    HW282018   8.651   5.985   7.377 -0.1952  0.4355 -1.4404
26494SOL     OW82019   9.586   6.156   6.804 -0.6081  0.0769  0.2488
26494SOL    HW182020   9.645   6.131   6.876 -3.5636 -0.1828  2.6744
26494SOL    HW282021   9.600   6.250   6.794  0.7254 -0.0997  0.2899
26495SOL     OW82022   4.064   7.960   8.228 -0.1577 -0.0686  0.4962
26495SOL    HW182023   4.074   7.956   8.133  1.5781  2.7604  0.4987
26495SOL    HW282024   4.153   7.972   8.262 -0.9258  0.7957  2.3207
26496SOL     OW82025   4.405   6.491   8.074 -0.2352 -0.1413 -0.1280
26496SOL    HW182026   4.488   6.519   8.112 -0.6367 -0.7694  1.2198
26496SOL    HW282027   4.423   6.486   7.980  1.0425  0.4381  0.0716
26497SOL     OW82028   7.416   2.500   7.668 -0.0529 -0.3552  0.4070
26497SOL    HW182029   7.432   2.412   7.703 -1.6207  0.0034  2.0673
26497SOL    HW282030   7.426   2.558   7.744 -3.2529  0.4630  0.2535
26498SOL     OW82031   8.526   4.516   4.566  0.0239 -0.0205 -0.3091
26498SOL    HW182032   8.447   4.471   4.597  0.2765  0.0715  0.4575
26498SOL    HW282033   8.586   4.515   4.640  1.8718 -2.6115 -1.7432
26499SOL     OW82034   5.920   2.859   5.268  0.2977 -0.2446 -0.3637
26499SOL    HW182035   5.966   2.899   5.341  1.4991 -0.1652 -1.1452
26499SOL    HW282036   5.913   2.928   5.202 -1.3562 -0.1219 -0.0888
26500SOL     OW82037   8.796   2.268   6.958  0.0523  0.0028 -0.2280
26500SOL    HW182038   8.782   2.187   7.006  1.9472 -1.2525 -1.6672
26500SOL    HW282039   8.722   2.274   6.898  1.2479 -2.1403 -1.9982
26501SOL     OW82040   0.828   1.786   3.455  0.3343  0.0622 -0.1559
26501SOL    HW182041   0.777   1.727   3.509  0.8949 -0.7698 -0.5220
26501SOL    HW282042   0.817   1.872   3.496 -1.3585 -0.1040 -0.2556
26502SOL     OW82043   1.377   8.393   9.105 -0.3501  0.1551  0.5742
26502SOL    HW182044   1.466   8.372   9.079 -0.0734 -1.2277  2.4913
26502SOL    HW282045   1.354   8.470   9.053  1.7498  0.1978 -0.3418
26503SOL     OW82046   2.881   8.464   2.799 -0.2852  0.3452 -0.6453
26503SOL    HW182047   2.907   8.462   2.892  1.5024  1.5497 -1.1059
26503SOL    HW282048   2.828   8.385   2.788 -0.0882 -0.0868  1.2849
26504SOL     OW82049   1.428   8.939   2.844  0.1098  0.6839 -0.0456
26504SOL    HW182050   1.417   8.893   2.928 -0.3209  0.3477 -0.2818
26504SOL    HW282051   1.483   8.881   2.792 -2.5782 -0.8692 -1.3028
26505SOL     OW82052   7.602   0.184   6.904  0.0036  0.1619 -0.0890
26505SOL    HW182053   7.582   0.098   6.941  0.0019  0.2774  0.1830
26505SOL    HW282054   7.516   0.222   6.886 -0.0108  0.3662  0.3985
26506SOL     OW82055   9.489   6.446   1.131 -0.2098 -0.5737  0.2263
26506SOL    HW182056   9.482   6.447   1.227  1.1844 -1.1534  0.3534
26506SOL    HW282057   9.583   6.440   1.115 -0.3997  0.1974 -1.1931
26507SOL     OW82058   9.671   6.924   5.846 -0.6798 -0.8957 -0.4156
26507SOL    HW182059   9.747   6.878   5.883 -0.3381  1.2694  1.6788
26507SOL    HW282060   9.708   6.977   5.775  0.4320  2.8138  2.8040
26508SOL     OW82061   7.906   1.529   8.195 -0.2505 -0.0569  0.2287
26508SOL    HW182062   7.936   1.580   8.271 -0.5561 -1.5129  1.3499
26508SOL    HW282063   7.950   1.444   8.204  1.8441  0.6490 -2.7358
26509SOL     OW82064   7.206   7.171   5.396 -0.0375  0.2988  0.1270
26509SOL    HW182065   7.134   7.173   5.333 -0.5894 -0.3198  0.7185
26509SOL    HW282066   7.260   7.096   5.370 -0.5228 -0.2434  0.6519
26510SOL     OW82067   2.185   1.161   8.101 -0.7280 -0.1447 -0.4441
26510SOL    HW182068   2.216   1.249   8.080 -3.0893  0.6856 -0.6297
26510SOL    HW282069   2.133   1.173   8.181  0.0967 -1.6280  0.3324
26511SOL     OW82070   2.274   3.536   5.315  0.2643 -0.4045  0.3960
26511SOL    HW182071   2.256   3.595   5.388  1.0720  0.4316 -0.0784
26511SOL    HW282072   2.289   3.593   5.240 -0.0605 -1.2426 -0.3274
26512SOL     OW82073   0.577   3.600   6.331  0.0811 -0.5338  0.0590
26512SOL    HW182074   0.671   3.616   6.345  0.6441 -3.3148 -0.2364
26512SOL    HW282075   0.568   3.593   6.236 -0.7666  1.4714 -0.0338
26513SOL     OW82076   3.598   1.524   6.403 -0.2830 -0.8467 -0.1125
26513SOL    HW182077   3.614   1.560   6.316 -0.9265 -0.8681 -0.2484
26513SOL    HW282078   3.507   1.548   6.421 -0.0517 -0.5710  0.6897
26514SOL     OW82079   8.965   7.682   5.950  0.3686  0.3491  0.0247
26514SOL    HW182080   9.057   7.674   5.974  0.2016 -0.5252  0.4151
26514SOL    HW282081   8.948   7.604   5.896 -0.2397  0.2871  0.2977
26515SOL     OW82082   4.003   9.811   8.427 -0.5190 -0.2994 -0.4542
26515SOL    HW182083   3.995   9.896   8.471  1.6020 -0.8412  1.0439
26515SOL    HW282084   4.056   9.759   8.487 -2.3759 -2.9282 -1.0087
26516SOL     OW82085   0.673   3.885   1.192 -0.3288 -0.3915  0.2242
26516SOL    HW182086   0.658   3.827   1.117 -1.7668 -0.9237  0.9043
26516SOL    HW282087   0.613   3.853   1.259  1.0144  0.0269  1.6486
26517SOL     OW82088   2.547   5.014  10.094 -0.0141  0.2056  0.5923
26517SOL    HW182089   2.569   4.993  10.185 -0.7167 -0.4674  0.6123
26517SOL    HW282090   2.520   4.930  10.056 -0.4051  0.6154 -0.0431
26518SOL     OW82091   1.720   1.988   3.308  0.0920  0.2011 -0.7714
26518SOL    HW182092   1.694   2.079   3.323  2.0206  0.5821  0.3287
26518SOL    HW282093   1.675   1.964   3.227 -1.6210  1.6499 -0.2990
26519SOL     OW82094   8.512   3.285   6.414  0.4755  0.0319 -0.0762
26519SOL    HW182095   8.567   3.216   6.452  0.1108 -1.1415 -1.6452
26519SOL    HW282096   8.451   3.308   6.484  1.3478 -0.4082  0.8471
26520SOL     OW82097   7.702   5.569   9.915 -0.0893 -0.6552 -0.0579
26520SOL    HW182098   7.756   5.584   9.838  0.0851 -2.5849 -0.3526
26520SOL    HW282099   7.643   5.644   9.919  0.6742  0.0269 -1.4051
26521SOL     OW82100   8.457   9.181   7.082 -0.4894  0.3054  0.4594
26521SOL    HW182101   8.409   9.105   7.049 -1.7998  1.4112 -0.2541
26521SOL    HW282102   8.535   9.185   7.027 -1.0769  0.2582 -0.3888
26522SOL     OW82103   9.393   3.001   2.017 -0.3917  0.3632 -0.4878
26522SOL    HW182104   9.367   2.960   1.935 -1.5645 -0.2606  0.1900
26522SOL    HW282105   9.439   2.931   2.065  0.1822  0.6910 -0.5509
26523SOL     OW82106   7.442   6.927   6.306  0.2175 -0.2977 -0.1944
26523SOL    HW182107   7.395   6.991   6.360  1.8086  1.1046 -0.4252
26523SOL    HW282108   7.461   6.855   6.366 -1.8254 -0.7267  0.0057
26524SOL     OW82109   9.135   8.922   5.274 -0.0394  0.3417 -0.0552
26524SOL    HW182110   9.158   8.915   5.182 -0.7496 -0.1929 -0.1863
26524SOL    HW282111   9.208   8.972   5.313  0.4771  0.1737 -0.8104
26525SOL     OW82112   5.362   9.635   9.163 -0.0194 -0.3634  0.5674
26525SOL    HW182113   5.324   9.590   9.087  0.2007  0.2798  0.0724
26525SOL    HW282114   5.288   9.648   9.222 -0.5673  0.7939 -0.3555
26526SOL     OW82115   2.758   1.651   7.361 -0.4519  0.0065 -0.3392
26526SOL    HW182116   2.834   1.592   7.357 -0.4448  0.1045 -2.0976
26526SOL    HW282117   2.744   1.665   7.454  1.2695 -0.5707  0.0324
26527SOL     OW82118   9.035   3.125   0.777 -0.5194 -0.1132 -0.0150
26527SOL    HW182119   9.006   3.216   0.783  0.2580  0.0753  1.2151
26527SOL    HW282120   9.119   3.124   0.822 -0.6348 -1.4884  0.2023
26528SOL     OW82121   3.425   8.017   3.499  0.3422 -0.3661 -0.3788
26528SOL    HW182122   3.411   7.949   3.434  1.0332 -0.4539 -0.4369
26528SOL    HW282123   3.489   8.076   3.459  2.4695 -1.6314  1.1078
26529SOL     OW82124   3.327   1.943   8.028  0.0684  0.5220  0.1426
26529SOL    HW182125   3.364   2.030   8.014 -0.9806  0.9482 -0.0854
26529SOL    HW282126   3.319   1.906   7.940 -1.8777  1.2328 -0.0265
26530SOL     OW82127   2.759   9.000   0.979  0.3196  0.2166  0.1286
26530SOL    HW182128   2.797   9.066   1.036  0.6155  0.6993 -0.6333
26530SOL    HW282129   2.834   8.957   0.938  0.0887  0.2380 -0.3158
26531SOL     OW82130   7.808   0.599   2.192 -0.2125 -0.6546 -0.1226
26531SOL    HW182131   7.829   0.558   2.276  0.1011 -0.2692 -0.0114
26531SOL    HW282132   7.712   0.602   2.190 -0.2341 -1.1684 -0.0252
26532SOL     OW82133   9.295   5.364   0.613 -0.3668  0.1578 -0.2591
26532SOL    HW182134   9.330   5.439   0.566 -0.1562  1.0197  1.2206
26532SOL    HW282135   9.216   5.396   0.656  0.6589  0.0456  1.7974
26533SOL     OW82136   7.949   4.510   7.696  0.2610 -0.0542 -0.5122
26533SOL    HW182137   7.879   4.559   7.653  0.8090 -0.0994 -1.4623
26533SOL    HW282138   7.909   4.426   7.718  0.5327 -0.7665 -2.6813
26534SOL     OW82139   1.859   8.809   2.086  0.0129  0.0682 -0.1685
26534SOL    HW182140   1.794   8.877   2.069  0.1269  0.2840  0.2598
26534SOL    HW282141   1.850   8.749   2.012  0.3076  0.8489 -0.8467
26535SOL     OW82142   4.951   5.972   8.729  0.1814 -0.4223  0.2546
26535SOL    HW182143   4.998   6.009   8.654 -1.5347  0.9739 -0.1717
26535SOL    HW282144   5.004   5.996   8.805  0.6652  0.2955 -0.3006
26536SOL     OW82145   9.948   1.448   2.585 -0.9512 -0.0813  0.7928
26536SOL    HW182146   9.916   1.459   2.495  0.3136 -1.5153  0.1478
26536SOL    HW282147   9.916   1.526   2.631 -0.5872  1.2968 -1.1926
26537SOL     OW82148   7.080   2.670   4.307 -0.6693  0.2129  0.2791
26537SOL    HW182149   6.994   2.691   4.270 -0.1377  0.2829 -0.9666
26537SOL    HW282150   7.061   2.619   4.386 -1.8531 -0.7085 -0.5775
26538SOL     OW82151   5.847   7.186   1.611  0.3864 -0.6597  0.0500
26538SOL    HW182152   5.761   7.147   1.591 -0.7791  1.0043  1.6805
26538SOL    HW282153   5.861   7.249   1.540 -0.8493  0.7556  1.0462
26539SOL     OW82154   3.362   6.403   2.102 -0.1283 -0.4705  0.0095
26539SOL    HW182155   3.409   6.425   2.021  0.0991  0.8816  0.4911
26539SOL    HW282156   3.308   6.480   2.120 -2.2611 -1.8590 -0.3294
26540SOL     OW82157   1.853   4.152   8.794 -0.3463  0.4711 -0.2610
26540SOL    HW182158   1.799   4.229   8.778 -0.4409  0.6679  0.9864
26540SOL    HW282159   1.805   4.080   8.753 -0.8003  0.8877 -0.4643
26541SOL     OW82160   3.791   9.564   0.122 -0.2393 -0.5387  0.7712
26541SOL    HW182161   3.753   9.506   0.188  0.4134 -0.8616  0.8592
26541SOL    HW282162   3.752   9.535   0.040 -0.6348 -0.4884  0.9359
26542SOL     OW82163   8.098   1.683   7.792  0.0462 -0.2837  0.3234
26542SOL    HW182164   8.073   1.654   7.704  0.4016 -0.0591  0.1454
26542SOL    HW282165   8.046   1.629   7.851  1.0797 -1.6606  0.0030
26543SOL     OW82166   0.257   6.436   8.371 -0.3256 -0.1266  0.2424
26543SOL    HW182167   0.165   6.410   8.368 -0.8546  1.6530  0.4455
26543SOL    HW282168   0.286   6.413   8.459 -0.8156  0.0453  0.4487
26544SOL     OW82169   3.965   1.366   1.098 -0.1770 -0.6778 -0.2808
26544SOL    HW182170   3.916   1.413   1.166 -0.2022 -1.0001 -0.0731
26544SOL    HW282171   3.997   1.434   1.040  3.3076 -0.0163  2.2786
26545SOL     OW82172   9.486   1.764   3.847 -0.2973 -0.0870  0.0398
26545SOL    HW182173   9.571   1.782   3.889  0.5125 -1.5459 -0.9484
26545SOL    HW282174   9.470   1.840   3.791 -0.5945  1.1064  1.6840
26546SOL     OW82175  10.040   3.397   7.314 -0.0636  0.3729  0.6886
26546SOL    HW182176  10.064   3.459   7.246  3.3026 -2.8603 -1.2961
26546SOL    HW282177  10.079   3.431   7.394 -0.2755  1.9469  0.1338
26547SOL     OW82178   0.587   8.987   0.040  0.4813 -0.0472 -0.2188
26547SOL    HW182179   0.615   8.921  -0.023  0.0350  0.3966 -0.8842
26547SOL    HW282180   0.664   9.041   0.056  0.8136 -0.6441  0.2309
26548SOL     OW82181   9.789   1.982   5.633  0.6543 -0.0715  0.1507
26548SOL    HW182182   9.726   2.025   5.691 -0.6336 -1.8449  0.1278
26548SOL    HW282183   9.864   2.041   5.630 -1.3555  2.5467 -0.5106
26549SOL     OW82184   3.296   1.482   6.670 -0.3207  0.4918  0.1436
26549SOL    HW182185   3.306   1.388   6.657  0.4993  0.4833  0.8340
26549SOL    HW282186   3.303   1.519   6.582  2.0291  0.1404  0.1640
26550SOL     OW82187   6.198   2.582   4.337  0.3884 -0.4021 -0.0233
26550SOL    HW182188   6.146   2.528   4.277  1.5606 -0.2485 -1.1861
26550SOL    HW282189   6.137   2.604   4.408 -0.4858 -2.1485 -0.1917
26551SOL     OW82190   6.635   9.126   2.931 -0.3923 -0.6919  0.4840
26551SOL    HW182191   6.559   9.112   2.987 -0.1071  1.0054  1.3342
26551SOL    HW282192   6.710   9.099   2.985 -0.3411 -1.8949 -0.1733
26552SOL     OW82193   3.850   2.586   5.970 -0.0608 -0.1115 -0.5072
26552SOL    HW182194   3.823   2.661   5.917 -1.6454 -2.0374 -2.5314
26552SOL    HW282195   3.777   2.525   5.964  1.1185 -1.7463  1.2614
26553SOL     OW82196   8.209   4.706   8.722  0.2059  0.1986  0.3107
26553SOL    HW182197   8.166   4.622   8.706  0.2300  0.0890  0.7903
26553SOL    HW282198   8.258   4.724   8.642 -0.6529  0.2746 -0.1977
26554SOL     OW82199   8.673   8.813   0.163 -0.5420  0.3664  0.0054
26554SOL    HW182200   8.644   8.870   0.092 -0.3656  0.9367  0.3814
26554SOL    HW282201   8.613   8.832   0.235  0.3767  1.1186  0.5959
26555SOL     OW82202   2.531   1.532   5.153  0.6764  0.3184  0.8264
26555SOL    HW182203   2.464   1.591   5.189 -0.3988 -0.6603  0.4829
26555SOL    HW282204   2.494   1.503   5.069  1.3406 -0.5550  0.8316
26556SOL     OW82205   5.450   2.252   2.412 -0.4459 -0.3377  0.0090
26556SOL    HW182206   5.529   2.302   2.433 -0.9780 -0.2848  2.0084
26556SOL    HW282207   5.412   2.298   2.337 -0.1465  1.3950  0.8917
26557SOL     OW82208   7.076   7.078   7.320 -0.2816  0.2662  0.1422
26557SOL    HW182209   7.000   7.135   7.328 -0.5905 -0.1093 -0.0839
26557SOL    HW282210   7.048   6.995   7.358 -0.0712  0.0440 -0.1774
26558SOL     OW82211   3.317   1.617   6.433 -0.7278 -0.3966  0.0416
26558SOL    HW182212   3.367   1.697   6.448 -0.4436 -0.7931  1.2742
26558SOL    HW282213   3.262   1.637   6.357  1.2350  0.0637 -1.3052
26559SOL     OW82214   8.525   5.119   4.545  0.1144  0.2806 -0.0776
26559SOL    HW182215   8.542   5.182   4.616  0.9338  0.3025 -0.2866
26559SOL    HW282216   8.430   5.110   4.544  0.0628  0.6456  0.7116
26560SOL     OW82217   3.761   6.229   2.546  0.4645  0.3079  0.1847
26560SOL    HW182218   3.677   6.183   2.556  0.0848  1.0210  0.3018
26560SOL    HW282219   3.737   6.315   2.512  1.2831 -0.0305 -1.2938
26561SOL     OW82220   4.762   4.813   7.523 -0.0087 -0.2310 -1.1510
26561SOL    HW182221   4.825   4.790   7.454  1.3170 -2.6500  0.7888
26561SOL    HW282222   4.797   4.894   7.560  0.3726 -0.0050 -1.9924
26562SOL     OW82223   7.883  10.066   1.880  0.1641 -0.5220 -0.0272
26562SOL    HW182224   7.961  10.086   1.931 -0.6179  1.7951  0.3007
26562SOL    HW282225   7.901  10.103   1.794 -0.3583 -0.4808 -0.1174
26563SOL     OW82226   1.957   6.298   5.306 -0.2057 -0.1264  0.9727
26563SOL    HW182227   2.050   6.301   5.285 -0.2107 -2.4299  0.5021
26563SOL    HW282228   1.945   6.368   5.370  1.5966  0.9957  0.1407
26564SOL     OW82229   4.966   6.436   9.081  0.1752  0.3621 -0.0921
26564SOL    HW182230   4.898   6.477   9.027  1.2980  1.6959 -0.5256
26564SOL    HW282231   5.043   6.492   9.070  1.9839 -2.2419 -1.2295
26565SOL     OW82232   3.081   7.187   7.771 -0.8801 -0.0668  1.1827
26565SOL    HW182233   3.165   7.223   7.798 -0.0794 -0.6200 -0.4678
26565SOL    HW282234   3.017   7.229   7.828  0.2539  2.1720  0.8605
26566SOL     OW82235   5.870   9.598   3.081 -0.0048  0.5483 -0.0092
26566SOL    HW182236   5.942   9.648   3.045 -0.5186  0.9437 -0.4956
26566SOL    HW282237   5.902   9.508   3.086  0.1315  0.5184 -1.2818
26567SOL     OW82238   3.168   5.629   8.594 -0.2874 -0.0923 -0.1436
26567SOL    HW182239   3.127   5.715   8.606  0.8681  0.5347 -0.6413
26567SOL    HW282240   3.162   5.588   8.680  1.2593  1.4223  0.7310
26568SOL     OW82241   6.305   9.046   4.126 -0.4709 -0.1834  0.0078
26568SOL    HW182242   6.227   9.002   4.094 -0.0308  0.0866 -1.4435
26568SOL    HW282243   6.378   8.995   4.092  0.0080 -0.2558  1.0970
26569SOL     OW82244   0.394   7.284   6.456  0.2414  0.6262  0.2038
26569SOL    HW182245   0.468   7.344   6.456 -0.4416  1.5026  1.9373
26569SOL    HW282246   0.421   7.210   6.511  0.4326  0.1580 -0.5099
26570SOL     OW82247  10.015   5.266   5.504 -0.0890  0.3754  0.0633
26570SOL    HW182248  10.090   5.322   5.524 -0.6115  1.1081 -0.0256
26570SOL    HW282249  10.054   5.185   5.471  0.7554 -0.3093  2.5646
26571SOL     OW82250   3.050   4.875   2.169 -0.2399  0.2154 -0.0461
26571SOL    HW182251   3.021   4.784   2.164  0.8589 -0.1591  0.2693
26571SOL    HW282252   3.085   4.894   2.082 -0.8673  0.4817 -0.2456
26572SOL     OW82253   0.906   5.807   3.644 -0.1897 -0.5865  0.4398
26572SOL    HW182254   0.916   5.713   3.627  1.3411 -0.3756  0.0417
26572SOL    HW282255   0.987   5.832   3.688 -0.6406  0.5271  0.6573
26573SOL     OW82256   4.286   9.398   8.503 -0.1066  0.0479 -0.4197
26573SOL    HW182257   4.214   9.334   8.508 -0.0409  0.0456  0.4751
26573SOL    HW282258   4.358   9.350   8.462 -0.1410 -0.3810  0.0202
26574SOL     OW82259   8.025   3.592   3.751  0.5025  0.6427  0.2955
26574SOL    HW182260   7.974   3.593   3.832 -0.3015 -1.5019 -0.1197
26574SOL    HW282261   8.104   3.544   3.773  0.1171 -0.2598 -0.2601
26575SOL     OW82262   0.560   4.691   8.781  0.6169 -0.1261 -0.3043
26575SOL    HW182263   0.583   4.643   8.860  0.8000 -0.2464 -0.4323
26575SOL    HW282264   0.544   4.781   8.811  0.1671 -0.2886 -0.0515
26576SOL     OW82265   7.071  10.174   4.187 -0.6733  0.0539 -0.7610
26576SOL    HW182266   7.067  10.081   4.207 -0.3395 -0.0877 -1.3519
26576SOL    HW282267   7.156  10.203   4.219 -0.3830 -0.0511 -1.4129
26577SOL     OW82268   4.064   5.324   1.491 -0.6328 -0.2360 -0.1081
26577SOL    HW182269   4.152   5.336   1.528 -0.6737  0.2046 -0.1550
26577SOL    HW282270   4.005   5.348   1.563 -0.7131  0.2871 -0.3455
26578SOL     OW82271   4.488   8.188   7.279  0.1218 -0.4074 -0.6172
26578SOL    HW182272   4.403   8.165   7.242 -0.1987 -0.9034  0.4051
26578SOL    HW282273   4.466   8.239   7.358  0.7200 -2.1259  0.6921
26579SOL     OW82274   3.086   8.997   6.720 -0.3643  0.4231 -0.8131
26579SOL    HW182275   3.010   8.983   6.663  1.2310 -0.0983 -2.9032
26579SOL    HW282276   3.122   8.910   6.735 -1.1039  0.4953  1.5325
26580SOL     OW82277   9.698   0.854   2.515  0.2772 -0.0153 -0.2915
26580SOL    HW182278   9.686   0.801   2.594  0.8633 -0.8283 -0.7480
26580SOL    HW282279   9.609   0.877   2.488  0.0155 -0.8809 -0.1737
26581SOL     OW82280   0.867   0.007   5.533  0.4539 -0.6237  0.2312
26581SOL    HW182281   0.808   0.014   5.458 -0.5031 -1.1461  0.9258
26581SOL    HW282282   0.833  -0.067   5.584  1.7447 -0.9617  0.6081
26582SOL     OW82283   7.293   4.379   9.586  0.5308 -0.3901  0.1785
26582SOL    HW182284   7.322   4.382   9.677  0.5705 -1.0302  0.1840
26582SOL    HW282285   7.243   4.460   9.575 -1.9220 -1.6656  1.5926
26583SOL     OW82286   4.298   0.160   9.972  0.1661  0.5558 -0.5573
26583SOL    HW182287   4.347   0.121  10.044  1.2241  0.6997 -1.1829
26583SOL    HW282288   4.352   0.142   9.894 -1.0767  0.1854 -1.3361
26584SOL     OW82289   8.009   8.641   3.281  1.0383 -0.6745  0.2087
26584SOL    HW182290   8.046   8.695   3.211 -1.2742  1.0185  0.2134
26584SOL    HW282291   8.072   8.648   3.353  1.3789  1.0592 -0.2270
26585SOL     OW82292   7.352   0.464   8.890 -0.4414 -0.0106 -0.4196
26585SOL    HW182293   7.405   0.403   8.941 -0.5858 -1.8432 -2.3988
26585SOL    HW282294   7.405   0.544   8.887  1.1358 -1.0215 -0.3341
26586SOL     OW82295   9.165   8.103   0.365  0.1878 -0.3308  0.2032
26586SOL    HW182296   9.155   8.026   0.422  2.1056 -1.4551 -0.9515
26586SOL    HW282297   9.211   8.070   0.288  0.8194  1.9336 -0.4079
26587SOL     OW82298   0.471   6.323   6.861 -0.0613  0.4351 -0.3911
26587SOL    HW182299   0.472   6.383   6.786  0.6043 -0.6392 -1.2595
26587SOL    HW282300   0.564   6.312   6.885 -0.1380 -0.5365 -0.4932
26588SOL     OW82301   9.035   2.732   9.547 -0.3358 -0.3325 -0.0042
26588SOL    HW182302   9.109   2.755   9.603 -0.3310  0.5792 -0.3917
26588SOL    HW282303   9.033   2.636   9.550 -1.0773 -0.2897  2.5054
26589SOL     OW82304   7.967   0.016   1.674 -0.2312  0.6871 -0.6448
26589SOL    HW182305   7.939  -0.055   1.617 -0.1947  0.5193 -0.4587
26589SOL    HW282306   8.063   0.007   1.677 -0.2496  0.5519 -0.3793
26590SOL     OW82307  10.151   9.203   9.160  0.0544 -0.0885  0.0698
26590SOL    HW182308  10.170   9.256   9.237 -1.3464  1.0407 -0.3334
26590SOL    HW282309  10.137   9.267   9.089  1.6332 -1.1109 -1.2058
26591SOL     OW82310   7.871   8.221   3.830 -0.1071  0.2019  0.2686
26591SOL    HW182311   7.938   8.279   3.794  0.1010 -0.5618 -0.5750
26591SOL    HW282312   7.789   8.270   3.820  0.2526  0.9281  0.8424
26592SOL     OW82313   4.770   5.973   2.291  0.3515  0.2736 -0.1505
26592SOL    HW182314   4.679   6.002   2.299  0.5336  0.6602  0.5235
26592SOL    HW282315   4.822   6.048   2.320  0.8242 -0.7352  1.7100
26593SOL     OW82316   5.601   5.045   8.666 -0.0894  0.7434  0.0565
26593SOL    HW182317   5.687   5.013   8.639 -1.0324 -1.3346 -0.5219
26593SOL    HW282318   5.567   5.089   8.589 -0.5736 -0.5762 -0.4795
26594SOL     OW82319   4.114   7.950   9.192 -0.0612 -0.3009  0.0359
26594SOL    HW182320   4.137   7.957   9.099  0.2101  1.6012  0.2294
26594SOL    HW282321   4.041   8.010   9.204  1.0584  0.8244  1.4188
26595SOL     OW82322   3.642   8.068   2.874 -0.4134 -0.1133  0.1699
26595SOL    HW182323   3.611   8.145   2.922 -2.0869 -2.1851  2.4936
26595SOL    HW282324   3.711   8.032   2.930 -2.7133 -2.8359  1.3329
26596SOL     OW82325   5.356   1.223   2.437  0.4347 -0.2234 -0.0888
26596SOL    HW182326   5.361   1.128   2.449  0.6137 -0.2727 -0.5380
26596SOL    HW282327   5.307   1.234   2.355  0.3125  0.0744  0.0225
26597SOL     OW82328   2.399   1.383   9.132 -0.0244 -0.2559  0.9752
26597SOL    HW182329   2.334   1.437   9.087 -0.4799 -0.6868  1.1130
26597SOL    HW282330   2.469   1.444   9.155  0.8018 -0.2522 -1.4146
26598SOL     OW82331   1.074   0.619   7.912  0.1803 -0.4177 -0.3086
26598SOL    HW182332   1.061   0.665   7.830  1.6933  0.6277  0.0212
26598SOL    HW282333   1.000   0.558   7.918 -0.4368  0.1609 -1.9735
26599SOL     OW82334   1.165   3.331   6.680 -0.1604 -0.1011 -0.2446
26599SOL    HW182335   1.252   3.328   6.639  0.7714 -0.1442  1.6635
26599SOL    HW282336   1.176   3.389   6.755 -1.3949 -1.2220  0.8378
26600SOL     OW82337   8.875   0.664   4.820  0.2771 -0.4603 -0.7522
26600SOL    HW182338   8.853   0.673   4.727  1.7705 -0.6001 -1.1251
26600SOL    HW282339   8.970   0.664   4.823  0.2663  1.3106  0.9647
26601SOL     OW82340   5.865   5.856   0.301 -0.5855 -0.4540 -0.2036
26601SOL    HW182341   5.832   5.900   0.379 -0.6099  0.3411 -0.6700
26601SOL    HW282342   5.791   5.854   0.240  0.1065  1.0469 -1.1214
26602SOL     OW82343   5.275   0.189   7.499 -0.2847 -0.0617  0.1698
26602SOL    HW182344   5.220   0.263   7.476  0.7400  0.7675  0.3530
26602SOL    HW282345   5.359   0.228   7.524  1.3715 -1.4223 -2.9466
26603SOL     OW82346   5.692   9.537   1.837 -0.0631  0.1881 -0.0465
26603SOL    HW182347   5.754   9.473   1.802 -0.6598 -0.5521  0.2129
26603SOL    HW282348   5.615   9.484   1.861 -0.9793  1.1509 -0.8222
26604SOL     OW82349   4.339   7.983   9.378  0.1127  0.4386  0.1315
26604SOL    HW182350   4.312   8.070   9.405 -0.4003  0.7978 -1.4705
26604SOL    HW282351   4.266   7.951   9.325  1.1464 -0.1633 -0.9465
26605SOL     OW82352   4.747   4.065   2.759 -0.4279  0.3586 -0.2605
26605SOL    HW182353   4.787   4.138   2.806 -1.9155  0.7474  0.4502
26605SOL    HW282354   4.815   3.997   2.758 -0.0356  0.6754  1.6845
26606SOL     OW82355   4.366   9.797   8.819  0.4332  0.4338  0.1358
26606SOL    HW182356   4.446   9.766   8.776  0.1983 -0.7206  0.5278
26606SOL    HW282357   4.374   9.893   8.818  1.2268  0.3696 -0.9542
26607SOL     OW82358   6.726   7.519   1.356 -0.0373  0.2777  0.8095
26607SOL    HW182359   6.688   7.474   1.281 -0.1546 -0.1281  1.1094
26607SOL    HW282360   6.784   7.454   1.396 -0.1662  0.4141  1.2151
26608SOL     OW82361   2.450   8.939   0.471  0.1383  0.2615  0.4097
26608SOL    HW182362   2.436   8.881   0.546  0.8865  0.2787  0.5749
26608SOL    HW282363   2.499   8.886   0.408  0.8042  0.6945  0.5529
26609SOL     OW82364   2.572   6.007   6.706 -0.9404  0.0111  0.5959
26609SOL    HW182365   2.571   6.014   6.801 -1.0816 -0.9868  0.6680
26609SOL    HW282366   2.665   6.012   6.682 -0.7986 -1.0694  0.8920
26610SOL     OW82367   1.325   4.432   3.806  0.5222 -0.2549 -0.0734
26610SOL    HW182368   1.403   4.466   3.849  1.1569 -0.6881 -0.8475
26610SOL    HW282369   1.252   4.461   3.860  1.2140  0.2889  0.5744
26611SOL     OW82370   2.997   7.498   2.020  0.2283 -0.2717  0.1185
26611SOL    HW182371   2.951   7.467   1.942  0.5711 -0.0970 -0.1499
26611SOL    HW282372   2.972   7.435   2.088  0.3085 -0.6992 -0.2403
26612SOL     OW82373   0.136   1.450   7.592 -0.1986  0.0898  0.3090
26612SOL    HW182374   0.054   1.468   7.545 -0.2203  0.9114  0.6399
26612SOL    HW282375   0.141   1.355   7.596 -1.1998  0.0277  0.3739
26613SOL     OW82376   6.865   4.319   0.816 -0.2668  0.3800  0.1470
26613SOL    HW182377   6.821   4.235   0.806  2.0081 -0.7742 -0.5024
26613SOL    HW282378   6.856   4.362   0.731  0.9480 -0.4056 -0.3868
26614SOL     OW82379   2.748   5.164   9.891 -0.0432  0.0320 -0.2094
26614SOL    HW182380   2.672   5.110   9.914 -0.5492  0.4613 -0.8422
26614SOL    HW282381   2.785   5.121   9.813  1.1241 -0.9029  0.8406
26615SOL     OW82382   4.161   0.220   7.670  0.6816  0.1085 -0.4515
26615SOL    HW182383   4.112   0.302   7.671  2.6554  1.3022 -0.1734
26615SOL    HW282384   4.114   0.165   7.607 -0.8120  1.3515 -0.4461
26616SOL     OW82385   4.731   1.670   7.559  0.0805  0.4154  0.0848
26616SOL    HW182386   4.678   1.735   7.606 -0.6934 -0.1265 -0.0315
26616SOL    HW282387   4.782   1.721   7.496  0.2005  1.0133  0.6529
26617SOL     OW82388   7.483   6.741   4.725 -0.1649  0.1184 -0.4227
26617SOL    HW182389   7.508   6.798   4.652 -2.2822  0.1997 -1.1346
26617SOL    HW282390   7.442   6.799   4.789 -1.3189 -0.4111 -0.6543
26618SOL     OW82391   7.561   9.445   9.021  0.3234 -0.0070  0.3506
26618SOL    HW182392   7.639   9.399   9.049  1.3340  0.0670 -2.1997
26618SOL    HW282393   7.527   9.393   8.948 -1.0803  0.8462  0.3733
26619SOL     OW82394   8.828   0.002   8.940  0.6205  0.3172  0.0162
26619SOL    HW182395   8.871  -0.065   8.994 -0.2999  1.2021  1.9053
26619SOL    HW282396   8.901   0.047   8.897  1.3448 -0.8077  0.0190
26620SOL     OW82397   0.392   4.546   7.010  0.0413  0.1019  0.1755
26620SOL    HW182398   0.407   4.454   7.034 -0.7694  0.2811  1.4421
26620SOL    HW282399   0.439   4.557   6.927 -0.5533 -1.6770 -0.4204
26621SOL     OW82400   2.707   9.483   1.679 -0.3711  0.7478 -0.1106
26621SOL    HW182401   2.683   9.423   1.609 -0.5584 -1.7724  2.0010
26621SOL    HW282402   2.791   9.451   1.711 -1.2073  0.5926  2.0658
26622SOL     OW82403   8.598   5.902   1.117  0.9921  0.3918  0.5969
26622SOL    HW182404   8.611   5.995   1.131 -2.4538  1.2519 -1.3971
26622SOL    HW282405   8.562   5.869   1.199 -2.6457  1.8903 -0.3322
26623SOL     OW82406   4.358  10.104   1.063  0.4320  0.0069 -0.4469
26623SOL    HW182407   4.389  10.050   1.136  0.1736 -0.9396 -1.0215
26623SOL    HW282408   4.435  10.153   1.035  0.6790 -0.0811  0.0660
26624SOL     OW82409   8.404   8.069   5.959 -0.1703  0.2842  0.1282
26624SOL    HW182410   8.451   8.147   5.928 -0.0833  0.3377  0.3935
26624SOL    HW282411   8.443   7.997   5.911  1.1228  0.1617  1.3529
26625SOL     OW82412   7.871   4.174   0.090 -0.1697  0.3991  0.1863
26625SOL    HW182413   7.925   4.163   0.168  1.2005 -0.0073 -0.8089
26625SOL    HW282414   7.826   4.090   0.080  0.4749  0.0859 -0.0765
26626SOL     OW82415   2.134   3.416   7.315 -0.1322 -0.1740 -0.4422
26626SOL    HW182416   2.043   3.404   7.343 -0.2023  1.1219 -0.1260
26626SOL    HW282417   2.139   3.368   7.232 -1.5008  0.9483 -1.2058
26627SOL     OW82418   0.676   4.181   2.591 -0.3770  0.2360  0.5357
26627SOL    HW182419   0.640   4.259   2.634  0.2337  1.0985 -0.5111
26627SOL    HW282420   0.687   4.206   2.500 -1.6716 -1.5918 -0.1573
26628SOL     OW82421   7.902   8.776   0.119  0.1949  0.2345 -0.0858
26628SOL    HW182422   7.930   8.847   0.061  1.5791 -0.1021  0.1744
26628SOL    HW282423   7.907   8.813   0.207 -2.0654  0.7966 -0.1517
26629SOL     OW82424   0.307   3.212   8.875 -0.5123  0.3050  0.8324
26629SOL    HW182425   0.313   3.308   8.874  1.7734  0.1959  0.4303
26629SOL    HW282426   0.305   3.188   8.782  0.1246 -0.0915  0.9217
26630SOL     OW82427   9.475   7.279   5.540  0.4004 -0.0428  0.1835
26630SOL    HW182428   9.552   7.260   5.487 -0.0392 -0.2522 -0.3759
26630SOL    HW282429   9.510   7.328   5.615  1.3469 -1.8075  0.9240
26631SOL     OW82430   5.868   3.710   3.777 -0.3874 -0.1721 -0.5539
26631SOL    HW182431   5.900   3.620   3.784  0.2343  0.2089  1.6795
26631SOL    HW282432   5.910   3.745   3.699  1.1303 -1.1155 -0.1760
26632SOL     OW82433   6.636   8.331   6.756  0.4208  0.2416  0.1341
26632SOL    HW182434   6.647   8.247   6.800 -1.4114  0.3381  0.8158
26632SOL    HW282435   6.605   8.309   6.668  0.5154  0.1886  0.1139
26633SOL     OW82436  10.193   8.993   9.773 -0.3262  0.4978  0.0456
26633SOL    HW182437  10.105   8.960   9.757  0.2400 -1.2061  0.3040
26633SOL    HW282438  10.238   8.920   9.816  0.7242  1.9105  1.4073
26634SOL     OW82439   2.046   9.647   1.017  0.4322  0.2407 -0.3902
26634SOL    HW182440   1.980   9.636   1.086  0.6859  0.6927 -0.0734
26634SOL    HW282441   2.051   9.742   1.004  0.7566  0.1863 -0.6713
26635SOL     OW82442   9.616   2.298   8.703  0.5239 -0.0601 -0.2509
26635SOL    HW182443   9.641   2.370   8.645  0.6776 -1.7361 -2.3025
26635SOL    HW282444   9.535   2.328   8.745  1.1547  1.7320 -0.2546
26636SOL     OW82445   9.857   9.116   0.860  0.1029  0.2712  0.0643
26636SOL    HW182446   9.944   9.078   0.847  0.0762  0.3109 -0.2323
26636SOL    HW282447   9.820   9.121   0.772  0.2255  1.2626  0.0659
26637SOL     OW82448   4.321   5.815   9.410  0.0523  0.7877 -0.6278
26637SOL    HW182449   4.253   5.879   9.427 -1.1021 -1.1776  2.6870
26637SOL    HW282450   4.302   5.783   9.321 -2.1653  1.6406 -0.5024
26638SOL     OW82451   7.782   0.720   9.253  0.4853 -0.2865 -0.4472
26638SOL    HW182452   7.708   0.781   9.241 -0.3448 -1.3680 -0.8757
26638SOL    HW282453   7.746   0.634   9.232  1.3211 -1.1030  1.3654
26639SOL     OW82454   4.276   1.189   1.938 -0.5384  0.0429  0.0668
26639SOL    HW182455   4.358   1.139   1.928 -0.9915 -0.6102 -0.4466
26639SOL    HW282456   4.209   1.132   1.900 -1.1575  0.7954  0.0314
26640SOL     OW82457   1.357   2.956   4.726  0.4633  0.2379 -0.0127
26640SOL    HW182458   1.444   2.928   4.755  0.8687  1.4823 -0.0140
26640SOL    HW282459   1.369   3.047   4.700 -1.0609  0.6938  0.8784
26641SOL     OW82460   2.814   7.134   9.425 -0.3751 -0.2420  0.4162
26641SOL    HW182461   2.729   7.097   9.447 -1.0456  1.0572  0.0537
26641SOL    HW282462   2.804   7.165   9.335  0.3067  0.4242  0.5646
26642SOL     OW82463   6.446   2.747   1.677  0.0900 -0.0090 -0.3916
26642SOL    HW182464   6.488   2.662   1.693 -1.9706 -0.6544  2.0716
26642SOL    HW282465   6.457   2.795   1.759  1.4742  2.2551 -1.8544
26643SOL     OW82466   9.101   3.926   3.711 -0.2370  0.1579  0.1451
26643SOL    HW182467   9.061   3.840   3.703  1.5410 -0.6253 -0.5857
26643SOL    HW282468   9.072   3.958   3.796 -0.3510 -1.4688  0.7350
26644SOL     OW82469   8.954   8.470   3.015 -0.1332  0.9269  0.3293
26644SOL    HW182470   8.963   8.509   3.102 -0.5860  1.3954  0.1685
26644SOL    HW282471   9.043   8.472   2.979 -0.0240  1.1380  0.6116
26645SOL     OW82472   6.831   6.505   1.734  0.4966 -0.3217  0.6100
26645SOL    HW182473   6.828   6.508   1.830 -0.1305 -3.2718  0.7284
26645SOL    HW282474   6.890   6.432   1.715 -1.5895 -1.5684 -1.2220
26646SOL     OW82475   0.888   5.585   4.746 -0.3742 -0.8549  0.0643
26646SOL    HW182476   0.891   5.492   4.724 -0.7355 -0.7971 -0.2401
26646SOL    HW282477   0.976   5.618   4.728 -0.4189 -1.0051 -0.4230
26647SOL     OW82478   2.707   0.509   0.464 -0.3776 -0.6112 -0.2709
26647SOL    HW182479   2.653   0.588   0.470  0.8291  0.2194 -0.1260
26647SOL    HW282480   2.709   0.488   0.371  0.3076  0.2470 -0.4546
26648SOL     OW82481   6.636   0.803   9.041  0.4570 -0.0318  0.0944
26648SOL    HW182482   6.546   0.809   9.074  0.4603 -2.1624  0.5897
26648SOL    HW282483   6.636   0.725   8.986  2.4264 -1.1580  1.5980
26649SOL     OW82484   9.942   3.214   2.824 -0.1901  0.4425 -0.1733
26649SOL    HW182485   9.960   3.128   2.860 -0.3999  0.0081 -1.0759
26649SOL    HW282486   9.887   3.257   2.889  1.7465  0.7271  1.2960
26650SOL     OW82487   1.964   5.382   1.575  0.0797 -0.3192  0.1418
26650SOL    HW182488   1.948   5.341   1.490  0.9404 -0.6910  0.1510
26650SOL    HW282489   1.899   5.452   1.581 -0.7520 -1.0458 -0.3100
26651SOL     OW82490   3.815   5.667   1.639 -0.1872  0.6741 -0.2601
26651SOL    HW182491   3.797   5.657   1.546  2.4969 -0.8222 -0.6628
26651SOL    HW282492   3.848   5.756   1.648 -2.7408  1.6822 -0.2902
26652SOL     OW82493   0.664   3.545   8.993  0.0039 -0.8369 -0.7437
26652SOL    HW182494   0.609   3.595   8.933 -0.9041  0.1211  0.8528
26652SOL    HW282495   0.610   3.468   9.015  0.9634 -2.0042 -2.3468
26653SOL     OW82496   5.560   7.278   9.965 -0.7023 -0.2698 -0.0791
26653SOL    HW182497   5.472   7.293  10.000 -0.5399 -2.5614  1.3942
26653SOL    HW282498   5.618   7.288  10.040  0.1517 -0.1778 -0.7509
26654SOL     OW82499   4.512   3.129   3.069 -0.2051 -0.3936 -0.3225
26654SOL    HW182500   4.459   3.065   3.023 -2.1679  0.5184  0.6054
26654SOL    HW282501   4.493   3.114   3.161  0.5267  0.4862 -0.0231
26655SOL     OW82502   2.651   0.353   9.131  0.2239 -0.5729 -0.1583
26655SOL    HW182503   2.695   0.438   9.134  0.0789 -0.4498 -1.1716
26655SOL    HW282504   2.682   0.307   9.209  1.2059 -0.0317 -0.2144
26656SOL     OW82505   6.461   7.027   1.527  0.0535  0.1989 -0.1833
26656SOL    HW182506   6.471   7.043   1.433 -1.2512 -0.5072 -0.4527
26656SOL    HW282507   6.499   6.941   1.541 -0.2548  0.0689 -0.1543
26657SOL     OW82508   2.115   4.599   7.431  0.3257 -0.2972 -0.0005
26657SOL    HW182509   2.059   4.523   7.418  1.8177 -1.2832 -0.8257
26657SOL    HW282510   2.189   4.584   7.372 -0.7003  3.1392 -2.3661
26658SOL     OW82511   2.807  10.024   9.668 -0.4997  0.9440 -0.1863
26658SOL    HW182512   2.800   9.941   9.620 -1.3364  0.4366  0.7904
26658SOL    HW282513   2.887  10.064   9.634  1.9723 -1.9714  1.9374
26659SOL     OW82514   8.320   4.139   1.619  0.6830 -0.2646  0.6006
26659SOL    HW182515   8.363   4.188   1.689  1.4541  0.1201 -0.1311
26659SOL    HW282516   8.343   4.187   1.539 -0.1116 -0.7497  0.0767
26660SOL     OW82517   3.894   8.248   2.683  0.4216  0.2218 -0.2862
26660SOL    HW182518   3.836   8.318   2.713 -0.1056 -0.1430 -0.4564
26660SOL    HW282519   3.835   8.179   2.654  0.9318  0.1703 -1.2172
26661SOL     OW82520   1.301   7.980   9.904 -0.4626  0.4417  0.2895
26661SOL    HW182521   1.208   7.981   9.927 -0.3275  0.6784  0.8108
26661SOL    HW282522   1.347   7.975   9.988 -0.0715 -3.2728 -0.0268
26662SOL     OW82523   8.192   3.943   2.793 -0.4109  0.7170  0.0722
26662SOL    HW182524   8.286   3.959   2.803 -0.6477  1.5404  1.1250
26662SOL    HW282525   8.158   4.024   2.754 -0.9540  1.1734  1.4370
26663SOL     OW82526   9.382   8.159   6.213  0.1017  0.2007 -0.0529
26663SOL    HW182527   9.366   8.236   6.158 -0.4975  0.7155  0.8361
26663SOL    HW282528   9.339   8.180   6.296 -0.3320 -1.2225  0.0895
26664SOL     OW82529   8.903   9.783   4.069 -0.1682  0.7479  0.0693
26664SOL    HW182530   8.829   9.833   4.103 -0.9481 -0.1572 -0.2829
26664SOL    HW282531   8.945   9.746   4.146  0.2124  1.6457  0.3051
26665SOL     OW82532   0.457   2.728   1.659  0.0090 -0.1913  0.3881
26665SOL    HW182533   0.369   2.692   1.655  0.1169 -0.4358  0.2062
26665SOL    HW282534   0.493   2.696   1.742 -0.7287  1.4239  1.3592
26666SOL     OW82535   1.630   3.647   7.082  0.4418  0.3356  0.8704
26666SOL    HW182536   1.593   3.731   7.054  1.5320  0.6088  0.2444
26666SOL    HW282537   1.716   3.669   7.117  0.9721 -0.5978  0.1650
26667SOL     OW82538   9.023   0.279   1.791  0.6123 -0.0863 -0.6250
26667SOL    HW182539   9.041   0.340   1.720 -1.2514  0.7192 -0.4423
26667SOL    HW282540   9.094   0.292   1.854  0.3677  1.7476 -0.6995
26668SOL     OW82541   4.238   9.525   4.749  0.0325 -0.3564  0.3793
26668SOL    HW182542   4.272   9.587   4.685  1.9660 -0.6201  1.1218
26668SOL    HW282543   4.216   9.579   4.825  0.9379 -0.4815  0.7277
26669SOL     OW82544   7.374   2.046   3.572 -0.0789 -0.2096 -0.4896
26669SOL    HW182545   7.293   1.994   3.569 -1.0671  1.1899  1.0052
26669SOL    HW282546   7.441   1.983   3.600 -1.2078 -0.7862  1.0454
26670SOL     OW82547   9.921   6.660   1.923  0.1214 -0.0718 -0.3400
26670SOL    HW182548   9.866   6.715   1.978  1.1175 -1.1301  1.7588
26670SOL    HW282549   9.986   6.720   1.886 -0.3352  0.5876 -0.0698
26671SOL     OW82550   4.521   9.175   6.490  0.0772 -0.0046 -0.2464
26671SOL    HW182551   4.581   9.172   6.564 -0.4015  0.7941  0.1857
26671SOL    HW282552   4.533   9.262   6.452 -1.5113  0.5513  0.4575
26672SOL     OW82553   1.669   7.429   2.800  0.3077 -0.2030 -0.2505
26672SOL    HW182554   1.633   7.410   2.714 -0.0604  1.2318 -0.4333
26672SOL    HW282555   1.758   7.458   2.783  0.5584 -0.8696 -0.0642
26673SOL     OW82556   3.702   4.738   8.116 -0.5851  0.8982  0.1328
26673SOL    HW182557   3.758   4.768   8.187  0.0708  3.8643 -1.5227
26673SOL    HW282558   3.613   4.760   8.144 -0.4147  1.1090  0.5101
26674SOL     OW82559   5.725   4.397   4.851 -0.1526 -0.1123  0.3759
26674SOL    HW182560   5.781   4.324   4.828  0.4965 -0.2156  2.2376
26674SOL    HW282561   5.765   4.473   4.807  1.1562 -0.2696  1.2808
26675SOL     OW82562   2.456   7.958   5.855  0.2558  0.3860 -0.2943
26675SOL    HW182563   2.470   8.047   5.888  1.0951  0.7473 -1.5827
26675SOL    HW282564   2.544   7.928   5.830  0.4328 -1.8944  2.8043
26676SOL     OW82565   3.660   0.677   7.963 -0.2412  0.5320 -0.7249
26676SOL    HW182566   3.632   0.765   7.986 -0.3815  0.8853 -2.2189
26676SOL    HW282567   3.734   0.689   7.904 -1.4581 -0.2938 -2.4978
26677SOL     OW82568   0.199   7.635   0.724  0.6899  0.0209  0.3934
26677SOL    HW182569   0.138   7.607   0.793 -0.2435  1.2646  0.0874
26677SOL    HW282570   0.165   7.594   0.644  0.7035  0.0858  0.3542
26678SOL     OW82571   2.814   6.040   9.743  0.3441  0.2745 -0.3699
26678SOL    HW182572   2.894   5.990   9.732  1.3671  1.7882  0.0912
26678SOL    HW282573   2.793   6.071   9.655 -0.1296 -0.6856 -0.6064
26679SOL     OW82574   0.301   0.011   0.943 -0.2872  0.0444  0.2574
26679SOL    HW182575   0.338   0.042   1.025  2.8559  0.5612 -1.2944
26679SOL    HW282576   0.310   0.084   0.883 -0.4536 -1.1021 -1.1855
26680SOL     OW82577   0.129   9.208   6.053 -0.6251 -0.1559  0.0225
26680SOL    HW182578   0.044   9.202   6.097 -1.4814  2.5916 -1.1532
26680SOL    HW282579   0.109   9.188   5.962 -0.0128  0.5271 -0.2606
26681SOL     OW82580   2.558   3.154   2.564  0.3748  0.2687 -0.0447
26681SOL    HW182581   2.532   3.171   2.473 -2.6725  0.7069  0.8542
26681SOL    HW282582   2.476   3.137   2.609  1.1661  5.3021  3.7676
26682SOL     OW82583   8.713   5.586   0.545  0.2270 -0.1727 -0.5398
26682SOL    HW182584   8.664   5.523   0.493  0.9224 -1.1096 -0.0633
26682SOL    HW282585   8.805   5.567   0.527  0.5182 -1.3587  1.9678
26683SOL     OW82586   1.251   2.506   6.079  0.1820 -0.2306 -0.4132
26683SOL    HW182587   1.341   2.531   6.064  0.0140  0.6508  0.0430
26683SOL    HW282588   1.201   2.552   6.012 -0.1472  0.8127  0.5438
26684SOL     OW82589   8.063   5.107   3.082 -0.0076 -0.1985  0.2214
26684SOL    HW182590   8.047   5.013   3.081 -1.0059 -0.0707  2.0408
26684SOL    HW282591   8.147   5.118   3.127  0.3413 -0.2430 -0.4153
26685SOL     OW82592   2.650   2.273   3.756 -0.2800 -0.2837  0.1812
26685SOL    HW182593   2.557   2.295   3.754 -0.3055 -0.3666  0.3834
26685SOL    HW282594   2.661   2.221   3.836 -0.1786 -0.8017 -0.1659
26686SOL     OW82595   7.314   3.038   7.924  0.4440  0.2532 -0.3452
26686SOL    HW182596   7.247   3.019   7.990  1.4609 -3.4067 -0.2778
26686SOL    HW282597   7.266   3.083   7.854 -1.5014  0.2204  0.9253
26687SOL     OW82598   8.850   8.699   3.986  0.1691  0.9826 -0.2528
26687SOL    HW182599   8.892   8.662   3.909  1.2013  2.0493 -0.2187
26687SOL    HW282600   8.843   8.793   3.968 -2.8537  0.7458 -0.5422
26688SOL     OW82601   9.176   3.256   2.532 -0.3119  0.1669  0.2941
26688SOL    HW182602   9.244   3.323   2.534  0.2702 -0.4173 -0.2331
26688SOL    HW282603   9.220   3.176   2.560 -0.6818 -0.3044 -0.4880
26689SOL     OW82604   0.645   2.498   3.650  0.2027 -0.0543  0.1433
26689SOL    HW182605   0.580   2.507   3.580  0.3766  1.0423  0.1127
26689SOL    HW282606   0.599   2.526   3.729  0.1466 -0.8468  0.3943
26690SOL     OW82607   3.081   0.203   9.502  0.5141  0.3378 -0.1851
26690SOL    HW182608   3.069   0.239   9.414  2.4559  2.4115  0.3546
26690SOL    HW282609   3.054   0.273   9.561  0.6671 -0.4934  0.8903
26691SOL     OW82610   2.190   8.627   7.883 -0.2927  0.6553  0.3020
26691SOL    HW182611   2.280   8.659   7.878 -0.6605  1.4521 -1.7135
26691SOL    HW282612   2.153   8.670   7.960  1.4056 -0.6357  1.8783
26692SOL     OW82613   7.927   5.308   8.077 -0.4746  0.0512 -0.4313
26692SOL    HW182614   7.869   5.381   8.053 -0.4521 -0.1923 -1.2439
26692SOL    HW282615   7.985   5.345   8.143  0.2802  1.1223 -1.6500
26693SOL     OW82616   3.916   5.256   5.104  0.2255  0.1016  0.3022
26693SOL    HW182617   3.893   5.163   5.108 -2.3616  0.7466  1.3558
26693SOL    HW282618   3.987   5.266   5.168  1.3279 -1.3339 -0.6574
26694SOL     OW82619   5.430   6.288   5.452  0.2075  0.1201 -0.2382
26694SOL    HW182620   5.442   6.382   5.466 -1.1541 -0.0764  2.8397
26694SOL    HW282621   5.449   6.274   5.359  0.0227  3.4909 -0.8358
26695SOL     OW82622   1.535   8.473   1.820  0.2468 -0.7790 -0.1488
26695SOL    HW182623   1.546   8.387   1.780 -0.9305 -0.5963 -0.8731
26695SOL    HW282624   1.592   8.471   1.897 -0.3008 -2.4382  0.2127
26696SOL     OW82625   2.712   9.147   9.499 -0.1388  0.2223 -0.1274
26696SOL    HW182626   2.627   9.108   9.481 -0.3105  0.3365  0.4396
26696SOL    HW282627   2.701   9.193   9.582  0.8552 -0.9112  0.6538
26697SOL     OW82628   4.777   8.106   5.721 -0.3400  0.4683  0.5029
26697SOL    HW182629   4.846   8.096   5.654 -2.4879 -1.6673 -1.4805
26697SOL    HW282630   4.767   8.200   5.730  2.6090  0.8297  0.5880
26698SOL     OW82631   1.316   1.174   6.881 -0.0847  0.0048  0.1718
26698SOL    HW182632   1.237   1.121   6.884  0.1927 -0.4674 -0.8325
26698SOL    HW282633   1.378   1.128   6.938 -0.3870  0.1521  0.6247
26699SOL     OW82634   9.401   5.954   5.934 -1.0425 -0.0338 -0.4503
26699SOL    HW182635   9.365   6.043   5.938 -1.3470 -0.2446  2.6475
26699SOL    HW282636   9.496   5.967   5.934 -1.0856  0.2832  0.0724
26700SOL     OW82637   4.063   2.045   1.152 -0.3024  0.2774  0.1843
26700SOL    HW182638   4.083   1.984   1.223 -2.4078  0.7727  1.2510
26700SOL    HW282639   3.983   2.010   1.113  0.0462  0.8123 -1.0066
26701SOL     OW82640   9.675   9.818  10.147 -0.3329 -0.1780  0.4323
26701SOL    HW182641   9.693   9.733  10.187  0.2491 -0.3106 -0.0927
26701SOL    HW282642   9.600   9.803  10.090 -0.0842 -0.4034  0.1593
26702SOL     OW82643   8.377   1.331   1.608 -0.2578 -0.0929 -0.0400
26702SOL    HW182644   8.463   1.297   1.582 -0.5353 -0.7282 -0.1107
26702SOL    HW282645   8.340   1.264   1.665  0.1368  1.0788  1.6438
26703SOL     OW82646   6.937   6.259   5.775  0.0918 -0.2515  0.3327
26703SOL    HW182647   6.973   6.187   5.723 -0.2537  0.5338 -1.0150
26703SOL    HW282648   6.842   6.255   5.759 -0.0879 -0.3895  1.4018
26704SOL     OW82649   8.876   7.314   7.861  0.4506  0.5267 -0.2359
26704SOL    HW182650   8.925   7.310   7.944  0.0302  0.5203  0.0127
26704SOL    HW282651   8.857   7.223   7.840 -0.5863  0.6096  0.3410
26705SOL     OW82652  10.180   2.182   8.107  0.1013 -0.8080  0.0035
26705SOL    HW182653  10.223   2.138   8.034 -2.5995  0.0563 -2.1809
26705SOL    HW282654  10.135   2.112   8.154 -0.8986 -0.9235 -1.1183
26706SOL     OW82655   3.034   3.772   3.261 -0.2515  0.1978 -0.0055
26706SOL    HW182656   2.971   3.745   3.194 -0.2224 -0.9041  0.4114
26706SOL    HW282657   3.003   3.731   3.341  0.2073  0.8123  0.4865
26707SOL     OW82658   5.002   3.035   4.887 -0.2627 -0.4287  0.2682
26707SOL    HW182659   5.091   3.000   4.900 -0.0479  0.6408  1.7692
26707SOL    HW282660   5.008   3.085   4.805  0.6457  0.0309  0.6043
26708SOL     OW82661   5.759   7.731   3.238 -0.0016 -0.0529  0.4152
26708SOL    HW182662   5.794   7.643   3.220  0.3030 -0.0735  1.0817
26708SOL    HW282663   5.803   7.788   3.175 -1.5952 -0.6571 -1.2970
26709SOL     OW82664   9.877   8.254   8.069 -0.0161  0.0333 -0.1062
26709SOL    HW182665   9.916   8.336   8.041  2.8332 -1.6215 -1.1575
26709SOL    HW282666   9.850   8.212   7.987  2.1219 -1.7934  0.0905
26710SOL     OW82667   9.185   0.420   5.817  0.5492 -0.3445 -0.0381
26710SOL    HW182668   9.274   0.387   5.825 -0.7210 -3.6044  1.9453
26710SOL    HW282669   9.159   0.441   5.907  0.0274  2.7431 -0.8399
26711SOL     OW82670   4.053   5.756   0.280 -0.1238 -0.5152 -0.3155
26711SOL    HW182671   4.026   5.836   0.234 -0.1789 -0.0683  0.4866
26711SOL    HW282672   4.123   5.785   0.338 -0.1856 -1.0478  0.0202
26712SOL     OW82673   6.560   0.109   5.049 -0.7442 -0.1931  0.2182
26712SOL    HW182674   6.503   0.055   5.104  0.1402 -0.1316  1.2073
26712SOL    HW282675   6.578   0.186   5.103  2.3529 -1.3701  0.9384
26713SOL     OW82676   3.705   0.384   7.216  0.0671  1.2269 -0.2942
26713SOL    HW182677   3.698   0.376   7.121  0.2081 -0.0165 -0.2022
26713SOL    HW282678   3.771   0.319   7.241  1.5326  2.9316  0.4316
26714SOL     OW82679   1.988   7.456   0.937 -0.1217  0.2008 -0.3099
26714SOL    HW182680   1.905   7.442   0.890  0.9376 -0.7220 -1.9704
26714SOL    HW282681   2.002   7.551   0.932 -0.8436  0.3069 -0.4368
26715SOL     OW82682   7.312   9.647   4.524  0.0584  0.2270 -0.5692
26715SOL    HW182683   7.222   9.634   4.553  0.0520  0.7085 -0.3602
26715SOL    HW282684   7.343   9.722   4.575  1.4766 -1.5917  1.3660
26716SOL     OW82685   0.780   2.602   4.110  0.0965  0.4867  0.1771
26716SOL    HW182686   0.854   2.651   4.145 -0.7295  1.2479  0.8862
26716SOL    HW282687   0.753   2.651   4.032  0.1774  0.3507  0.0626
26717SOL     OW82688   1.494   3.542   7.685  0.4418  0.0366 -0.0259
26717SOL    HW182689   1.584   3.539   7.653  0.2458  0.6568 -0.6731
26717SOL    HW282690   1.470   3.635   7.679  0.0132 -0.0122  0.8628
26718SOL     OW82691   0.335   2.284   4.177 -0.5400 -0.2618  0.1224
26718SOL    HW182692   0.251   2.258   4.215 -0.1628 -1.2716  0.2837
26718SOL    HW282693   0.338   2.379   4.189 -2.1055 -0.0717 -0.7941
26719SOL     OW82694   6.941   3.188   3.495 -0.0591  0.2139 -0.1474
26719SOL    HW182695   6.999   3.254   3.456  0.3400 -0.2035 -0.2687
26719SOL    HW282696   6.863   3.237   3.521  1.7907  1.4843  3.3109
26720SOL     OW82697   8.145   1.747  10.125 -0.2384  0.1487 -0.2969
26720SOL    HW182698   8.174   1.823  10.175 -2.6017  0.4254  0.7010
26720SOL    HW282699   8.114   1.783  10.042 -1.9170  0.3759  0.4062
26721SOL     OW82700   0.001   6.689   2.078  0.0558 -0.4647  0.0253
26721SOL    HW182701  -0.006   6.596   2.098 -0.8867 -0.3971  0.0379
26721SOL    HW282702   0.042   6.728   2.155 -0.0746 -0.7880  0.2583
26722SOL     OW82703   5.496   5.697   8.609 -0.4870 -0.1924 -0.2153
26722SOL    HW182704   5.444   5.674   8.532  0.4809  0.0197 -0.9435
26722SOL    HW282705   5.485   5.623   8.668  0.3044 -1.2276 -1.3490
26723SOL     OW82706   9.819   9.278   1.239  0.4065  0.5947  0.1996
26723SOL    HW182707   9.907   9.251   1.215  1.4314  2.8285  1.3606
26723SOL    HW282708   9.811   9.367   1.206 -1.1737  0.6796  0.7578
26724SOL     OW82709   1.018   7.316   4.721  0.3208  0.5954 -0.1952
26724SOL    HW182710   0.958   7.268   4.778  0.6624 -2.1426 -2.0559
26724SOL    HW282711   1.097   7.328   4.775 -0.7965  1.6301  1.2497
26725SOL     OW82712   2.479   6.153   0.973  0.1810 -0.0918 -0.0728
26725SOL    HW182713   2.558   6.106   0.947 -0.0752  0.7464 -2.5162
26725SOL    HW282714   2.408   6.089   0.961  0.4047 -0.6563  1.5420
26726SOL     OW82715   2.014   2.873   5.890 -0.2661  0.1133 -0.0930
26726SOL    HW182716   1.969   2.791   5.872 -1.4644  0.5109  0.9756
26726SOL    HW282717   1.981   2.900   5.976  0.8141  1.2367 -0.0097
26727SOL     OW82718   2.030   9.324   2.454  0.0302  0.0141 -0.4565
26727SOL    HW182719   2.055   9.275   2.376  2.0746 -1.6101  1.1371
26727SOL    HW282720   1.974   9.265   2.504  2.0339 -0.5554  1.2027
26728SOL     OW82721   5.630   8.907   6.517  0.0999 -0.3688 -0.2293
26728SOL    HW182722   5.596   8.994   6.538  1.1140 -0.3309  1.3380
26728SOL    HW282723   5.641   8.865   6.602 -0.8129 -2.2105 -0.9943
26729SOL     OW82724   3.389   9.613   4.595 -0.1385  0.4880  0.2659
26729SOL    HW182725   3.426   9.529   4.623 -1.3064 -0.8762 -2.1089
26729SOL    HW282726   3.458   9.676   4.612  1.3646 -1.2023  0.6603
26730SOL     OW82727   1.174   3.246   5.094  0.1407  0.5581  0.1399
26730SOL    HW182728   1.265   3.269   5.073 -0.0885  0.9488 -0.4323
26730SOL    HW282729   1.172   3.150   5.088 -0.0172  0.6716 -2.0667
26731SOL     OW82730   5.096   1.992   5.705 -0.9379 -0.2252  0.0931
26731SOL    HW182731   5.161   2.037   5.651  0.3011 -0.4751  1.3196
26731SOL    HW282732   5.119   1.900   5.698 -1.0047 -0.2935  0.7149
26732SOL     OW82733   6.299   1.310   5.774 -0.4708  0.3183  0.0811
26732SOL    HW182734   6.279   1.292   5.682  0.1133 -0.5134  0.1113
26732SOL    HW282735   6.215   1.334   5.813 -0.9066 -0.3564 -0.4342
26733SOL     OW82736   5.307   7.394   8.965 -0.1995 -0.3230 -0.0736
26733SOL    HW182737   5.213   7.406   8.956 -0.2967 -1.3724 -0.5158
26733SOL    HW282738   5.322   7.384   9.059 -0.2596  1.9742  0.1947
26734SOL     OW82739   4.923   1.461   8.181  0.0379 -0.6496 -0.5794
26734SOL    HW182740   4.973   1.520   8.237  0.0800 -1.7613  0.5466
26734SOL    HW282741   4.989   1.420   8.124  0.5311 -2.6050  1.3423
26735SOL     OW82742   6.946   9.671   2.127 -0.0841  0.5042 -0.8084
26735SOL    HW182743   6.913   9.581   2.120  1.1106  0.0258 -0.3915
26735SOL    HW282744   6.878   9.718   2.176  0.0960 -0.6041  0.5311
26736SOL     OW82745   2.627   2.064   2.458  0.2431  0.4024 -0.1833
26736SOL    HW182746   2.559   2.073   2.391 -0.7609 -0.4882  0.6856
26736SOL    HW282747   2.583   2.018   2.530  1.6971  0.0621  0.5047
26737SOL     OW82748   0.526   3.681   8.223 -0.6405  0.3393 -0.4784
26737SOL    HW182749   0.515   3.775   8.216 -2.6502  0.0766 -1.0466
26737SOL    HW282750   0.446   3.644   8.185  1.0025 -1.6259 -2.1321
26738SOL     OW82751   6.931   7.022   8.242  0.3092 -0.1924 -0.0602
26738SOL    HW182752   6.965   6.946   8.196 -2.2000 -1.5473  0.2278
26738SOL    HW282753   6.898   6.988   8.325 -0.0929  1.3326  0.4270
26739SOL     OW82754   7.395   5.149   9.525  0.1493 -0.3670 -1.0690
26739SOL    HW182755   7.428   5.172   9.438  1.2241 -0.7749 -0.7757
26739SOL    HW282756   7.324   5.212   9.541  1.3769  1.1130 -1.3259
26740SOL     OW82757   1.905   1.534   5.911 -0.6263 -0.4387 -0.3374
26740SOL    HW182758   1.862   1.511   5.828 -1.1985 -1.5978  0.2774
26740SOL    HW282759   1.921   1.450   5.954  1.0078  0.0652  0.0702
26741SOL     OW82760   1.254   2.518   0.527  0.1465  0.3224  0.1414
26741SOL    HW182761   1.256   2.603   0.483 -0.0993 -0.6287 -1.7113
26741SOL    HW282762   1.170   2.480   0.504 -0.7043  0.4681  2.7570
26742SOL     OW82763   0.459   7.643   5.431 -0.0530  0.0926  0.2093
26742SOL    HW182764   0.434   7.551   5.443  0.2625  0.1051  0.9435
26742SOL    HW282765   0.539   7.653   5.482  0.1675  0.6632 -0.2430
26743SOL     OW82766   7.634   0.086   3.286  0.3660 -0.2889 -0.0753
26743SOL    HW182767   7.612   0.129   3.368 -0.5907  1.1689 -1.0644
26743SOL    HW282768   7.656   0.158   3.227  0.9426 -1.3109 -1.1175
26744SOL     OW82769   6.765   9.106   7.869  0.0287 -0.0546 -0.2187
26744SOL    HW182770   6.831   9.167   7.836  1.9311 -2.9540 -1.9405
26744SOL    HW282771   6.813   9.025   7.886 -2.7910 -1.6937  0.2174
26745SOL     OW82772   7.303   2.692   8.187  0.0031  0.0693 -0.1305
26745SOL    HW182773   7.279   2.719   8.275  1.7330 -0.9774  0.6996
26745SOL    HW282774   7.243   2.620   8.166  1.2186 -1.3826  1.2318
26746SOL     OW82775   3.200   4.995   8.974  0.0244 -0.4894  0.1612
26746SOL    HW182776   3.107   4.981   8.953 -0.4161  0.6107  1.3116
26746SOL    HW282777   3.231   4.910   9.003 -0.6001 -0.8843 -0.2987
26747SOL     OW82778   6.790   4.050   0.368  0.3740  0.0495  0.0043
26747SOL    HW182779   6.779   3.957   0.391  1.5146 -0.0213  0.2977
26747SOL    HW282780   6.871   4.076   0.411  0.0148  1.2200 -0.0066
26748SOL     OW82781   4.501   1.750   7.048 -0.2109  0.2159 -0.7331
26748SOL    HW182782   4.460   1.779   7.129 -1.2671 -0.5842 -0.9746
26748SOL    HW282783   4.589   1.789   7.050 -0.2619  0.2822  0.7421
26749SOL     OW82784   3.584   7.462   6.637 -0.3745 -0.2431  0.3519
26749SOL    HW182785   3.602   7.372   6.666  0.5145 -0.2468 -0.1929
26749SOL    HW282786   3.493   7.477   6.660 -0.6361 -1.4250  0.0882
26750SOL     OW82787   5.036   2.049   6.034  0.0890  0.0674  0.1366
26750SOL    HW182788   4.964   2.111   6.019 -0.7751 -0.7330  0.9463
26750SOL    HW282789   5.089   2.053   5.954 -1.2948  0.0648 -0.7834
26751SOL     OW82790   9.676   5.893   5.771  0.0475  0.4493 -0.7770
26751SOL    HW182791   9.715   5.810   5.742  0.5046  0.6241 -0.6472
26751SOL    HW282792   9.681   5.950   5.694 -0.7798  0.1760 -1.0404
26752SOL     OW82793   9.182   4.809   1.918 -0.0559 -0.0644  0.0451
26752SOL    HW182794   9.223   4.815   1.832 -0.9161  0.9753 -0.3089
26752SOL    HW282795   9.242   4.854   1.977  0.9724 -1.5560  0.1663
26753SOL     OW82796   3.807   4.853   9.461 -0.3407 -0.0492  0.1836
26753SOL    HW182797   3.796   4.786   9.529  1.3944 -0.7935 -0.2433
26753SOL    HW282798   3.743   4.831   9.394 -0.8884 -0.3257  0.7990
26754SOL     OW82799   1.446   1.157   0.366  0.5908  0.2771 -0.4590
26754SOL    HW182800   1.384   1.213   0.413  0.5552  1.0749 -1.4399
26754SOL    HW282801   1.392   1.092   0.322  0.6854 -1.1078  1.3909
26755SOL     OW82802   3.950   5.442   3.069 -0.0611 -0.1795  0.9076
26755SOL    HW182803   4.018   5.502   3.036  1.0614 -0.3445  2.8740
26755SOL    HW282804   3.877   5.500   3.093  0.5757  0.2980  1.7113
26756SOL     OW82805   8.148   4.117   8.699 -0.3255 -0.2608  0.6762
26756SOL    HW182806   8.102   4.120   8.614 -1.3874 -0.2502  1.2385
26756SOL    HW282807   8.227   4.067   8.682 -0.9763 -1.0323 -0.1186
26757SOL     OW82808   3.963   6.845   9.941 -0.2569  0.0761 -0.1587
26757SOL    HW182809   3.946   6.936   9.916 -1.1913 -0.3451 -1.0827
26757SOL    HW282810   3.935   6.793   9.865  1.8401 -0.8815 -0.3239
26758SOL     OW82811   3.426   7.421   2.286  0.0082  0.4015 -0.1679
26758SOL    HW182812   3.482   7.396   2.213 -0.7631 -2.1262  0.0791
26758SOL    HW282813   3.350   7.363   2.280  0.0476 -0.0559  2.7887
26759SOL     OW82814   4.885   7.575   6.446  0.6912  0.2026 -0.7024
26759SOL    HW182815   4.791   7.592   6.438  0.6727 -0.0278 -0.9978
26759SOL    HW282816   4.918   7.649   6.497 -0.3114 -1.7172  2.8829
26760SOL     OW82817   4.670   2.222   3.441 -0.4580 -0.0693  0.3652
26760SOL    HW182818   4.735   2.281   3.477  1.6373 -1.9976 -0.1368
26760SOL    HW282819   4.663   2.151   3.506 -1.2343 -0.4296 -0.1035
26761SOL     OW82820   1.304   1.035   8.938 -0.1583 -0.0425 -0.8992
26761SOL    HW182821   1.392   1.051   8.970  0.2631  1.5773 -2.7899
26761SOL    HW282822   1.251   1.104   8.978 -0.0894  0.4754 -1.6794
26762SOL     OW82823   7.714   4.149   7.859  0.2664 -0.2881 -0.1889
26762SOL    HW182824   7.679   4.195   7.935 -1.5527  0.2083 -1.3089
26762SOL    HW282825   7.682   4.198   7.784  0.5882 -1.7994 -1.3441
26763SOL     OW82826   2.777   7.714   9.064 -0.1914 -0.0458  0.3713
26763SOL    HW182827   2.728   7.636   9.039 -1.8248  0.5883  1.4396
26763SOL    HW282828   2.849   7.682   9.118 -0.1426 -0.9059 -0.2054
26764SOL     OW82829   4.026   5.189   4.119 -0.1046  0.4415  0.1173
26764SOL    HW182830   4.077   5.118   4.080 -3.2672 -2.6406  1.2901
26764SOL    HW282831   4.048   5.186   4.212 -1.1617  0.2045  0.3633
26765SOL     OW82832   8.760   4.431   9.181  0.0790 -0.5329 -0.5037
26765SOL    HW182833   8.747   4.341   9.151 -1.0244 -0.8291  0.8172
26765SOL    HW282834   8.671   4.464   9.194  0.5127  0.0008  1.1679
26766SOL     OW82835   2.137   6.524   5.166  0.9783 -0.6980  0.8828
26766SOL    HW182836   2.170   6.435   5.179  1.6490 -0.4047  1.2058
26766SOL    HW282837   2.207   6.580   5.199  1.0739 -0.0192 -0.4704
26767SOL     OW82838   0.594   5.934   6.070 -0.2083 -0.0601 -0.2963
26767SOL    HW182839   0.537   5.999   6.028  0.3261  0.7545  0.2261
26767SOL    HW282840   0.593   5.959   6.163  0.3824 -0.5166 -0.1688
26768SOL     OW82841   4.858   3.048   1.975  0.6024 -0.4823 -0.6642
26768SOL    HW182842   4.819   3.048   2.062  0.1293 -1.4928 -0.8659
26768SOL    HW282843   4.936   2.993   1.983 -0.5738 -2.2945 -1.3516
26769SOL     OW82844   8.934   1.120   5.430 -0.2040 -0.3659  0.1573
26769SOL    HW182845   8.901   1.151   5.346  2.1829  0.9542 -0.3232
26769SOL    HW282846   8.870   1.152   5.494 -0.7341  0.7237 -0.9046
26770SOL     OW82847   1.590   3.074   9.178 -0.3438 -0.8631  0.2653
26770SOL    HW182848   1.586   3.091   9.273 -2.0352 -0.3328  0.1177
26770SOL    HW282849   1.657   3.006   9.169  0.6070 -0.1680  1.7353
26771SOL     OW82850   1.446   0.359   8.880 -0.3570  0.6444 -0.3603
26771SOL    HW182851   1.420   0.356   8.972  1.4376  0.9037  0.1751
26771SOL    HW282852   1.471   0.450   8.864  3.5268 -0.2548  0.1431
26772SOL     OW82853   5.531   7.700   6.102  0.4593 -0.0417 -0.0554
26772SOL    HW182854   5.527   7.618   6.150  0.1064  0.3109  0.5297
26772SOL    HW282855   5.464   7.692   6.035 -0.6718  0.3838  1.0006
26773SOL     OW82856   5.953   5.500   1.780  0.3770  0.2543 -0.0181
26773SOL    HW182857   5.884   5.546   1.827  0.7918  1.1176 -0.2393
26773SOL    HW282858   5.916   5.415   1.759 -1.8256  1.8824 -3.0666
26774SOL     OW82859   2.327   2.654   4.176  0.2747  0.3918 -0.3431
26774SOL    HW182860   2.375   2.635   4.257  1.7081 -0.2850 -1.3201
26774SOL    HW282861   2.394   2.689   4.117 -0.1107 -2.0259 -2.2623
26775SOL     OW82862   3.140   1.627   1.477  0.2792  0.0137  0.4301
26775SOL    HW182863   3.117   1.672   1.395  0.9462  1.0399  0.8038
26775SOL    HW282864   3.160   1.537   1.450 -0.0403  0.2025 -0.4613
26776SOL     OW82865   8.596   6.960   4.615  0.3242 -0.1638  0.1781
26776SOL    HW182866   8.667   6.896   4.620  0.9761  0.4972 -0.5123
26776SOL    HW282867   8.611   7.007   4.533 -0.9756 -0.0818 -0.0252
26777SOL     OW82868   2.541   0.321   7.532  0.2727 -0.3434  0.4547
26777SOL    HW182869   2.485   0.259   7.579 -0.9564  0.7486  0.4518
26777SOL    HW282870   2.627   0.310   7.573 -0.3225 -0.8443  1.6054
26778SOL     OW82871   4.196   1.351   8.785 -0.2977  0.4146  0.1487
26778SOL    HW182872   4.154   1.282   8.733  0.8173  1.3435 -2.0838
26778SOL    HW282873   4.132   1.422   8.788 -1.7294 -0.9387  3.0597
26779SOL     OW82874   3.683   6.720   2.527 -0.7171  0.2586  0.0178
26779SOL    HW182875   3.774   6.698   2.548 -0.8232  1.9422  2.3667
26779SOL    HW282876   3.638   6.636   2.523  0.5733 -0.4695  0.5652
26780SOL     OW82877   2.891   2.996   8.229 -0.1200  0.2750  0.0669
26780SOL    HW182878   2.961   2.934   8.247 -0.6186 -0.2493  0.2251
26780SOL    HW282879   2.906   3.026   8.140 -0.4360 -0.8124 -0.3584
26781SOL     OW82880   1.744   2.557   0.760  0.1761 -0.2948  0.0717
26781SOL    HW182881   1.703   2.584   0.842  0.3226  1.4505 -0.4227
26781SOL    HW282882   1.793   2.478   0.783 -0.0758 -0.0143  1.5865
26782SOL     OW82883   4.027   5.799   2.229  0.0496 -0.3604  0.0608
26782SOL    HW182884   4.048   5.731   2.294 -1.4740 -0.7455  0.1786
26782SOL    HW282885   3.932   5.793   2.218  0.2526 -0.1292 -2.0381
26783SOL     OW82886   9.839   3.258   0.030  0.1120 -0.2987 -0.5951
26783SOL    HW182887   9.869   3.348   0.039  0.6206 -0.5909  0.8265
26783SOL    HW282888   9.884   3.211   0.100 -2.1281 -1.1377  0.3462
26784SOL     OW82889   4.827   7.175   1.665 -0.4744  0.3635 -0.3138
26784SOL    HW182890   4.786   7.237   1.606 -1.0426  0.1101 -0.1848
26784SOL    HW282891   4.762   7.159   1.734  0.4163  1.1288  0.7230
26785SOL     OW82892   1.741   3.417   3.386  0.6822 -0.7165  0.0097
26785SOL    HW182893   1.822   3.440   3.431  1.5282  1.0198 -2.3200
26785SOL    HW282894   1.760   3.431   3.293 -1.6593 -2.2402 -0.7496
26786SOL     OW82895   4.242   4.043   4.710  0.0552  0.3180  0.2891
26786SOL    HW182896   4.160   4.015   4.668 -0.4004  0.7880  0.8631
26786SOL    HW282897   4.219   4.124   4.756  1.1145  1.0636 -0.4796
26787SOL     OW82898   7.504   0.931   3.977  0.1092  0.0023  0.2034
26787SOL    HW182899   7.522   1.016   3.936 -0.4818 -0.1255 -0.3254
26787SOL    HW282900   7.525   0.944   4.069  0.2641  0.6522  0.0777
26788SOL     OW82901   6.236   2.686   2.989 -0.4327  0.6527 -0.2859
26788SOL    HW182902   6.332   2.685   2.983 -0.3004  0.6988  1.6661
26788SOL    HW282903   6.212   2.594   2.998 -0.6200  0.6049 -1.1787
26789SOL     OW82904   8.751   5.194   8.199  0.2552  0.3407  0.2720
26789SOL    HW182905   8.842   5.212   8.175  0.7381 -3.0259 -0.6939
26789SOL    HW282906   8.756   5.163   8.289  0.2997 -1.3761 -0.3017
26790SOL     OW82907   7.893   7.510   6.693 -0.0590  0.2200  0.1780
26790SOL    HW182908   7.949   7.448   6.740 -0.4028  0.8484  1.4501
26790SOL    HW282909   7.922   7.596   6.723 -0.3348  0.6246 -0.7172
26791SOL     OW82910   7.043   4.865   5.910 -0.0752 -0.6762  0.0184
26791SOL    HW182911   7.076   4.907   5.830  1.8742 -2.1426  0.0087
26791SOL    HW282912   6.970   4.920   5.937  1.8466  2.2551 -0.4613
26792SOL     OW82913   8.135   4.203   0.256 -0.2158  0.0222 -0.1382
26792SOL    HW182914   8.229   4.216   0.270 -0.7076  2.0542  1.4886
26792SOL    HW282915   8.121   4.109   0.267  1.3143 -0.0171  1.5067
26793SOL     OW82916   0.216   8.812   0.854 -0.6760 -0.2687  0.2182
26793SOL    HW182917   0.125   8.781   0.848  0.2731 -3.0136 -1.1636
26793SOL    HW282918   0.254   8.790   0.769  1.0478  1.7330  0.4312
26794SOL     OW82919   2.785   5.887   4.377 -0.0863  0.1394  0.8380
26794SOL    HW182920   2.701   5.934   4.379 -1.2358 -1.8711  1.4173
26794SOL    HW282921   2.788   5.841   4.460  1.0402 -0.7876  0.2907
26795SOL     OW82922   3.809   0.101   0.776 -0.1998  0.6096  0.7261
26795SOL    HW182923   3.733   0.156   0.761 -0.4997 -0.2444 -0.9927
26795SOL    HW282924   3.882   0.150   0.740 -0.4368  0.0183 -0.6107
26796SOL     OW82925   9.496   1.964   6.044 -0.3597  0.6775 -0.1500
26796SOL    HW182926   9.549   1.927   5.973 -1.2311 -2.4686  0.7625
26796SOL    HW282927   9.416   1.994   6.001 -0.5753 -0.5523 -0.6419
26797SOL     OW82928   8.429   3.037   9.466 -0.1451  0.1796 -0.3101
26797SOL    HW182929   8.473   2.957   9.436  2.4489  0.9025  1.3318
26797SOL    HW282930   8.375   3.064   9.392 -0.0045 -2.3363 -1.3989
26798SOL     OW82931   8.034   1.534   2.658 -0.6713  0.1692  0.3174
26798SOL    HW182932   7.955   1.579   2.628 -0.4140  0.1230 -0.4474
26798SOL    HW282933   8.067   1.488   2.580  1.2839  1.8962  0.0838
26799SOL     OW82934   5.816   0.230   2.798  0.6816  0.3899 -0.1049
26799SOL    HW182935   5.795   0.310   2.749  2.3679  1.0814  0.2781
26799SOL    HW282936   5.912   0.227   2.798  0.6416 -0.8889  1.1051
26800SOL     OW82937   8.835   8.300   7.060 -0.0996  0.4596  0.1127
26800SOL    HW182938   8.888   8.285   7.138  3.1194  0.4820 -1.9841
26800SOL    HW282939   8.835   8.395   7.048 -1.5812  0.5516  0.7012
26801SOL     OW82940  10.075   3.287   9.648 -0.0183  0.0924 -0.2262
26801SOL    HW182941   9.991   3.252   9.678 -0.1341 -0.0508 -0.7101
26801SOL    HW282942  10.055   3.375   9.617 -0.1832 -0.3079 -1.2816
26802SOL     OW82943   0.534   8.369   8.011 -0.2677 -0.3184 -0.5824
26802SOL    HW182944   0.548   8.370   7.916  1.3577  0.8165 -0.3447
26802SOL    HW282945   0.588   8.296   8.042 -0.5231 -0.4657 -0.4791
26803SOL     OW82946   6.425   3.159   2.979 -0.0099 -0.2211  0.4323
26803SOL    HW182947   6.500   3.217   2.996  1.7455 -2.4432  0.4820
26803SOL    HW282948   6.440   3.128   2.889 -2.1440  1.0910 -0.4242
26804SOL     OW82949   0.837   0.765   3.540 -0.0759 -0.0616  0.7516
26804SOL    HW182950   0.822   0.774   3.634  0.3307  1.2601  0.7002
26804SOL    HW282951   0.932   0.767   3.530 -0.1032 -0.6215  0.3489
26805SOL     OW82952   1.723   0.618   0.936  0.4366 -0.3421  0.3785
26805SOL    HW182953   1.642   0.609   0.886 -0.5291  1.0110  1.6663
26805SOL    HW282954   1.723   0.543   0.995  0.2373 -0.4835  0.1980
26806SOL     OW82955  10.136   2.634  10.001  0.2816 -0.0206 -0.6477
26806SOL    HW182956  10.122   2.713   9.948 -1.8368 -1.3480 -2.1933
26806SOL    HW282957  10.204   2.586   9.954  0.5192  0.2166 -0.5408
26807SOL     OW82958   9.465   7.435   1.412 -0.0525 -0.3479 -0.7513
26807SOL    HW182959   9.521   7.359   1.394  1.0840 -0.2535  2.0601
26807SOL    HW282960   9.508   7.507   1.367  0.8336 -0.7214 -0.5272
26808SOL     OW82961   2.097   8.830   6.394  0.1919  0.8727  0.4605
26808SOL    HW182962   2.174   8.828   6.337 -0.3159  0.3458 -0.2277
26808SOL    HW282963   2.074   8.923   6.399  0.1683  0.9160 -0.3151
26809SOL     OW82964   7.485   3.767   0.765 -0.3708  0.1528  0.3124
26809SOL    HW182965   7.493   3.672   0.779  0.6350  0.2265  0.2614
26809SOL    HW282966   7.522   3.782   0.678  0.1226  0.6836  0.6101
26810SOL     OW82967   3.923   5.564   0.409 -0.4390 -0.0688  0.5680
26810SOL    HW182968   3.957   5.636   0.355 -2.1936  1.4427  1.4176
26810SOL    HW282969   3.841   5.538   0.367 -0.2348 -0.9998  0.7416
26811SOL     OW82970   8.892   4.227  10.119 -0.7744  0.4635  0.4419
26811SOL    HW182971   8.985   4.211  10.130 -0.8238  0.2393  0.5530
26811SOL    HW282972   8.869   4.285  10.192 -0.8278  0.0785  0.7380
26812SOL     OW82973   0.017   2.848   6.125  0.0616 -0.2042  0.0815
26812SOL    HW182974  -0.076   2.842   6.106  0.0001  2.7298 -0.7424
26812SOL    HW282975   0.060   2.847   6.039  0.6121  0.9102  0.3336
26813SOL     OW82976   1.493  10.082   2.921 -0.2829 -0.0218  0.1598
26813SOL    HW182977   1.410  10.102   2.965 -0.1833 -0.5825  0.6076
26813SOL    HW282978   1.558  10.136   2.965  0.0072 -1.3739  1.4483
26814SOL     OW82979   6.409   1.222   4.800 -0.4325 -0.1669  0.4771
26814SOL    HW182980   6.367   1.167   4.866 -3.1602  2.0771  0.7329
26814SOL    HW282981   6.441   1.298   4.850  0.7813 -0.1769 -0.2688
26815SOL     OW82982   3.432   2.033   0.662  0.4698 -0.0077  0.2372
26815SOL    HW182983   3.398   2.052   0.575  1.1598  2.2317  0.4383
26815SOL    HW282984   3.354   2.027   0.717  0.1799  1.8275  0.0643
26816SOL     OW82985   2.962   8.907   0.814 -0.2282  0.0672 -0.2183
26816SOL    HW182986   3.001   8.992   0.793  1.4158 -0.3731  0.9999
26816SOL    HW282987   3.016   8.844   0.767  0.0595 -0.4883  0.8453
26817SOL     OW82988   4.226   6.424   4.311 -0.0584 -0.0798 -0.6127
26817SOL    HW182989   4.248   6.447   4.221 -3.0737  1.7241 -0.9598
26817SOL    HW282990   4.132   6.406   4.308  0.0769 -1.3798  1.9128
26818SOL     OW82991   3.584   7.847   5.728 -0.2229  0.2815  0.0225
26818SOL    HW182992   3.491   7.866   5.742 -0.2705  1.5188 -1.8671
26818SOL    HW282993   3.628   7.932   5.735  0.8649 -0.3756  1.4949
26819SOL     OW82994   8.832   1.172   8.762 -0.1392  0.0951  0.2271
26819SOL    HW182995   8.815   1.078   8.753 -3.0645  0.6140 -0.1516
26819SOL    HW282996   8.842   1.203   8.672 -0.8758  0.4178  0.2524
26820SOL     OW82997   7.560   2.322   0.228 -0.0560 -0.6431  0.0750
26820SOL    HW182998   7.575   2.318   0.134  0.1995  0.0168  0.0865
26820SOL    HW282999   7.641   2.290   0.268  1.2081  2.3968  0.1265
26821SOL     OW83000   6.857   6.544   4.766  0.2131 -0.9352  0.0925
26821SOL    HW183001   6.928   6.582   4.713 -0.8455 -0.4083 -0.9683
26821SOL    HW283002   6.791   6.614   4.771 -1.5011 -2.4239 -1.3680
26822SOL     OW83003   5.668   4.846   2.293  0.0205 -0.4361 -0.2270
26822SOL    HW183004   5.583   4.873   2.329  0.5534  0.6020  0.2897
26822SOL    HW283005   5.722   4.924   2.301  0.8956 -0.9685 -0.9626
26823SOL     OW83006   4.033   5.593   1.377  0.3830  0.0149  0.3442
26823SOL    HW183007   3.941   5.571   1.364  0.6631  0.0769 -1.8989
26823SOL    HW283008   4.073   5.512   1.409 -0.2365 -0.3009  0.3193
26824SOL     OW83009   0.138   6.106   3.605 -0.1362 -0.0951  0.2228
26824SOL    HW183010   0.191   6.083   3.529  1.5436  0.7828  1.1120
26824SOL    HW283011   0.171   6.191   3.633 -2.0407  0.4849  0.7817
26825SOL     OW83012   2.459   5.241   0.296 -0.4846  0.1147 -0.6115
26825SOL    HW183013   2.543   5.205   0.326 -0.3734  1.1350  0.3662
26825SOL    HW283014   2.484   5.310   0.235 -0.6659 -0.7473 -1.6625
26826SOL     OW83015   6.371   3.059   9.516 -0.3407 -0.2024 -0.1453
26826SOL    HW183016   6.458   3.096   9.499 -0.3027 -0.5956 -0.8060
26826SOL    HW283017   6.314   3.136   9.524 -0.0546  0.0382 -0.3757
26827SOL     OW83018   3.320   1.118   9.155  0.2513  0.4066  0.4812
26827SOL    HW183019   3.385   1.178   9.120  1.2397 -1.4456 -0.9273
26827SOL    HW283020   3.264   1.096   9.080 -0.7659  0.3977  1.2233
26828SOL     OW83021   1.456   7.935   2.041 -0.0305 -0.1928  0.0217
26828SOL    HW183022   1.378   7.896   2.000  0.2837  0.2336 -0.9758
26828SOL    HW283023   1.457   8.025   2.009  2.1544 -0.8263 -1.8020
26829SOL     OW83024   8.999   6.178   9.801 -0.3241 -0.2798  0.3589
26829SOL    HW183025   9.077   6.185   9.856 -1.9554 -0.8478  2.8544
26829SOL    HW283026   9.022   6.114   9.734  0.9195 -1.4207  1.8487
26830SOL     OW83027   9.114   7.531   3.257 -0.5544 -0.2015  0.5454
26830SOL    HW183028   9.197   7.535   3.304 -1.7602  1.2037  2.6427
26830SOL    HW283029   9.093   7.438   3.251  0.7177 -0.5055  0.8120
26831SOL     OW83030   7.809   4.386   0.922  0.5133 -0.4248 -0.0770
26831SOL    HW183031   7.856   4.403   1.004  0.8545 -1.1659 -0.1129
26831SOL    HW283032   7.758   4.466   0.907  1.0444  0.0225  0.4490
26832SOL     OW83033   2.123   6.552   7.144  0.0078  0.8153  0.2759
26832SOL    HW183034   2.118   6.648   7.144 -1.1450  0.7618  0.3273
26832SOL    HW283035   2.115   6.528   7.052 -0.3144  0.7504  0.3179
26833SOL     OW83036   8.849   3.912   5.405  0.1934 -0.2342 -0.3764
26833SOL    HW183037   8.812   3.987   5.359 -1.3059 -0.6724  0.0832
26833SOL    HW283038   8.940   3.936   5.420  0.1154  0.8690 -1.5369
26834SOL     OW83039   2.181   5.657   1.025 -0.0429  0.2587 -0.0811
26834SOL    HW183040   2.243   5.632   1.093 -0.5283 -0.8309 -0.0325
26834SOL    HW283041   2.140   5.737   1.057  0.3936  0.2577  0.4782
26835SOL     OW83042   6.617   4.058   4.351 -0.1628  0.4563 -0.0047
26835SOL    HW183043   6.695   4.114   4.352  0.3080 -0.1925 -0.0377
26835SOL    HW283044   6.647   3.977   4.311 -0.5554 -0.2273  1.0793
26836SOL     OW83045   8.240   7.353  10.160 -0.0324 -0.2957  0.0107
26836SOL    HW183046   8.291   7.286  10.114 -1.0214 -1.1956  0.1988
26836SOL    HW283047   8.177   7.303  10.212 -0.4470  0.7754  0.5431
26837SOL     OW83048   3.457   2.486   6.599  0.3938 -0.0710  0.3241
26837SOL    HW183049   3.394   2.536   6.547  0.2428 -0.3669  0.2178
26837SOL    HW283050   3.416   2.401   6.611 -0.2134  0.4705  2.1978
26838SOL     OW83051   4.072   3.444   0.906 -0.3557  0.1260 -0.3002
26838SOL    HW183052   4.001   3.480   0.852 -2.2641 -0.5380  1.7057
26838SOL    HW283053   4.116   3.520   0.942 -0.0982  0.5413 -1.4535
26839SOL     OW83054   5.503   8.184   0.987  0.2656  0.2313  0.4114
26839SOL    HW183055   5.435   8.142   1.039  0.2969  0.5880  0.7445
26839SOL    HW283056   5.459   8.257   0.943  0.5746  0.9189  1.2034
26840SOL     OW83057   1.804   3.454   4.753 -0.5013  0.2579 -0.4493
26840SOL    HW183058   1.885   3.500   4.776  2.0038 -1.9261 -4.1572
26840SOL    HW283059   1.769   3.503   4.678 -0.7039 -0.7640 -1.0371
26841SOL     OW83060   0.991   0.587   2.627  0.0377  0.0723  0.3986
26841SOL    HW183061   1.017   0.544   2.545 -1.6384  0.9389 -0.6077
26841SOL    HW283062   0.906   0.548   2.648  0.0055  0.5706  1.1900
26842SOL     OW83063   3.890   1.893   5.537 -0.3793 -0.3698  0.3517
26842SOL    HW183064   3.873   1.851   5.621 -0.8224 -1.2285 -0.1484
26842SOL    HW283065   3.980   1.925   5.544 -0.2272 -0.9081  0.9605
26843SOL     OW83066   6.758   0.211   0.625  0.7053 -0.1854  0.2183
26843SOL    HW183067   6.702   0.260   0.565 -0.1827 -0.5932  0.6922
26843SOL    HW283068   6.701   0.190   0.699  1.9526  0.8817  1.5158
26844SOL     OW83069   7.065   1.796   1.890 -0.0568 -0.5790  0.7195
26844SOL    HW183070   7.095   1.757   1.808  0.2253 -0.7162  0.8868
26844SOL    HW283071   7.012   1.871   1.863  1.7956  0.6693  0.4234
26845SOL     OW83072   6.391   5.535   7.704 -0.5781 -0.0385 -0.0252
26845SOL    HW183073   6.323   5.556   7.769 -0.6612  0.7903 -0.3726
26845SOL    HW283074   6.454   5.606   7.711  1.4758 -1.9793  1.9002
26846SOL     OW83075   6.918   5.985   8.818  0.1836  0.0079  0.8307
26846SOL    HW183076   6.997   5.964   8.768 -0.5314  0.2700 -0.4230
26846SOL    HW283077   6.922   5.927   8.894  0.5772 -1.3961 -0.2429
26847SOL     OW83078   1.015   3.305   4.089 -0.1507 -0.0142 -0.0448
26847SOL    HW183079   0.957   3.335   4.158 -0.0548  0.6717 -0.2558
26847SOL    HW283080   1.011   3.374   4.023  0.6018 -0.1470 -0.2333
26848SOL     OW83081   8.897   3.772   2.886 -0.0820  0.0602  0.1465
26848SOL    HW183082   8.965   3.776   2.819 -0.5906  0.5026 -0.3555
26848SOL    HW283083   8.840   3.701   2.858 -0.1377  0.0602  0.2608
26849SOL     OW83084   2.931   7.613   6.180  0.3402  0.0027  0.1705
26849SOL    HW183085   2.853   7.645   6.226  0.1627 -0.0076 -0.1166
26849SOL    HW283086   2.965   7.543   6.236  1.0498  1.0635  1.0672
26850SOL     OW83087   7.677   0.448   4.363 -0.1944  0.5275  0.3840
26850SOL    HW183088   7.648   0.360   4.340 -4.3339  2.1059 -0.8383
26850SOL    HW283089   7.639   0.465   4.449  0.7760  1.0540  0.7203
26851SOL     OW83090   0.086   0.117   7.683 -0.3948  1.1519  0.9579
26851SOL    HW183091   0.163   0.076   7.722 -0.4761 -0.7110 -0.7775
26851SOL    HW283092   0.102   0.211   7.693  0.5997  0.7766  3.4329
26852SOL     OW83093   5.138   1.604   4.184 -0.4108  0.0999  0.8523
26852SOL    HW183094   5.195   1.554   4.126 -1.2235 -0.6151  0.6728
26852SOL    HW283095   5.177   1.594   4.271 -0.6305 -0.9261  0.8323
26853SOL     OW83096   7.799   5.132   5.040  0.0592 -0.0099  0.1013
26853SOL    HW183097   7.781   5.201   4.976  1.6825 -0.5069 -0.9354
26853SOL    HW283098   7.736   5.063   5.018 -3.8868  2.3307  3.2522
26854SOL     OW83099   3.591   8.216   4.647  0.5186 -0.1902 -0.0146
26854SOL    HW183100   3.639   8.204   4.728  1.5473  0.8564 -0.4651
26854SOL    HW283101   3.507   8.171   4.662  0.4994  0.4336  1.7952
26855SOL     OW83102   0.731   6.405   2.097  0.5699  0.3107  0.0261
26855SOL    HW183103   0.715   6.378   2.006 -0.3043  0.0262  0.2634
26855SOL    HW283104   0.644   6.430   2.130  0.7973 -0.1267  0.9619
26856SOL     OW83105   2.126   3.272   7.072  0.4135  0.2196  0.1133
26856SOL    HW183106   2.081   3.193   7.101 -1.0790  0.6497 -0.9232
26856SOL    HW283107   2.089   3.290   6.985  3.3085  0.0647 -1.2242
26857SOL     OW83108   3.384   9.464   6.903  0.0333 -0.3519 -0.3656
26857SOL    HW183109   3.372   9.559   6.910 -0.8891 -0.4621 -0.3489
26857SOL    HW283110   3.431   9.452   6.820 -0.4877  0.0781 -0.7307
26858SOL     OW83111   2.314   5.471   3.646  0.1220 -0.3141 -0.6494
26858SOL    HW183112   2.289   5.505   3.560 -0.3773 -1.6280 -1.0327
26858SOL    HW283113   2.359   5.389   3.627  0.7391 -0.2064  0.3038
26859SOL     OW83114   8.667   4.089   7.032 -0.5165 -0.4942 -0.0392
26859SOL    HW183115   8.630   4.165   7.078  1.0848  0.1648  0.2056
26859SOL    HW283116   8.604   4.019   7.048 -2.3674  0.9301 -0.8229
26860SOL     OW83117   5.504   4.477   0.960  0.1383  0.1634 -0.2340
26860SOL    HW183118   5.494   4.540   0.888  0.4437 -0.0372 -0.4506
26860SOL    HW283119   5.419   4.431   0.963  0.3481 -0.2815 -0.8967
26861SOL     OW83120   0.149   6.089   2.094 -0.1532 -0.1894 -0.2891
26861SOL    HW183121   0.181   6.093   2.184 -1.1624 -1.4286  0.1362
26861SOL    HW283122   0.193   6.013   2.056 -2.5475 -1.9439  0.3188
26862SOL     OW83123   0.488   8.634   7.177  0.6974 -0.8364  0.7564
26862SOL    HW183124   0.517   8.717   7.141  0.0590 -1.5511 -1.4388
26862SOL    HW283125   0.534   8.627   7.261  2.2281  0.8302  0.0821
26863SOL     OW83126   9.909   3.352   3.486  0.0702 -0.1350  0.3910
26863SOL    HW183127   9.815   3.351   3.507 -0.2594  0.7595 -0.9780
26863SOL    HW283128   9.912   3.361   3.390  1.5815  4.0663  0.7577
26864SOL     OW83129   5.629   5.380   4.325  0.0084 -0.3934 -0.6329
26864SOL    HW183130   5.604   5.470   4.346  0.6057 -0.1600 -0.9052
26864SOL    HW283131   5.651   5.383   4.232 -0.2907 -0.8950 -0.7223
26865SOL     OW83132   9.923   2.634   7.261  0.0748  0.6881 -0.2197
26865SOL    HW183133   9.926   2.693   7.336  0.1714 -1.2054  1.2944
26865SOL    HW283134  10.015   2.610   7.245  0.0208  0.8078 -0.7274
26866SOL     OW83135   4.815   2.826   8.096  0.0248  0.0781  0.6156
26866SOL    HW183136   4.856   2.796   8.014  1.7552  2.9345  0.3816
26866SOL    HW283137   4.793   2.745   8.142  0.7755 -1.5779 -1.8243
26867SOL     OW83138   6.164   0.030   4.759  0.0567  0.6761  0.1801
26867SOL    HW183139   6.159   0.099   4.825  0.0960 -0.0538  0.9467
26867SOL    HW283140   6.233  -0.028   4.789 -2.2694 -1.5960  1.3762
26868SOL     OW83141   8.083   8.037   8.381  0.5611  0.8224  0.3421
26868SOL    HW183142   8.102   8.008   8.471  0.5938  1.4686  0.5415
26868SOL    HW283143   8.052   7.957   8.337  0.5911  0.4896  0.9121
26869SOL     OW83144   1.732   9.523   4.423  0.1339 -0.3985  0.1523
26869SOL    HW183145   1.691   9.604   4.452 -0.7061 -0.9358  0.4883
26869SOL    HW283146   1.776   9.546   4.341 -0.3911  0.3071  0.0647
26870SOL     OW83147   9.078   3.703   9.951 -0.2406  0.3647  0.3728
26870SOL    HW183148   9.056   3.698   9.858  0.6750  0.5493  0.1428
26870SOL    HW283149   9.111   3.616   9.974  1.0104  0.7650  0.1374
26871SOL     OW83150   3.488   6.733   1.804 -0.1495  0.3682  0.4156
26871SOL    HW183151   3.424   6.663   1.794  0.5952  0.0021 -2.2364
26871SOL    HW283152   3.571   6.688   1.822  0.4990  0.4458 -2.1301
26872SOL     OW83153   7.848   0.990   0.582 -0.1252 -0.3501  0.0638
26872SOL    HW183154   7.885   0.981   0.670 -0.2783  0.1614  0.1807
26872SOL    HW283155   7.866   0.906   0.541 -0.0224 -0.5838  0.5735
26873SOL     OW83156   9.612   5.772   0.819  0.5248  0.6854 -0.1249
26873SOL    HW183157   9.567   5.691   0.844  0.3804  1.0016  0.6254
26873SOL    HW283158   9.588   5.785   0.727 -1.7752  1.4172  0.5646
26874SOL     OW83159   2.462   0.784   1.814 -0.2157 -0.2679  0.0289
26874SOL    HW183160   2.429   0.739   1.891 -1.2720  0.2247 -0.1281
26874SOL    HW283161   2.554   0.803   1.835 -0.7247  0.6387  1.5318
26875SOL     OW83162   1.301   0.565   5.907 -0.0951  0.1366 -0.6677
26875SOL    HW183163   1.301   0.572   6.003  0.1412 -2.4584 -0.4602
26875SOL    HW283164   1.393   0.553   5.884 -0.2352  0.0090 -1.1673
26876SOL     OW83165  10.052   5.293   6.380  0.1581 -0.4086  0.1021
26876SOL    HW183166  10.014   5.205   6.379 -2.2856  0.6229 -0.4354
26876SOL    HW283167  10.080   5.306   6.471  0.4503 -1.6878  0.2066
26877SOL     OW83168   9.759   4.067   5.378 -0.2068 -0.0237 -0.1174
26877SOL    HW183169   9.717   4.144   5.341 -0.8606 -0.3054  0.0404
26877SOL    HW283170   9.697   4.034   5.443  0.5459 -0.0397  0.6002
26878SOL     OW83171   9.717   7.825   4.776  0.0602 -0.0290 -0.2167
26878SOL    HW183172   9.748   7.915   4.784 -1.3165  0.5525 -1.3616
26878SOL    HW283173   9.729   7.788   4.864 -0.8822  1.7462  0.6861
26879SOL     OW83174   4.696   8.030   4.937 -0.5354 -1.0652 -0.5552
26879SOL    HW183175   4.642   7.979   4.877 -2.6456  0.5696 -0.1026
26879SOL    HW283176   4.654   8.116   4.941  1.2387 -0.2173  0.9998
26880SOL     OW83177   5.569  10.150   1.936  0.0922 -0.2804  0.0811
26880SOL    HW183178   5.480  10.143   1.971  0.4720  0.3837  1.2332
26880SOL    HW283179   5.614  10.206   1.999  1.1072  0.0485 -0.9341
26881SOL     OW83180   6.934   6.049   3.837  0.6136 -0.6171 -0.2893
26881SOL    HW183181   6.896   6.011   3.917 -0.4127  2.0235  0.5211
26881SOL    HW283182   6.892   6.134   3.829  1.4149 -0.4529 -3.1667
26882SOL     OW83183   3.895   6.227   6.513 -0.2716  0.5883  0.5072
26882SOL    HW183184   3.965   6.272   6.466 -0.5895  1.7932  1.1513
26882SOL    HW283185   3.914   6.245   6.605  0.0552 -1.3090  0.8320
26883SOL     OW83186   8.291   6.230   6.759  0.0094  0.8844 -0.0100
26883SOL    HW183187   8.351   6.304   6.762  0.5106  0.4943 -0.3729
26883SOL    HW283188   8.347   6.153   6.748 -0.4135  0.3254  1.6143
26884SOL     OW83189   9.339   8.819   8.340  0.1926 -0.5287 -0.4269
26884SOL    HW183190   9.359   8.852   8.252 -0.2693 -1.1219 -0.7576
26884SOL    HW283191   9.254   8.777   8.331 -1.8936  3.1471  1.2779
26885SOL     OW83192   2.091   5.239   4.477  0.0230  0.1295 -0.5040
26885SOL    HW183193   2.075   5.333   4.479  1.5775  0.4282 -1.2848
26885SOL    HW283194   2.102   5.219   4.384  0.8636 -0.6126 -0.2451
26886SOL     OW83195   5.246   2.455   0.574  0.0089 -0.8845 -0.0831
26886SOL    HW183196   5.241   2.547   0.599  1.8877 -0.5771 -0.7353
26886SOL    HW283197   5.266   2.409   0.655 -0.1535 -0.6350  0.1009
26887SOL     OW83198   3.153   4.260   3.464  0.3817  0.4045  0.3795
26887SOL    HW183199   3.108   4.235   3.545 -0.3717  1.3787  0.2629
26887SOL    HW283200   3.164   4.177   3.417 -3.0825  0.3817 -0.4986
26888SOL     OW83201   7.680   9.888   6.365 -0.4472 -0.3290  0.2715
26888SOL    HW183202   7.615   9.863   6.298 -0.4090 -2.3853  0.9635
26888SOL    HW283203   7.642   9.858   6.447  1.7784 -2.4565  0.5901
26889SOL     OW83204   7.072   5.272   1.868 -0.1515  0.0534 -0.1832
26889SOL    HW183205   7.112   5.280   1.782 -0.5077  0.1005 -0.3478
26889SOL    HW283206   7.049   5.180   1.876 -1.0001  0.2248 -0.5446
26890SOL     OW83207   9.789   8.389   4.269 -0.0347  0.3362  0.1401
26890SOL    HW183208   9.832   8.468   4.238  0.7979  0.3862  1.3814
26890SOL    HW283209   9.833   8.368   4.351  0.1353 -1.7504 -0.4555
26891SOL     OW83210   1.848   2.044   4.562  0.1960 -0.0444 -0.2041
26891SOL    HW183211   1.900   1.983   4.509  1.1643  1.3581 -0.8898
26891SOL    HW283212   1.760   2.038   4.526  0.7049  0.4082 -1.5793
26892SOL     OW83213   6.818   1.186   2.729  0.6500 -0.3797 -0.1143
26892SOL    HW183214   6.838   1.248   2.800 -1.4842 -0.8478  0.9447
26892SOL    HW283215   6.722   1.188   2.722  0.8259 -0.4989 -2.8713
26893SOL     OW83216   2.076   1.960   2.666 -0.0108 -0.0572  0.0431
26893SOL    HW183217   2.063   2.047   2.628 -0.3383 -0.6274 -1.1994
26893SOL    HW283218   2.062   1.972   2.760  0.1579  1.2680 -0.0970
26894SOL     OW83219   7.382   0.638   0.198  0.5774  0.2023  0.2288
26894SOL    HW183220   7.374   0.549   0.164 -0.1303  0.3638 -0.0504
26894SOL    HW283221   7.308   0.685   0.159 -0.3397  0.3570  2.0766
26895SOL     OW83222   7.900   1.091   6.897 -0.3204  0.0658  0.2488
26895SOL    HW183223   7.824   1.123   6.945 -0.6061 -0.0665 -0.1082
26895SOL    HW283224   7.896   1.138   6.813  0.2966  0.4594  0.4423
26896SOL     OW83225   5.877   6.512   5.510 -0.1728 -0.1176 -0.3640
26896SOL    HW183226   5.967   6.544   5.498  0.4989 -0.9735  1.9845
26896SOL    HW283227   5.824   6.566   5.452  1.6665  1.4649 -0.6257
26897SOL     OW83228   0.427   5.167   9.590 -0.2855  0.2528  0.0961
26897SOL    HW183229   0.335   5.145   9.576 -0.4352 -1.0704  2.8809
26897SOL    HW283230   0.425   5.233   9.660  0.9463 -0.7339  1.0718
26898SOL     OW83231   8.502   6.146   6.170 -0.5189 -0.2950 -0.1283
26898SOL    HW183232   8.495   6.202   6.247 -0.1556 -1.0208  0.4479
26898SOL    HW283233   8.577   6.180   6.121 -1.1509  0.5704 -0.5057
26899SOL     OW83234   7.007   0.783   7.399  0.5831  0.1686  0.5032
26899SOL    HW183235   6.915   0.763   7.415  0.2840 -0.4569 -1.8690
26899SOL    HW283236   7.025   0.858   7.456 -1.9799  1.6221 -0.4974
26900SOL     OW83237   2.375   1.453   8.611 -0.1761  0.6457  0.0761
26900SOL    HW183238   2.470   1.463   8.614 -0.2086  2.1799 -2.5973
26900SOL    HW283239   2.357   1.377   8.666  2.6599 -0.1147  0.0221
26901SOL     OW83240   1.264   8.517   3.617  0.2291  0.4772  0.0691
26901SOL    HW183241   1.260   8.443   3.556  0.3042  0.6645 -0.1633
26901SOL    HW283242   1.229   8.482   3.699  0.4666  0.1232  0.0206
26902SOL     OW83243   1.572   9.519   9.305  0.0194 -0.0759  0.1177
26902SOL    HW183244   1.664   9.544   9.293 -0.1774  0.2940 -0.6058
26902SOL    HW283245   1.576   9.434   9.350  0.6798  1.7465  3.6655
26903SOL     OW83246   9.850   5.953   1.033  0.5078  0.1592  0.5145
26903SOL    HW183247   9.783   6.018   1.050  0.1664 -0.1006  0.1693
26903SOL    HW283248   9.913   5.964   1.103  1.1360  1.7603 -0.2817
26904SOL     OW83249   8.319   7.736   7.394  0.3837 -0.0698  0.0987
26904SOL    HW183250   8.314   7.780   7.479  0.3262 -2.2161  1.2443
26904SOL    HW283251   8.302   7.644   7.414  1.5105 -0.7834 -2.0775
26905SOL     OW83252   3.261   7.852   5.757 -0.3219  0.4624  0.3483
26905SOL    HW183253   3.250   7.852   5.662 -1.3180 -0.4665  0.4520
26905SOL    HW283254   3.171   7.858   5.792 -0.2986 -3.1035  1.2133
26906SOL     OW83255   9.969   3.314   0.874 -0.2632  0.2980 -0.2150
26906SOL    HW183256  10.039   3.376   0.893 -0.6724  0.3277  1.2526
26906SOL    HW283257  10.000   3.266   0.797  0.7928  1.1769 -0.3502
26907SOL     OW83258   2.079   3.423   4.570  0.3349 -0.1541 -0.1429
26907SOL    HW183259   2.008   3.385   4.518  0.4872  0.0513 -0.5068
26907SOL    HW283260   2.158   3.400   4.522  0.5221 -0.4443  0.3015
26908SOL     OW83261   7.084   3.956   5.475 -1.1952  0.7841  0.0214
26908SOL    HW183262   7.048   3.882   5.524 -2.5521  1.6759  0.4015
26908SOL    HW283263   7.042   3.952   5.389 -1.6264  1.3631  0.1966
26909SOL     OW83264   7.316   4.808   6.001 -0.4463 -0.8243 -0.4129
26909SOL    HW183265   7.348   4.881   6.055  1.5401  0.3058 -2.9750
26909SOL    HW283266   7.226   4.832   5.980 -0.0628  0.5428 -0.5849
26910SOL     OW83267   1.685   4.538   9.390  0.1319  0.2212  0.3517
26910SOL    HW183268   1.640   4.473   9.336 -0.2503  0.0168  0.9108
26910SOL    HW283269   1.663   4.514   9.480  1.1791  0.2514  0.6266
26911SOL     OW83270   9.366   6.964   0.014 -0.4537  0.4350  0.1541
26911SOL    HW183271   9.432   7.028  -0.010 -0.4045  0.3038 -0.0737
26911SOL    HW283272   9.358   6.970   0.109  0.5588 -0.2109  0.2812
26912SOL     OW83273  10.098   5.934   9.833  0.4572 -0.3253 -0.0965
26912SOL    HW183274  10.075   6.016   9.875  0.7624 -1.4792  2.4177
26912SOL    HW283275  10.016   5.883   9.833  0.4660 -0.3528 -0.8924
26913SOL     OW83276   5.469   5.241   2.573  0.3575 -0.2135  0.0894
26913SOL    HW183277   5.445   5.150   2.589 -1.3674  0.1771 -0.1707
26913SOL    HW283278   5.562   5.245   2.596 -0.1891 -1.3889  2.8049
26914SOL     OW83279   1.387   3.280   8.728  0.8892  0.4784 -0.0836
26914SOL    HW183280   1.456   3.278   8.794  1.1247  0.4848 -0.3247
26914SOL    HW283281   1.324   3.214   8.756  2.2335 -1.3364 -1.1945
26915SOL     OW83282   3.931   0.754   3.843 -0.3794 -0.0306 -0.4035
26915SOL    HW183283   3.880   0.803   3.778  0.3434  2.2578  0.6988
26915SOL    HW283284   3.894   0.666   3.841 -0.9085  0.1863 -3.3287
26916SOL     OW83285   5.062   4.041   5.445 -0.2062  0.1013 -0.0892
26916SOL    HW183286   5.065   3.948   5.423  2.7994 -0.0615  0.7602
26916SOL    HW283287   5.064   4.043   5.541 -2.2860  1.0104 -0.0513
26917SOL     OW83288   4.485   0.668   7.530 -0.1819  0.4697  0.2672
26917SOL    HW183289   4.579   0.661   7.520  0.0544  1.0260  1.9746
26917SOL    HW283290   4.460   0.743   7.475  0.0776 -0.8984 -1.7493
26918SOL     OW83291   4.848  10.078   1.293  0.8248 -0.0196  0.2172
26918SOL    HW183292   4.924  10.131   1.316  0.7112 -0.1309  0.8584
26918SOL    HW283293   4.821  10.111   1.207 -0.3916  2.2563  1.4244
26919SOL     OW83294   1.839   3.947   1.467  0.3748  0.2339 -0.8421
26919SOL    HW183295   1.830   3.853   1.481 -0.1453  0.3013 -0.7305
26919SOL    HW283296   1.916   3.971   1.519  0.8845 -0.2353 -1.3644
26920SOL     OW83297   1.619   5.214   5.921  0.3588 -0.2940 -0.5274
26920SOL    HW183298   1.536   5.260   5.927  0.0563 -1.0517  1.6524
26920SOL    HW283299   1.600   5.125   5.949  1.8818 -0.4661  0.0554
26921SOL     OW83300   7.141   6.667   3.458 -0.1319 -0.0911  0.4616
26921SOL    HW183301   7.072   6.604   3.479  0.0332 -0.1212  0.9144
26921SOL    HW283302   7.222   6.621   3.477 -0.0162  0.3373  1.0270
26922SOL     OW83303  10.177   7.867   0.798 -0.2490 -0.0849 -0.4494
26922SOL    HW183304  10.132   7.859   0.714 -2.1764 -0.0321  0.5542
26922SOL    HW283305  10.191   7.777   0.827 -3.1340 -0.1179  0.9971
26923SOL     OW83306   3.444   4.340   2.181  0.1376 -0.0937  0.0686
26923SOL    HW183307   3.373   4.292   2.224 -0.9205  1.0529 -0.3665
26923SOL    HW283308   3.459   4.292   2.099 -0.9281  0.3164 -0.3765
26924SOL     OW83309   1.507   8.411  10.000  0.1163  0.2793  0.3272
26924SOL    HW183310   1.491   8.412  10.094 -2.7832 -1.7126 -0.0653
26924SOL    HW283311   1.533   8.501   9.979  1.2448  0.6269  3.0794
26925SOL     OW83312   3.927   3.316   5.780  0.3640 -0.5308 -0.6352
26925SOL    HW183313   3.884   3.232   5.795 -2.7006  0.7395 -1.8680
26925SOL    HW283314   3.958   3.343   5.866 -0.8276 -1.7901  0.2161
26926SOL     OW83315   2.068  10.014   5.051 -0.3794  0.3148  0.1498
26926SOL    HW183316   2.082  10.076   4.980 -1.8137  0.1966 -0.2647
26926SOL    HW283317   2.016   9.944   5.012 -0.5863 -0.0923  1.1376
26927SOL     OW83318   9.077   7.110   6.780  0.6564 -0.1491 -0.3854
26927SOL    HW183319   9.129   7.190   6.774 -0.5853  0.9151  1.8959
26927SOL    HW283320   9.002   7.135   6.835 -0.7932 -2.3622 -1.2712
26928SOL     OW83321   0.625   5.850   4.868 -0.0289  1.0245 -0.0762
26928SOL    HW183322   0.661   5.777   4.919 -1.4837  0.4577  0.1865
26928SOL    HW283323   0.641   5.826   4.777 -0.6422  0.2851  0.0038
26929SOL     OW83324   7.907   9.772   7.407 -0.1006  0.2535 -0.2262
26929SOL    HW183325   7.830   9.773   7.464 -0.1530  1.4478 -0.3115
26929SOL    HW283326   7.952   9.690   7.429 -0.2416  0.5895  1.3465
26930SOL     OW83327   0.002   6.015   7.845  0.4139  0.2452 -0.1400
26930SOL    HW183328  -0.050   6.048   7.919 -0.7607 -1.1845 -0.3032
26930SOL    HW283329   0.014   5.922   7.864  1.0341  0.0963 -1.2207
26931SOL     OW83330  10.012   7.253   7.507 -0.4398 -0.7745  0.6784
26931SOL    HW183331  10.008   7.286   7.597 -0.1081 -1.1125  0.8172
26931SOL    HW283332   9.921   7.253   7.478 -0.2523  2.1885 -0.0269
26932SOL     OW83333   1.975   6.084   3.552  0.3708 -0.3153  0.3349
26932SOL    HW183334   2.023   6.107   3.632  1.4985  2.3880 -1.0704
26932SOL    HW283335   1.947   6.167   3.515 -0.1133 -1.5183 -2.1222
26933SOL     OW83336   2.957   3.583   7.559 -0.4772 -0.3642  0.5459
26933SOL    HW183337   3.002   3.660   7.594 -1.4278  0.1317  0.7032
26933SOL    HW283338   2.982   3.580   7.467  1.0544 -0.9575  0.9607
26934SOL     OW83339  10.183   6.849   8.763  0.2433  0.2420  0.1866
26934SOL    HW183340  10.233   6.930   8.767  0.8976 -0.2062  1.3071
26934SOL    HW283341  10.152   6.835   8.852  0.1096 -0.7199 -0.0070
26935SOL     OW83342   1.355   8.237   1.442  0.0084  0.2667  0.4734
26935SOL    HW183343   1.284   8.237   1.378 -0.8479  0.7354  1.3978
26935SOL    HW283344   1.369   8.145   1.462  0.5312  0.0929 -0.6545
26936SOL     OW83345   7.689   7.593   4.626  0.6003  0.9229  0.0198
26936SOL    HW183346   7.705   7.686   4.607  0.4474  0.7682 -0.8387
26936SOL    HW283347   7.775   7.552   4.621  0.0732  0.1803 -4.1255
26937SOL     OW83348   9.352   7.608   5.622 -0.1369 -0.5026 -0.2581
26937SOL    HW183349   9.407   7.619   5.699  0.1978 -0.2493 -0.5302
26937SOL    HW283350   9.414   7.605   5.549 -0.4592 -0.6011 -0.5296
26938SOL     OW83351   2.667   8.059   7.858 -0.1333  0.6526 -0.4000
26938SOL    HW183352   2.667   7.966   7.880 -0.1665  0.9721  0.9967
26938SOL    HW283353   2.678   8.061   7.763 -0.1189 -0.7746 -0.4417
26939SOL     OW83354   7.592   4.868  10.154 -0.6998  0.2553 -0.1904
26939SOL    HW183355   7.552   4.901  10.074 -0.0165  1.1603 -0.1630
26939SOL    HW283356   7.647   4.940  10.185 -0.2286 -0.4271  0.5847
26940SOL     OW83357   0.648   4.168   1.612 -0.3989 -0.1776 -0.2289
26940SOL    HW183358   0.689   4.251   1.586  0.1401 -1.1339 -2.4851
26940SOL    HW283359   0.718   4.120   1.656  0.3735 -1.0186 -2.3673
26941SOL     OW83360  10.042   4.022   3.755 -0.6343  0.7362  0.4424
26941SOL    HW183361   9.992   4.089   3.802 -0.9752  0.9373 -0.1979
26941SOL    HW283362  10.132   4.034   3.783 -0.4342  2.5565 -0.9549
26942SOL     OW83363   7.724   1.956   0.269 -0.1780 -0.4075  0.1921
26942SOL    HW183364   7.637   1.981   0.237  0.3711 -0.8444 -1.7141
26942SOL    HW283365   7.726   1.861   0.260  1.1072 -0.2513 -1.4273
26943SOL     OW83366   4.883   5.867   3.825  0.1644 -0.3366 -0.2848
26943SOL    HW183367   4.831   5.791   3.797  2.2327 -1.0763 -2.2409
26943SOL    HW283368   4.834   5.943   3.792 -2.3676 -0.6903  2.4226
26944SOL     OW83369   7.779   4.500   6.043  0.2309 -0.0852  0.4151
26944SOL    HW183370   7.755   4.413   6.075  0.2233  0.5279  2.1222
26944SOL    HW283371   7.875   4.501   6.043  0.2314 -0.0317  0.5968
26945SOL     OW83372   8.691   2.184   3.432 -0.0967  0.0584 -0.5316
26945SOL    HW183373   8.700   2.275   3.404 -1.7299  0.9376  1.6483
26945SOL    HW283374   8.613   2.152   3.386 -0.2685  0.1658 -0.3150
26946SOL     OW83375   9.926   3.925   9.164  0.1679 -0.1557 -0.2558
26946SOL    HW183376   9.866   3.905   9.236  0.5894 -1.0633 -0.1528
26946SOL    HW283377   9.915   3.853   9.103 -0.5281  0.8476 -1.3474
26947SOL     OW83378   2.211   8.325   1.270  0.4496  0.1347 -0.3754
26947SOL    HW183379   2.205   8.276   1.352 -2.3466 -1.8236 -1.6977
26947SOL    HW283380   2.287   8.288   1.225 -0.0346 -1.1372 -0.1642
26948SOL     OW83381   4.032   9.154   2.459  0.0393 -0.9861  0.4025
26948SOL    HW183382   3.969   9.154   2.387  0.2050  2.0824  0.1864
26948SOL    HW283383   3.977   9.154   2.538 -0.2694  0.7606  0.2182
26949SOL     OW83384   6.808   9.126   6.636 -0.0042 -0.2044  0.4142
26949SOL    HW183385   6.806   9.032   6.618 -1.2619 -0.0397 -0.3430
26949SOL    HW283386   6.729   9.160   6.595  0.6558  1.2539  0.3165
26950SOL     OW83387   6.144   5.602   5.133 -0.8682 -0.3681  0.3547
26950SOL    HW183388   6.144   5.642   5.046 -0.0335  0.0980  0.5696
26950SOL    HW283389   6.169   5.511   5.116  0.8268  0.0971  0.2712
26951SOL     OW83390   0.397   2.152   8.322 -0.5896  0.2518 -0.0654
26951SOL    HW183391   0.379   2.088   8.253 -0.0292 -1.6485  1.4919
26951SOL    HW283392   0.312   2.190   8.344 -0.8261  0.5503 -1.4757
26952SOL     OW83393   3.371   4.964   9.668 -0.1432  0.5931 -0.0159
26952SOL    HW183394   3.314   4.954   9.743 -0.5695  3.5783  0.1273
26952SOL    HW283395   3.319   5.013   9.604  1.2869  0.9448 -0.9545
26953SOL     OW83396   6.499   2.645   8.215  0.1765  0.1553 -0.6141
26953SOL    HW183397   6.540   2.723   8.252 -0.8635 -0.0041  0.9359
26953SOL    HW283398   6.550   2.572   8.251 -0.5476  0.0207  0.1700
26954SOL     OW83399   9.447   9.685   6.629  0.2904 -0.0166 -0.3493
26954SOL    HW183400   9.400   9.711   6.549  0.1365 -3.7092 -1.5190
26954SOL    HW283401   9.523   9.744   6.632 -0.9410  1.7291 -1.9070
26955SOL     OW83402   8.721   2.696   9.009 -0.0436  0.0777 -0.3483
26955SOL    HW183403   8.727   2.791   9.012 -1.7346  0.2146 -0.5133
26955SOL    HW283404   8.646   2.675   9.066 -0.4092 -1.0513 -1.2163
26956SOL     OW83405   0.589   7.840   9.122 -0.6974 -0.3093 -0.4719
26956SOL    HW183406   0.619   7.922   9.161  0.3754 -1.9481  2.3597
26956SOL    HW283407   0.613   7.846   9.030  1.4670  1.5767  0.1701
26957SOL     OW83408   8.290   1.364   5.308 -0.7278  0.2335  0.2193
26957SOL    HW183409   8.224   1.330   5.370  1.2048 -0.8907  1.7053
26957SOL    HW283410   8.276   1.312   5.228 -0.5178 -1.2256  1.1039
26958SOL     OW83411   7.096   8.972   4.080 -0.0510  0.2361  0.4754
26958SOL    HW183412   7.007   8.983   4.114 -0.0100 -0.1037  0.6983
26958SOL    HW283413   7.084   8.934   3.993 -0.1696  1.3981 -0.0289
26959SOL     OW83414   1.123   3.424   0.466 -0.2454  0.4894 -0.2154
26959SOL    HW183415   1.193   3.478   0.428  0.7954 -0.2252  0.6589
26959SOL    HW283416   1.136   3.338   0.427 -1.7072  0.7858 -1.3624
26960SOL     OW83417   6.637   1.070   9.253  0.4209  0.9950 -0.8653
26960SOL    HW183418   6.624   1.043   9.162  1.2666  3.2489 -1.6839
26960SOL    HW283419   6.714   1.127   9.250  0.7516  0.6978  1.3504
26961SOL     OW83420   5.231   6.773   9.476 -0.1487 -0.4657  0.5931
26961SOL    HW183421   5.302   6.829   9.509 -1.1911  1.2959 -0.1028
26961SOL    HW283422   5.179   6.752   9.554  0.6463 -1.0590  0.9692
26962SOL     OW83423   6.426   6.742   4.663 -0.4367  0.2420  0.3352
26962SOL    HW183424   6.365   6.732   4.736 -1.2546 -1.0986 -0.5070
26962SOL    HW283425   6.424   6.657   4.619 -0.5652  1.2938 -1.7121
26963SOL     OW83426   2.058   7.245   3.647  0.3957  0.0589 -0.4027
26963SOL    HW183427   2.132   7.185   3.641 -1.3723 -2.2879  0.2099
26963SOL    HW283428   1.990   7.204   3.594 -1.5316  0.4118  1.6962
26964SOL     OW83429   7.663   2.876   7.585  0.0481 -0.1186 -0.3031
26964SOL    HW183430   7.607   2.928   7.643  1.7297 -0.1938  1.4574
26964SOL    HW283431   7.670   2.791   7.629 -0.4061 -0.9047 -1.7348
26965SOL     OW83432   1.752   2.670   1.897  0.2298 -0.3397  0.2839
26965SOL    HW183433   1.731   2.612   1.971  1.6928 -0.8969  0.2653
26965SOL    HW283434   1.846   2.683   1.902  0.3276 -0.2643 -1.3983
26966SOL     OW83435   2.285   2.024   4.334  0.0124  0.1056 -0.1051
26966SOL    HW183436   2.232   1.945   4.327 -1.5145  1.0737  0.2234
26966SOL    HW283437   2.288   2.043   4.428  1.3879 -0.2268 -0.0734
26967SOL     OW83438   9.400   0.032   3.014 -0.3481 -0.2173 -0.1710
26967SOL    HW183439   9.474  -0.028   3.007 -0.4727 -0.1571 -2.4520
26967SOL    HW283440   9.363   0.035   2.926 -0.5456  2.9441 -0.0539
26968SOL     OW83441   1.143   1.690   5.506 -0.2464  0.7961 -0.0746
26968SOL    HW183442   1.157   1.722   5.595  0.0286  0.1089  0.1401
26968SOL    HW283443   1.125   1.768   5.454 -0.7116  1.1689  0.6415
26969SOL     OW83444   0.628   1.045   0.196 -0.2874  0.4102  0.3704
26969SOL    HW183445   0.645   1.138   0.188 -1.4096  0.7190  1.4520
26969SOL    HW283446   0.559   1.038   0.262 -0.3768 -1.1631  0.1452
26970SOL     OW83447   2.992   7.485   7.760  0.0140  0.1462 -0.1300
26970SOL    HW183448   3.079   7.446   7.765 -0.1665 -0.2685 -0.2734
26970SOL    HW283449   2.972   7.489   7.667 -0.7234 -1.0977 -0.0429
26971SOL     OW83450   3.774   1.122   9.516 -0.2368  0.1332 -0.4099
26971SOL    HW183451   3.704   1.167   9.468 -0.9483 -0.6072 -0.0769
26971SOL    HW283452   3.751   1.029   9.509  0.3164 -0.0572  0.3326
26972SOL     OW83453   0.741   0.495   1.573 -0.3227 -0.2538 -0.0990
26972SOL    HW183454   0.705   0.439   1.642  0.1732  1.5615  1.6777
26972SOL    HW283455   0.681   0.570   1.570 -0.3860 -0.3620 -1.7214
26973SOL     OW83456   0.614   5.475   8.065  0.2218  0.5555  0.3069
26973SOL    HW183457   0.574   5.562   8.066 -1.8356 -0.2692 -3.1940
26973SOL    HW283458   0.557   5.421   8.119  0.6878  1.0235  1.2782
26974SOL     OW83459   0.128   4.688   5.602  0.4384  0.4694  0.0965
26974SOL    HW183460   0.101   4.631   5.673 -0.5235  0.4754 -0.2580
26974SOL    HW283461   0.076   4.768   5.613  0.3512  0.5072 -0.5566
26975SOL     OW83462   2.554   3.115   6.584  0.0016 -0.4793  0.5791
26975SOL    HW183463   2.524   3.205   6.569 -0.6107 -1.2387 -3.0796
26975SOL    HW283464   2.487   3.077   6.640 -1.3897  0.4254 -0.4309
26976SOL     OW83465   8.985   8.052   8.606 -0.0588  0.1073  0.1713
26976SOL    HW183466   9.068   8.027   8.566  0.3146 -1.0037  1.6096
26976SOL    HW283467   8.945   7.969   8.633 -2.0189  0.5600 -1.2219
26977SOL     OW83468   0.361   5.792   4.852  0.3874  0.4535 -0.3301
26977SOL    HW183469   0.456   5.787   4.867  0.1131 -0.9232  1.1131
26977SOL    HW283470   0.328   5.847   4.923  0.0148  0.3380 -0.4126
26978SOL     OW83471   6.061   1.723   6.011 -0.0135  0.4929 -0.2924
26978SOL    HW183472   6.068   1.631   6.038  0.2449  0.7535  0.5513
26978SOL    HW283473   5.967   1.738   6.002 -0.0392  0.0621 -0.7102
26979SOL     OW83474   1.553   1.959   1.362 -0.2840 -0.2037  0.4829
26979SOL    HW183475   1.563   1.925   1.273 -3.4980  1.3720 -0.5908
26979SOL    HW283476   1.516   1.886   1.411 -0.4635 -0.4489 -0.0079
26980SOL     OW83477   9.789   2.244   0.596 -0.2321  0.1209 -0.5903
26980SOL    HW183478   9.754   2.156   0.586  0.7602 -0.3747  0.2557
26980SOL    HW283479   9.761   2.271   0.684 -0.0074  0.4157 -0.6095
26981SOL     OW83480   5.334   3.013   3.815 -0.4268 -0.3404  0.2555
26981SOL    HW183481   5.337   2.962   3.895  0.5592 -1.7661 -0.6668
26981SOL    HW283482   5.241   3.034   3.802 -0.5866 -0.1354  1.7291
26982SOL     OW83483   4.693   8.785   1.060 -0.2254  0.4410  0.1052
26982SOL    HW183484   4.716   8.738   1.140 -2.8650  0.1774  0.7430
26982SOL    HW283485   4.741   8.739   0.991 -0.9351 -1.7659  1.0269
26983SOL     OW83486   2.672   9.911   5.054  0.4089  0.2259  0.3715
26983SOL    HW183487   2.728   9.850   5.006 -0.5709  0.1490 -0.6885
26983SOL    HW283488   2.585   9.871   5.051  0.3391  0.2080  2.2298
26984SOL     OW83489   6.790   8.139   2.857 -0.4339  0.3897  0.4328
26984SOL    HW183490   6.777   8.098   2.943 -0.5809  1.1473  0.7821
26984SOL    HW283491   6.715   8.198   2.847 -0.9172 -0.3963 -0.6423
26985SOL     OW83492   2.859   1.848   4.240 -0.2547  0.6782  0.4215
26985SOL    HW183493   2.887   1.778   4.298 -0.6650  0.7363  0.6919
26985SOL    HW283494   2.778   1.815   4.200  1.4541 -0.5133 -2.2037
26986SOL     OW83495   5.926   5.634   9.717 -0.0263  0.4388  0.0704
26986SOL    HW183496   5.969   5.720   9.708 -0.2274  0.6526  1.0999
26986SOL    HW283497   5.956   5.602   9.802  0.2706 -0.6449 -0.4373
26987SOL     OW83498   7.590   9.022   2.318 -0.3586  0.2295  0.0000
26987SOL    HW183499   7.596   8.926   2.321 -0.0156  0.2729  0.7519
26987SOL    HW283500   7.585   9.048   2.410 -2.5288  0.8074 -0.2597
26988SOL     OW83501   1.523   0.334   9.846  0.5444 -0.1716 -0.4623
26988SOL    HW183502   1.529   0.304   9.755 -1.8329  1.3918 -1.1770
26988SOL    HW283503   1.532   0.429   9.840 -1.4792  0.1089  0.7200
26989SOL     OW83504   1.474   6.693   0.748 -0.8405  0.8242  0.4126
26989SOL    HW183505   1.431   6.651   0.674 -0.5901  0.3275  0.5492
26989SOL    HW283506   1.557   6.726   0.712 -1.6263  2.3950 -0.0196
26990SOL     OW83507   6.728   0.632   5.538 -0.0483 -0.0887  0.6132
26990SOL    HW183508   6.689   0.691   5.473 -0.8092  0.0633  1.1929
26990SOL    HW283509   6.809   0.602   5.498 -0.3624  0.2362 -0.2881
26991SOL     OW83510   2.129   5.676   4.150  0.0101 -0.8137 -0.4954
26991SOL    HW183511   2.183   5.637   4.220 -0.1150 -2.4996 -1.3004
26991SOL    HW283512   2.093   5.755   4.189  1.4034 -0.7625  0.7591
26992SOL     OW83513   2.951   7.529   4.022  0.5049 -0.0632 -0.5207
26992SOL    HW183514   3.009   7.604   4.009 -1.4654  1.6603  0.3308
26992SOL    HW283515   2.884   7.539   3.953 -1.7937  1.0287  1.7648
26993SOL     OW83516   0.078   6.864   0.501 -0.7390  0.8567 -0.0455
26993SOL    HW183517   0.165   6.872   0.539 -0.7643 -0.4202  0.3060
26993SOL    HW283518   0.018   6.888   0.572 -0.8081 -2.0342  0.9490
26994SOL     OW83519   8.617   7.749   3.259  0.0996  0.3242 -0.2116
26994SOL    HW183520   8.580   7.837   3.253  0.5392  0.5076 -0.2548
26994SOL    HW283521   8.636   7.738   3.352  0.7724  0.5797 -0.3146
26995SOL     OW83522   1.810   6.072   4.647  0.1700 -0.4820 -0.4616
26995SOL    HW183523   1.725   6.114   4.660 -0.3361 -0.7076 -2.9371
26995SOL    HW283524   1.831   6.035   4.733 -0.1400  3.3706  1.3766
26996SOL     OW83525   6.211   0.530   4.251 -0.2689  0.1720  0.0038
26996SOL    HW183526   6.278   0.500   4.190 -0.8041 -0.2867 -0.3633
26996SOL    HW283527   6.136   0.551   4.196 -0.5602  0.3032  0.4493
26997SOL     OW83528   7.089   2.476   4.518 -0.2914 -0.1991  0.3745
26997SOL    HW183529   7.145   2.430   4.456 -0.2302  1.4513 -0.8348
26997SOL    HW283530   7.095   2.425   4.598  2.1234 -0.6181 -0.0353
26998SOL     OW83531   8.294   5.778   2.606  0.4471  0.0693  0.3540
26998SOL    HW183532   8.229   5.715   2.633  0.4141  0.5998  1.5310
26998SOL    HW283533   8.354   5.729   2.550 -1.9799 -0.0021 -2.2977
26999SOL     OW83534   7.421   7.473   6.518  0.4674  0.1250 -0.4952
26999SOL    HW183535   7.383   7.446   6.435  1.0058 -0.7623 -0.4567
26999SOL    HW283536   7.365   7.433   6.585  2.6725 -3.0211 -0.4231
27000SOL     OW83537  10.180   4.002   7.031  0.0527  0.2963  0.1221
27000SOL    HW183538  10.208   4.052   6.954  1.4659 -0.0479  0.3962
27000SOL    HW283539  10.182   4.065   7.103 -1.6084  0.7045 -0.1716
27001SOL     OW83540   5.182   0.856   4.521  0.4599 -0.1487  0.2721
27001SOL    HW183541   5.228   0.774   4.508  0.4352 -0.0679 -0.3755
27001SOL    HW283542   5.194   0.903   4.438 -0.2398  0.1383  0.3285
27002SOL     OW83543   0.482   5.694   3.170  0.2506 -0.3510 -0.3294
27002SOL    HW183544   0.395   5.731   3.159 -0.1394 -1.3861 -0.7970
27002SOL    HW283545   0.470   5.618   3.228  0.8866 -0.3216 -0.1444
27003SOL     OW83546   7.733   8.533   3.131  0.4927  0.0679 -0.5274
27003SOL    HW183547   7.808   8.591   3.145 -0.8245  1.6034  0.3222
27003SOL    HW283548   7.725   8.527   3.036  0.2067  1.8845 -0.6410
27004SOL     OW83549   9.364   8.883   4.246  0.3949 -0.0918  0.5609
27004SOL    HW183550   9.301   8.937   4.198  0.2092 -1.0377 -0.2803
27004SOL    HW283551   9.442   8.883   4.192  0.5914 -0.1986  0.8404
27005SOL     OW83552   9.174   7.240   3.146  0.3329 -0.5672  0.5977
27005SOL    HW183553   9.237   7.228   3.074  1.6460  0.8411  1.4816
27005SOL    HW283554   9.198   7.173   3.210  3.6693  2.4591  2.7594
27006SOL     OW83555   1.825   1.789   3.883 -0.2396  0.3207  0.3412
27006SOL    HW183556   1.858   1.753   3.801 -0.4260  2.3234 -0.6362
27006SOL    HW283557   1.743   1.741   3.898 -1.0028  1.0077 -1.4639
27007SOL     OW83558   2.428   9.971   9.401  0.3134 -0.1122  0.3931
27007SOL    HW183559   2.437   9.888   9.354  0.4345 -1.1969  2.2508
27007SOL    HW283560   2.514  10.012   9.394  0.1263  0.0679 -0.9006
27008SOL     OW83561   2.938   2.694   4.656  0.7002 -0.0808  0.5632
27008SOL    HW183562   3.028   2.721   4.637 -0.1780  3.3407  0.8938
27008SOL    HW283563   2.896   2.691   4.570  0.8986 -0.9086  0.4859
27009SOL     OW83564   6.750   9.796   8.133 -0.2766  0.5365 -0.0661
27009SOL    HW183565   6.691   9.854   8.180 -1.9020  0.5002 -1.9737
27009SOL    HW283566   6.777   9.846   8.056 -2.5692 -1.5266 -2.3286
27010SOL     OW83567   3.050   9.962   4.057 -0.5178 -0.1394  0.0478
27010SOL    HW183568   3.057  10.028   3.989  2.1624 -0.5810 -0.1504
27010SOL    HW283569   3.125   9.905   4.043 -1.2423 -1.6101  1.9312
27011SOL     OW83570   0.464   5.389   7.210  0.0530  0.0234  0.0102
27011SOL    HW183571   0.545   5.415   7.166  0.3250 -1.8605 -0.6713
27011SOL    HW283572   0.413   5.345   7.141 -0.6654 -0.5882  0.9159
27012SOL     OW83573   2.585   8.171   1.186  0.5982 -0.3584  0.3785
27012SOL    HW183574   2.657   8.127   1.142 -0.4066 -1.6932  0.0178
27012SOL    HW283575   2.528   8.202   1.116  0.3589 -0.1287  0.6703
27013SOL     OW83576   1.211   0.159   0.210  0.9858 -0.1146 -0.5544
27013SOL    HW183577   1.261   0.118   0.280 -1.1968 -1.6037  0.2019
27013SOL    HW283578   1.220   0.099   0.135  0.2806 -0.4366 -0.3864
27014SOL     OW83579   8.155   3.084   6.261  0.1191 -0.0070 -0.1778
27014SOL    HW183580   8.110   3.086   6.346  1.4037 -0.4441  0.5190
27014SOL    HW283581   8.220   3.015   6.270  0.4970  0.1832 -1.4110
27015SOL     OW83582   2.160   5.328   1.778 -1.3157 -0.0823  0.2301
27015SOL    HW183583   2.109   5.288   1.848 -1.1439 -0.4252  0.1583
27015SOL    HW283584   2.095   5.355   1.712 -1.3422 -1.1859 -0.2009
27016SOL     OW83585   5.237   9.211   2.624 -0.2161 -0.4268  0.0015
27016SOL    HW183586   5.302   9.236   2.690 -0.2409  1.8235 -0.7700
27016SOL    HW283587   5.156   9.252   2.654 -0.1812  0.7821 -1.5148
27017SOL     OW83588   2.507   9.939   2.962  0.1098 -0.4591  0.3580
27017SOL    HW183589   2.564   9.966   3.034  0.6420  0.7640 -0.5136
27017SOL    HW283590   2.525   9.846   2.951  2.2643  0.0046 -0.1847
27018SOL     OW83591   2.051   5.757   3.153  0.4953  0.0831  0.4910
27018SOL    HW183592   2.032   5.830   3.211  0.3841  0.0611  0.4815
27018SOL    HW283593   2.023   5.679   3.201 -0.4492  0.1347  0.0407
27019SOL     OW83594   4.333   0.730   5.443  0.1512 -0.0745  0.7555
27019SOL    HW183595   4.409   0.715   5.387  0.2547  0.1318  0.8427
27019SOL    HW283596   4.348   0.816   5.482  0.6257 -0.7005  1.9773
27020SOL     OW83597   9.965   2.671   9.316  0.2130  0.0582 -0.2515
27020SOL    HW183598   9.998   2.731   9.249 -0.3067  1.3571  0.6440
27020SOL    HW283599  10.037   2.662   9.378  1.2411 -2.2983 -1.6861
27021SOL     OW83600   7.982   3.462   6.249 -0.6044 -0.0304 -0.1236
27021SOL    HW183601   8.073   3.463   6.279 -0.6012 -1.1168 -0.0820
27021SOL    HW283602   7.988   3.441   6.156 -0.8209 -0.1372 -0.1132
27022SOL     OW83603   7.051   5.245   6.340  0.5558  0.7428 -0.0418
27022SOL    HW183604   7.061   5.274   6.430  0.6499  0.5379  0.0157
27022SOL    HW283605   7.089   5.315   6.287 -0.2600  1.2519  0.0308
27023SOL     OW83606   8.623   6.197   0.437 -0.3143 -0.4700  0.0665
27023SOL    HW183607   8.700   6.254   0.435 -0.3862 -0.3484  0.6528
27023SOL    HW283608   8.573   6.227   0.512 -0.1648 -1.5291  0.6038
27024SOL     OW83609   8.672   2.191   4.019  0.3423 -0.0981  0.0764
27024SOL    HW183610   8.694   2.140   3.941  1.6050  1.1249 -0.3905
27024SOL    HW283611   8.626   2.268   3.985 -1.2820 -0.7489  0.7519
27025SOL     OW83612   9.398   7.021   4.757 -0.4746  0.1229 -0.5382
27025SOL    HW183613   9.478   7.022   4.705  0.5451 -0.3786  0.9717
27025SOL    HW283614   9.416   7.081   4.830 -0.8595 -1.1925  0.6748
27026SOL     OW83615   4.641   6.774   5.456  0.3270  0.0577  0.4763
27026SOL    HW183616   4.703   6.821   5.512  0.2886  1.6588 -0.7805
27026SOL    HW283617   4.691   6.755   5.376  0.5888 -2.7961  1.2430
27027SOL     OW83618   8.784   6.465   5.201 -0.1951 -0.1025 -0.1985
27027SOL    HW183619   8.800   6.422   5.117  0.8807  0.5365 -0.3304
27027SOL    HW283620   8.820   6.553   5.190  0.4585 -0.2014  1.1136
27028SOL     OW83621   5.042   6.196   1.630 -0.8877 -0.0791 -0.2810
27028SOL    HW183622   5.134   6.200   1.655 -0.5529 -0.0346 -1.4565
27028SOL    HW283623   5.041   6.229   1.540 -2.1408  0.5316 -0.0521
27029SOL     OW83624   5.810   6.926   2.669  0.4303  0.4560  0.1804
27029SOL    HW183625   5.804   6.869   2.592 -0.4952  0.5541  0.1651
27029SOL    HW283626   5.741   6.992   2.655 -2.2434 -1.6613  2.8165
27030SOL     OW83627   7.310   7.547   6.959 -0.1475  0.4844 -0.1892
27030SOL    HW183628   7.276   7.472   7.007  0.7305  0.3088  0.1676
27030SOL    HW283629   7.311   7.618   7.024 -1.5596  0.9771 -0.6876
27031SOL     OW83630   3.014   6.510   9.422 -0.0524 -0.1144  0.1470
27031SOL    HW183631   3.033   6.470   9.507 -1.2731 -0.2356  0.3627
27031SOL    HW283632   2.939   6.462   9.388 -1.7314  2.1342  0.5490
27032SOL     OW83633   2.453   5.863   8.180  0.0774  0.0499  0.2548
27032SOL    HW183634   2.486   5.915   8.253 -0.6229 -0.0270  0.6318
27032SOL    HW283635   2.438   5.926   8.110 -0.2047  0.2768  0.5141
27033SOL     OW83636   6.133   2.292   5.958 -0.1903 -0.3397  0.4689
27033SOL    HW183637   6.150   2.247   5.875  2.6211  2.4510 -0.5739
27033SOL    HW283638   6.071   2.361   5.935 -0.4300 -0.3995  0.9523
27034SOL     OW83639   0.591   9.443   6.979 -0.0817 -0.9920  0.3753
27034SOL    HW183640   0.633   9.500   7.043 -0.6963 -1.2271  1.0002
27034SOL    HW283641   0.515   9.493   6.948  1.1442 -0.1927 -1.4234
27035SOL     OW83642   4.723   4.048   4.075  0.1020 -0.8021 -0.0380
27035SOL    HW183643   4.774   4.115   4.030  0.6908 -0.7334  0.7134
27035SOL    HW283644   4.632   4.067   4.053  0.0572  1.6662  2.0029
27036SOL     OW83645   2.716   5.757   8.096 -0.2859 -0.1094 -0.3386
27036SOL    HW183646   2.637   5.798   8.130 -0.2280 -0.4510  0.2035
27036SOL    HW283647   2.691   5.666   8.080  0.4539 -0.6441  1.4198
27037SOL     OW83648   8.231   1.184   3.628 -0.3647  0.0668  0.5210
27037SOL    HW183649   8.245   1.263   3.681 -1.8328  0.1984  0.7262
27037SOL    HW283650   8.211   1.218   3.540  0.8565 -0.1287  0.1518
27038SOL     OW83651   8.320   8.759   7.449 -0.4295  0.1389  0.3301
27038SOL    HW183652   8.285   8.816   7.380  0.8668 -0.5606 -0.9439
27038SOL    HW283653   8.413   8.781   7.453  0.1335 -1.9501 -0.2966
27039SOL     OW83654   1.283   6.683   7.361  0.4741  1.0127 -0.3854
27039SOL    HW183655   1.355   6.720   7.309  0.8638 -1.9574 -2.0361
27039SOL    HW283656   1.326   6.648   7.439  0.5437  1.0237 -0.4185
27040SOL     OW83657   2.287   0.756   7.193  0.4170 -0.2864  0.3332
27040SOL    HW183658   2.281   0.850   7.177  0.3578 -0.3109  0.2096
27040SOL    HW283659   2.198   0.730   7.217 -0.0553 -0.6866 -1.6998
27041SOL     OW83660   1.549   5.429   4.663 -0.5862 -0.1488 -0.5577
27041SOL    HW183661   1.574   5.444   4.754  0.0633 -1.1944 -0.5524
27041SOL    HW283662   1.507   5.511   4.635 -0.9749  0.0974  0.7375
27042SOL     OW83663   8.074   0.890   1.840 -0.5303 -0.1823  0.1584
27042SOL    HW183664   8.008   0.835   1.882 -0.2775  0.8624  1.9455
27042SOL    HW283665   8.158   0.855   1.870 -0.3689  1.1311  1.2805
27043SOL     OW83666   6.778   8.816   1.888  0.1698 -0.3762 -0.1673
27043SOL    HW183667   6.697   8.850   1.850  0.7762  0.3524 -0.8197
27043SOL    HW283668   6.843   8.826   1.819  1.0943  0.1428  0.7597
27044SOL     OW83669   3.529   8.684   5.253  0.0087  0.3263 -0.2191
27044SOL    HW183670   3.517   8.590   5.271 -1.7868  0.7238  0.8252
27044SOL    HW283671   3.592   8.687   5.181 -0.5554 -1.7227 -0.8348
27045SOL     OW83672   6.676   1.575   2.773 -0.0765 -0.0974 -0.3065
27045SOL    HW183673   6.662   1.614   2.860 -0.4493  1.7503 -1.1640
27045SOL    HW283674   6.765   1.601   2.749  0.4786 -1.6306  0.0065
27046SOL     OW83675  10.018   4.659   7.627  0.2540  0.5522 -0.0375
27046SOL    HW183676   9.976   4.656   7.541  0.1691  1.7752 -0.0414
27046SOL    HW283677  10.107   4.690   7.609  0.8564 -1.0273  0.0975
27047SOL     OW83678   8.930   1.763   0.937 -0.3288  0.6153 -0.3771
27047SOL    HW183679   8.940   1.706   0.861  1.8981  0.2152  0.1632
27047SOL    HW283680   8.970   1.846   0.911  0.4844  0.4623  0.3536
27048SOL     OW83681   2.549   1.732   8.194 -0.2288 -0.6405 -0.1213
27048SOL    HW183682   2.581   1.797   8.131 -1.2562 -0.0611 -0.0734
27048SOL    HW283683   2.600   1.653   8.176 -1.3362 -0.8682 -2.5387
27049SOL     OW83684   5.542   7.676   2.965  0.2905 -0.1205 -0.0117
27049SOL    HW183685   5.494   7.594   2.951  0.6868  0.0609 -2.5104
27049SOL    HW283686   5.572   7.669   3.056 -0.3285 -2.4023  0.0678
27050SOL     OW83687   0.456   1.417   7.504  0.5499 -0.3859  0.1770
27050SOL    HW183688   0.502   1.355   7.561  1.1535 -0.2963 -0.2192
27050SOL    HW283689   0.384   1.366   7.467  0.4338 -0.5730  0.6495
27051SOL     OW83690   1.503   4.919   1.278  0.3191  0.3314  0.4991
27051SOL    HW183691   1.589   4.887   1.306  0.1870 -1.0100 -0.5629
27051SOL    HW283692   1.521   4.978   1.205  0.4390  1.2908  1.2961
27052SOL     OW83693   2.436   0.020   4.107  0.3522 -0.4200 -0.0101
27052SOL    HW183694   2.375   0.084   4.069  0.4653 -0.1562  0.2534
27052SOL    HW283695   2.452   0.052   4.196  1.7022  0.0871 -0.4218
27053SOL     OW83696   5.385   7.074   4.833 -0.4688 -0.1554 -0.5464
27053SOL    HW183697   5.366   7.123   4.913  0.2461 -0.8798  0.0787
27053SOL    HW283698   5.303   7.077   4.783 -0.9912  0.1062  0.3123
27054SOL     OW83699   4.010   4.672   8.292 -0.4696  0.0683  0.0249
27054SOL    HW183700   3.971   4.585   8.280  1.3368 -0.7338 -0.1415
27054SOL    HW283701   3.963   4.709   8.367 -1.7953 -0.7280 -0.3976
27055SOL     OW83702   5.787   3.671   0.346  0.1428 -0.4753 -0.0758
27055SOL    HW183703   5.874   3.670   0.308  0.6236  1.3093  0.9277
27055SOL    HW283704   5.734   3.720   0.283  0.2507 -0.1150  0.1132
27056SOL     OW83705   1.367   5.942   9.991 -0.0632  0.2534 -0.1748
27056SOL    HW183706   1.308   5.948  10.066 -0.6446 -0.9224 -0.5411
27056SOL    HW283707   1.312   5.914   9.919  0.7485  0.1610 -0.7626
27057SOL     OW83708   3.154   5.809   4.113  0.3273  0.2598  0.0387
27057SOL    HW183709   3.146   5.831   4.206  2.2235 -2.3703  0.8848
27057SOL    HW283710   3.096   5.734   4.100 -0.4376  1.0291 -1.0647
27058SOL     OW83711   2.387   1.047   1.758  0.0203  0.5163 -0.5405
27058SOL    HW183712   2.402   1.086   1.672 -0.3436 -0.4181 -1.0473
27058SOL    HW283713   2.410   0.955   1.746 -1.4798  0.0575 -0.0539
27059SOL     OW83714   9.568   5.818   0.543 -0.1958 -0.0803  0.6720
27059SOL    HW183715   9.476   5.842   0.537  0.1346  1.3466  1.1016
27059SOL    HW283716   9.610   5.865   0.471  0.0611 -1.4515 -0.0936
27060SOL     OW83717   8.346   4.253   2.941 -0.2288  0.0184  0.0254
27060SOL    HW183718   8.275   4.246   2.877 -0.3306  1.5440 -0.0416
27060SOL    HW283719   8.302   4.269   3.024 -0.0489 -1.0425  0.3386
27061SOL     OW83720   8.789   2.587   1.228  0.7961 -1.3755 -0.1355
27061SOL    HW183721   8.756   2.637   1.303  4.5642  0.1163  0.6630
27061SOL    HW283722   8.879   2.563   1.252  2.6463  0.3212 -4.6258
27062SOL     OW83723   4.526   7.691   4.090  0.1458  0.1925 -0.0609
27062SOL    HW183724   4.484   7.773   4.115  0.1967  0.5902 -1.2248
27062SOL    HW283725   4.564   7.657   4.171 -1.9820  0.0789  0.9031
27063SOL     OW83726   1.100   5.165   1.912  0.2347  0.1573  0.0350
27063SOL    HW183727   1.073   5.086   1.865 -1.8813  0.4951  0.6146
27063SOL    HW283728   1.181   5.140   1.956 -0.2928 -1.6391  0.0485
27064SOL     OW83729   4.552   6.553   4.558 -0.6987  0.0061  0.2670
27064SOL    HW183730   4.555   6.607   4.480 -2.6577 -0.0425  0.1404
27064SOL    HW283731   4.640   6.560   4.595 -0.7374  2.7811 -0.0608
27065SOL     OW83732   7.311   8.171   1.037  0.2540  0.3985  0.1396
27065SOL    HW183733   7.274   8.230   0.972  0.8246  0.8240  0.2067
27065SOL    HW283734   7.290   8.211   1.122  1.1991  0.8313  0.1683
27066SOL     OW83735  10.007   4.989   2.582 -0.5655  0.0948  0.0951
27066SOL    HW183736   9.933   4.945   2.539 -0.3681  0.9337 -1.1492
27066SOL    HW283737  10.083   4.958   2.533 -0.3394  1.0869 -0.1882
27067SOL     OW83738   2.262   6.001   1.010 -0.1561  0.0277  0.0520
27067SOL    HW183739   2.232   6.068   0.948  0.5516  0.1784 -0.1420
27067SOL    HW283740   2.182   5.965   1.048 -0.5959  0.0086 -0.8742
27068SOL     OW83741   2.288   1.569   0.952 -0.3337  0.4332 -0.1382
27068SOL    HW183742   2.203   1.600   0.982 -0.2799 -0.3478  0.8391
27068SOL    HW283743   2.285   1.474   0.963  1.4703  0.5780  2.0639
27069SOL     OW83744   0.471   3.475   4.082 -0.0186 -0.3571  0.1506
27069SOL    HW183745   0.513   3.418   4.147 -2.6421 -1.3587  1.0272
27069SOL    HW283746   0.418   3.536   4.134 -0.6056  0.1092 -0.9820
27070SOL     OW83747   2.514   6.787   0.922  0.5883  0.1152 -0.2419
27070SOL    HW183748   2.489   6.727   0.992  0.2009  1.0562  0.4367
27070SOL    HW283749   2.439   6.845   0.912  0.7622  0.1774 -1.2312
27071SOL     OW83750   7.409   4.187   1.837  0.3880 -0.3402  0.0093
27071SOL    HW183751   7.330   4.136   1.851  0.9452 -0.9904  0.8944
27071SOL    HW283752   7.466   4.130   1.786  0.1221  0.2888 -0.9986
27072SOL     OW83753   5.657   0.439   6.911 -0.0691  0.5675  0.9184
27072SOL    HW183754   5.673   0.345   6.922  0.3995  0.7716  2.0607
27072SOL    HW283755   5.576   0.454   6.959  0.4574  0.9435  1.7057
27073SOL     OW83756   1.947   5.286  10.112  0.4220 -0.3979 -0.1509
27073SOL    HW183757   2.036   5.292  10.146  0.8845 -0.8155 -1.2666
27073SOL    HW283758   1.916   5.201  10.140  0.7877 -0.7237 -0.7183
27074SOL     OW83759   0.373   1.159   3.608  0.3245 -0.5098  0.3033
27074SOL    HW183760   0.452   1.120   3.571 -0.0244 -0.8224 -0.1177
27074SOL    HW283761   0.314   1.169   3.533 -1.1406 -2.9850  1.0723
27075SOL     OW83762   8.357   0.551   3.677  0.2962 -0.6471 -0.0472
27075SOL    HW183763   8.318   0.601   3.605 -1.3141  2.8934  3.0966
27075SOL    HW283764   8.283   0.526   3.732  1.6399 -1.5437  1.3967
27076SOL     OW83765   3.429   6.274   8.875  0.3509  0.2064 -0.2533
27076SOL    HW183766   3.380   6.356   8.883 -1.9019 -0.9825 -1.4708
27076SOL    HW283767   3.465   6.277   8.787  0.2294 -0.1311 -0.3119
27077SOL     OW83768   3.118   2.425   1.975  0.4459  0.0046  0.2538
27077SOL    HW183769   3.036   2.376   1.965 -0.0590  0.7681  0.6069
27077SOL    HW283770   3.119   2.452   2.066  0.1633  1.6270 -0.2090
27078SOL     OW83771   9.427   4.642   6.052 -0.3445 -0.1663 -0.3470
27078SOL    HW183772   9.337   4.658   6.081  0.1150  0.5390  0.7119
27078SOL    HW283773   9.481   4.691   6.114  0.7050  0.6845 -1.9116
27079SOL     OW83774   6.502   6.684   2.579 -0.0333  0.4793  1.2496
27079SOL    HW183775   6.469   6.611   2.527  2.5140  0.7251 -0.8030
27079SOL    HW283776   6.475   6.762   2.531  0.4284  0.7723  1.4575
27080SOL     OW83777   4.865   8.248   5.479  0.3400  0.0319 -0.1365
27080SOL    HW183778   4.834   8.167   5.438  1.3383 -1.4542  1.9748
27080SOL    HW283779   4.948   8.267   5.434  0.0778 -0.0795 -0.6748
27081SOL     OW83780   5.084   0.528   4.725  0.3094  0.1217 -0.4866
27081SOL    HW183781   5.032   0.463   4.773  1.3565  0.2232  0.8121
27081SOL    HW283782   5.093   0.601   4.786  3.0597 -0.4259 -0.1761
27082SOL     OW83783   6.339   2.952   7.588 -0.4463 -0.8147  0.3557
27082SOL    HW183784   6.262   2.929   7.640 -0.0584 -0.4783  1.0802
27082SOL    HW283785   6.409   2.898   7.622 -0.2768 -0.8706 -0.0758
27083SOL     OW83786   6.942   0.093   9.512  0.9355  0.0093  0.3206
27083SOL    HW183787   7.035   0.082   9.493  1.3157  5.5689 -1.7817
27083SOL    HW283788   6.898   0.053   9.437  1.7215  0.2754 -0.2954
27084SOL     OW83789   3.747   2.498   2.646  0.5686 -0.1070 -0.4798
27084SOL    HW183790   3.822   2.490   2.705 -0.8940 -0.6461  1.3335
27084SOL    HW283791   3.722   2.590   2.651  0.1565 -0.2540  0.0718
27085SOL     OW83792   7.555   1.105   8.819 -0.1139 -0.0871 -0.2734
27085SOL    HW183793   7.501   1.033   8.786  1.5219 -0.5305 -2.1409
27085SOL    HW283794   7.589   1.147   8.740  1.1157  1.0427  0.8406
27086SOL     OW83795   6.619   0.336   7.380  0.0206 -0.0586  0.6232
27086SOL    HW183796   6.550   0.363   7.441 -0.8744 -0.7759 -0.0687
27086SOL    HW283797   6.585   0.358   7.293  0.9698  0.2481  0.3188
27087SOL     OW83798   8.587   8.269   1.837  0.8363  0.4751 -0.4196
27087SOL    HW183799   8.580   8.184   1.879  0.8961  0.8173  0.2867
27087SOL    HW283800   8.501   8.283   1.796  0.3220  0.7445  0.7407
27088SOL     OW83801   7.686   0.525   1.218 -0.0800  0.3775  0.6334
27088SOL    HW183802   7.717   0.465   1.286  0.0375 -0.5559 -0.2251
27088SOL    HW283803   7.591   0.529   1.230  0.0285  0.8553  1.3590
27089SOL     OW83804   9.608   5.965   2.217 -0.2424  0.4175 -0.1095
27089SOL    HW183805   9.617   5.875   2.186 -0.9859 -0.2745  1.6465
27089SOL    HW283806   9.667   5.971   2.292 -0.5785  1.2541  0.0922
27090SOL     OW83807   1.711   9.672   4.791  0.1539  0.0649  0.7541
27090SOL    HW183808   1.761   9.748   4.820  0.6532  0.4089 -0.9308
27090SOL    HW283809   1.684   9.694   4.702  1.2303 -2.1508 -0.1689
27091SOL     OW83810   8.839   8.270   8.691 -0.3955  0.0187 -0.2825
27091SOL    HW183811   8.884   8.204   8.637 -0.3830 -1.1362  1.1172
27091SOL    HW283812   8.841   8.234   8.779 -0.4338  1.9041  0.5021
27092SOL     OW83813   2.022   6.146   8.520 -0.2831  0.0749 -0.4037
27092SOL    HW183814   1.964   6.091   8.573 -0.0141 -0.3211 -0.5175
27092SOL    HW283815   2.076   6.084   8.471 -1.0935  0.4215 -1.7813
27093SOL     OW83816   3.205   4.791   4.911 -0.3963 -0.2935  0.1690
27093SOL    HW183817   3.181   4.733   4.984 -0.2794  0.0672  0.4959
27093SOL    HW283818   3.170   4.747   4.833 -1.8822  0.0723  0.6031
27094SOL     OW83819   3.004   3.480   8.919  0.3573 -0.7894  0.5751
27094SOL    HW183820   3.057   3.550   8.881  0.4182 -0.4987  1.1949
27094SOL    HW283821   3.066   3.409   8.936  0.2709 -1.0634 -0.1948
27095SOL     OW83822   2.684   8.035   3.157 -0.1891  0.0978  0.2197
27095SOL    HW183823   2.673   8.126   3.129  3.1983  0.6289  0.3612
27095SOL    HW283824   2.710   8.041   3.249  0.7920 -0.9424  0.0311
27096SOL     OW83825   1.514   4.907   1.696  0.0340  0.6792 -0.8080
27096SOL    HW183826   1.518   4.843   1.625 -2.0452 -0.0389 -0.2901
27096SOL    HW283827   1.559   4.863   1.769  1.8538  1.2786 -1.5379
27097SOL     OW83828   6.074   0.580   8.544  0.1269 -0.2752  0.3702
27097SOL    HW183829   6.001   0.556   8.601  0.6461  0.9463  1.5599
27097SOL    HW283830   6.056   0.534   8.462 -1.3075 -1.0008  1.0775
27098SOL     OW83831   2.768   3.009   3.992 -0.1871  0.5045  0.4996
27098SOL    HW183832   2.740   2.922   4.019 -0.5873  0.1322 -1.0733
27098SOL    HW283833   2.696   3.067   4.018 -1.1369 -0.0294 -0.8921
27099SOL     OW83834   3.897   8.366   0.837  0.2260 -0.6156  0.3315
27099SOL    HW183835   3.942   8.320   0.766  2.2921  0.6750  0.7460
27099SOL    HW283836   3.943   8.337   0.916  0.3610  0.7367  0.7608
27100SOL     OW83837   9.225   5.035   5.325  0.1081 -0.3606  0.1195
27100SOL    HW183838   9.320   5.025   5.323  0.3049  1.3722  0.0924
27100SOL    HW283839   9.202   5.026   5.418  0.2132 -1.3803  0.0537
27101SOL     OW83840   2.663   8.572   2.654 -0.5868 -0.6357 -0.0923
27101SOL    HW183841   2.738   8.545   2.706 -0.2548  0.2403 -0.1151
27101SOL    HW283842   2.587   8.550   2.708 -0.1640  3.7986  2.4893
27102SOL     OW83843   9.919   8.048   8.473 -0.1372 -0.3111  0.2317
27102SOL    HW183844   9.877   8.124   8.432 -0.2896  0.0640  1.0706
27102SOL    HW283845   9.849   8.008   8.525  0.0916 -0.7045  0.2313
27103SOL     OW83846   9.615   0.716   0.952 -0.1706 -0.8021  1.0562
27103SOL    HW183847   9.586   0.706   0.861 -1.0147  1.7623  0.9871
27103SOL    HW283848   9.711   0.721   0.946 -0.2563  0.0355  0.2168
27104SOL     OW83849   1.662   4.575   3.536 -1.1229  0.1243  0.0073
27104SOL    HW183850   1.746   4.605   3.570  0.3548 -1.8354 -1.8130
27104SOL    HW283851   1.666   4.591   3.442 -3.0725  0.6501 -0.0088
27105SOL     OW83852   0.138   8.887   4.466  0.0348 -0.0597  0.0220
27105SOL    HW183853   0.118   8.829   4.392  1.4434  0.7696 -1.0557
27105SOL    HW283854   0.187   8.833   4.527 -0.2702 -0.4876 -0.1119
27106SOL     OW83855   5.410   7.805   7.549  0.0376  0.0417  0.5701
27106SOL    HW183856   5.421   7.757   7.632 -0.1079 -1.1508 -0.0948
27106SOL    HW283857   5.315   7.818   7.542 -0.0422 -0.7689  0.0875
27107SOL     OW83858   6.573   0.622   9.487  0.4376 -0.7051  0.2058
27107SOL    HW183859   6.622   0.565   9.428  3.1654  0.4515  1.2691
27107SOL    HW283860   6.573   0.574   9.571 -1.4536 -1.3187 -0.1380
27108SOL     OW83861   7.651   1.366   7.299 -0.1272 -0.6931  0.7428
27108SOL    HW183862   7.581   1.335   7.241  0.4354 -1.2694  0.3779
27108SOL    HW283863   7.728   1.318   7.272  0.7437  0.9474  0.2346
27109SOL     OW83864   4.362   6.414   7.713  0.3009 -0.0478  0.4079
27109SOL    HW183865   4.273   6.378   7.721  0.6788 -0.9429  0.6475
27109SOL    HW283866   4.418   6.337   7.702  1.0943  0.4889  0.6427
27110SOL     OW83867   5.806   5.880   8.126  0.0934 -0.1072  0.1705
27110SOL    HW183868   5.829   5.883   8.219  0.8320  0.3161 -0.0237
27110SOL    HW283869   5.777   5.790   8.111  2.9610 -1.0584  0.1054
27111SOL     OW83870   4.437   2.546   0.802 -0.3265  0.0687  0.7513
27111SOL    HW183871   4.519   2.517   0.842 -1.2374 -2.2612  0.9921
27111SOL    HW283872   4.451   2.535   0.708 -0.6005 -0.9590  0.8320
27112SOL     OW83873   6.601   4.666   2.584  0.0469  0.2463 -0.2715
27112SOL    HW183874   6.594   4.736   2.520 -0.1258  1.3565  0.9464
27112SOL    HW283875   6.550   4.594   2.547 -2.1036  1.7155 -0.2397
27113SOL     OW83876   7.505   8.763   0.851 -0.1718  0.5099 -0.0819
27113SOL    HW183877   7.460   8.687   0.889  0.5709  1.0065  1.8504
27113SOL    HW283878   7.515   8.741   0.759 -3.7707  0.0706 -0.4675
27114SOL     OW83879   9.604   8.691   6.617 -0.6824 -0.5917  0.2220
27114SOL    HW183880   9.522   8.680   6.570 -0.8900  0.4756  0.3132
27114SOL    HW283881   9.669   8.708   6.549 -0.6349 -0.9085  0.1878
27115SOL     OW83882   7.040   1.206   7.998 -0.3281  0.0554 -0.0655
27115SOL    HW183883   7.031   1.234   7.907 -1.4293  2.2500  0.6836
27115SOL    HW283884   7.030   1.111   7.995  0.6103  0.0020 -2.3366
27116SOL     OW83885   3.795   8.540   2.214  0.9325  0.2334  0.4389
27116SOL    HW183886   3.842   8.470   2.169  0.2656  0.1216 -0.0888
27116SOL    HW283887   3.863   8.592   2.256  1.6003  0.7608 -1.2907
27117SOL     OW83888   6.588   9.601   4.131 -0.6059  0.0248 -0.4275
27117SOL    HW183889   6.635   9.638   4.057 -0.7489  1.4973  0.1946
27117SOL    HW283890   6.656   9.568   4.189 -0.4592 -0.2942 -0.7785
27118SOL     OW83891   7.064   2.186   7.877 -0.0226  0.2371 -0.0230
27118SOL    HW183892   7.121   2.175   7.802  0.0143  0.4335 -0.0235
27118SOL    HW283893   7.065   2.100   7.921  0.3620  0.2724  0.0415
27119SOL     OW83894  10.153   2.288   5.448 -0.3432  0.3618  0.3739
27119SOL    HW183895  10.168   2.383   5.448  2.3120 -0.0109 -0.9932
27119SOL    HW283896  10.157   2.263   5.356  0.6072 -1.2914  0.8476
27120SOL     OW83897   5.203   0.238   2.228  0.7877  0.1810  0.1152
27120SOL    HW183898   5.136   0.216   2.163  1.9375  1.8739 -1.6972
27120SOL    HW283899   5.286   0.217   2.185  1.5310  0.2237  1.4905
27121SOL     OW83900   5.335   0.353   0.790  0.4484  0.1907  0.5129
27121SOL    HW183901   5.252   0.385   0.755 -0.8486 -4.6584 -1.2857
27121SOL    HW283902   5.392   0.347   0.713  1.4340  0.5174  1.2136
27122SOL     OW83903   9.693   1.169   2.387 -0.5412  0.1118  0.2480
27122SOL    HW183904   9.773   1.127   2.357  0.4830  1.3962  1.1407
27122SOL    HW283905   9.622   1.117   2.349  0.7190 -0.3990 -1.4154
27123SOL     OW83906   1.220   5.969   0.605 -0.2996 -0.4475  0.1588
27123SOL    HW183907   1.175   6.036   0.555 -0.4828 -0.0717  0.8149
27123SOL    HW283908   1.178   5.887   0.578  0.2513 -0.3571 -0.9954
27124SOL     OW83909   2.906   1.270   1.178 -0.1831  0.3058 -0.4249
27124SOL    HW183910   2.957   1.282   1.097  1.4893  0.9718  0.6956
27124SOL    HW283911   2.868   1.355   1.195 -2.2498 -0.3442 -1.5949
27125SOL     OW83912   6.904   1.078   9.765  0.0844  0.0484 -0.3140
27125SOL    HW183913   6.924   1.160   9.721  0.7525  0.1424  0.1471
27125SOL    HW283914   6.832   1.040   9.715  0.4696  0.4160 -1.1552
27126SOL     OW83915   2.328   1.802   2.253 -0.1325  0.3634  0.6570
27126SOL    HW183916   2.377   1.745   2.312  0.2405  0.4995  0.4791
27126SOL    HW283917   2.246   1.756   2.237  1.4117 -1.6006 -1.9449
27127SOL     OW83918   2.302   7.863  10.092 -0.1366  0.7797  0.6986
27127SOL    HW183919   2.240   7.794  10.112  0.4347  0.0190 -0.1168
27127SOL    HW283920   2.352   7.875  10.173  1.0466 -1.1055  0.2780
27128SOL     OW83921   7.177   4.259   2.934  0.2047  0.1588  0.0854
27128SOL    HW183922   7.109   4.212   2.886 -1.4936  0.3961  2.2158
27128SOL    HW283923   7.198   4.202   3.009 -1.1625  2.2870  2.1425
27129SOL     OW83924   4.475   0.144   7.028 -1.0085  0.1101  0.4619
27129SOL    HW183925   4.429   0.144   6.944 -2.8842 -0.0973  1.4624
27129SOL    HW283926   4.486   0.237   7.050 -2.6640  0.1691  1.1108
27130SOL     OW83927   9.284   6.677   4.214 -0.1030 -0.5228  0.0820
27130SOL    HW183928   9.276   6.582   4.220 -1.3640 -0.4672 -0.5251
27130SOL    HW283929   9.209   6.711   4.265 -0.2077  0.1312 -0.4962
27131SOL     OW83930   7.979   3.186   0.976  0.1136  0.2483 -0.0576
27131SOL    HW183931   7.971   3.101   0.934  1.5167 -0.9041  1.9183
27131SOL    HW283932   8.033   3.237   0.916 -1.2562 -0.0139 -1.5579
27132SOL     OW83933   3.288   8.235   4.415 -0.0241 -0.2100 -0.1156
27132SOL    HW183934   3.277   8.324   4.384  2.6626  0.6586  1.3297
27132SOL    HW283935   3.223   8.226   4.485 -0.3279  0.6043 -0.2922
27133SOL     OW83936   9.718   9.435   9.580 -0.4123 -0.5196  0.1938
27133SOL    HW183937   9.810   9.410   9.582  0.0156  0.9696 -0.1840
27133SOL    HW283938   9.714   9.509   9.519 -2.0525 -1.3372 -0.7143
27134SOL     OW83939   9.570   2.097   3.714 -0.0001 -0.5560 -0.0936
27134SOL    HW183940   9.640   2.038   3.687 -0.6927 -1.1860 -0.5476
27134SOL    HW283941   9.490   2.058   3.678 -0.7206 -0.4111  1.2948
27135SOL     OW83942   9.674   9.972   8.925  0.1996  0.0653 -0.2807
27135SOL    HW183943   9.694  10.058   8.961 -0.8876  0.3443 -0.3134
27135SOL    HW283944   9.715   9.910   8.985  1.3536  0.6150 -0.4931
27136SOL     OW83945   4.978   8.466   6.359  0.0872 -0.2738 -0.1396
27136SOL    HW183946   5.030   8.423   6.428  0.5874  1.2491  0.4400
27136SOL    HW283947   5.042   8.516   6.309 -0.8694  2.1763  0.9981
27137SOL     OW83948   8.522   0.809   3.196  0.2689  0.1248 -0.2982
27137SOL    HW183949   8.494   0.753   3.124  1.1008 -0.9044  0.1633
27137SOL    HW283950   8.552   0.889   3.153  0.2286 -0.2630 -1.0565
27138SOL     OW83951   4.232   3.442   4.172 -0.1502 -0.1212 -0.0164
27138SOL    HW183952   4.192   3.356   4.159 -0.0399 -0.2807  0.7128
27138SOL    HW283953   4.315   3.424   4.217 -0.1765  0.3736  0.2338
27139SOL     OW83954   3.899   7.826   4.382  0.4214  0.4165  0.1047
27139SOL    HW183955   3.889   7.853   4.290 -0.6936  0.4048  0.2154
27139SOL    HW283956   3.812   7.798   4.408  0.7969  0.1557  1.0972
27140SOL     OW83957   5.176   0.083   6.137 -0.8741 -0.7113  0.3727
27140SOL    HW183958   5.173   0.079   6.232 -1.3944 -1.4947  0.3370
27140SOL    HW283959   5.093   0.043   6.109 -1.1176  0.3056 -0.3854
27141SOL     OW83960   2.623   5.992   6.967 -0.5083  0.0351 -0.2246
27141SOL    HW183961   2.605   6.013   7.059  2.2905 -0.0531  0.4115
27141SOL    HW283962   2.660   5.904   6.970 -0.3647  0.0540 -1.4369
27142SOL     OW83963   0.796   9.327   4.906 -0.4275  0.4638  0.0372
27142SOL    HW183964   0.751   9.284   4.833  1.8740 -1.0822 -0.5404
27142SOL    HW283965   0.806   9.418   4.878 -1.5300  0.3901 -0.6132
27143SOL     OW83966   7.044   0.940   7.918  0.1980  0.2057  0.0986
27143SOL    HW183967   7.017   0.857   7.958 -0.4127 -0.0572 -0.8560
27143SOL    HW283968   7.138   0.929   7.903  0.3501  0.1390  1.0479
27144SOL     OW83969   5.780   8.733   5.142  0.5369 -0.4339 -0.3863
27144SOL    HW183970   5.850   8.797   5.140  2.0342 -1.9823  0.7037
27144SOL    HW283971   5.800   8.673   5.070  0.7846 -1.3043  0.3891
27145SOL     OW83972   7.272   0.422   7.379 -0.3504 -0.1804 -0.0529
27145SOL    HW183973   7.268   0.379   7.294  3.2108 -0.9391  0.0765
27145SOL    HW283974   7.243   0.355   7.441 -0.4686 -0.4646 -0.4173
27146SOL     OW83975   0.479   7.816   4.185  0.3177  0.0519 -0.0881
27146SOL    HW183976   0.422   7.782   4.116  1.0159 -0.6931 -0.3086
27146SOL    HW283977   0.493   7.908   4.161  0.0721 -0.0431 -0.6088
27147SOL     OW83978   5.640   1.469   3.344  0.5820  0.2692  0.3629
27147SOL    HW183979   5.592   1.453   3.425 -0.0040  0.8144  0.1300
27147SOL    HW283980   5.574   1.507   3.285  1.0415  0.0167 -0.3120
27148SOL     OW83981   2.587   1.162   4.746  0.6064  0.5551  0.5848
27148SOL    HW183982   2.549   1.097   4.686 -0.5984  0.6843  1.2007
27148SOL    HW283983   2.673   1.182   4.708  1.5713 -2.3663  1.0975
27149SOL     OW83984  10.196   6.836   5.767 -0.0238  0.0058  0.0571
27149SOL    HW183985  10.143   6.768   5.725  0.2391 -0.1495 -0.0243
27149SOL    HW283986  10.278   6.836   5.718 -0.8223  1.8569 -1.3469
27150SOL     OW83987   4.762   6.578   5.052 -0.1273  0.0623  0.3821
27150SOL    HW183988   4.738   6.665   5.021  0.9253  0.4474  0.6212
27150SOL    HW283989   4.689   6.522   5.026  0.8016  0.3336 -3.0814
27151SOL     OW83990   8.912   7.074   5.890 -0.2141 -0.2610 -0.5020
27151SOL    HW183991   8.854   7.072   5.814 -0.4837 -0.7042 -0.2882
27151SOL    HW283992   8.898   6.989   5.933 -1.0563  0.5334  0.7940
27152SOL     OW83993   5.987   5.020   0.968 -0.2002 -0.3535 -0.2870
27152SOL    HW183994   5.927   5.093   0.950  0.2066  0.2321  0.6678
27152SOL    HW283995   6.008   4.984   0.882 -0.8002  0.3432 -0.7314
27153SOL     OW83996   3.504   8.397   1.549 -0.3263  0.0556 -0.0619
27153SOL    HW183997   3.458   8.337   1.489 -0.7503  0.1904  0.1266
27153SOL    HW283998   3.492   8.484   1.510 -2.0074  0.3557  1.0692
27154SOL     OW83999   5.778   2.388   6.148  0.0069  0.6554 -1.1000
27154SOL    HW184000   5.824   2.408   6.067 -0.3868 -0.3960 -1.6014
27154SOL    HW284001   5.844   2.343   6.202  0.8045  2.9669 -0.0895
27155SOL     OW84002   5.550   5.539   3.003  0.2539  0.3705 -0.7335
27155SOL    HW184003   5.604   5.596   3.057  0.3629  0.8983 -1.3933
27155SOL    HW284004   5.478   5.595   2.973 -0.4743 -0.2362 -0.1365
27156SOL     OW84005   7.589   2.903   6.503  0.0338  0.0735  0.4366
27156SOL    HW184006   7.669   2.914   6.453 -1.1158  1.1391 -1.2233
27156SOL    HW284007   7.552   2.820   6.473 -1.0493  1.0859 -1.0810
27157SOL     OW84008   9.425   9.688  10.017 -0.0646 -0.2496 -0.0425
27157SOL    HW184009   9.375   9.757   9.972  2.0800  1.1333 -0.3553
27157SOL    HW284010   9.444   9.624   9.949 -2.0931 -1.2080  0.2551
27158SOL     OW84011   0.519   4.877   2.097 -0.5997  0.1142 -0.0922
27158SOL    HW184012   0.574   4.818   2.148 -1.8718  1.3441  2.8359
27158SOL    HW284013   0.434   4.834   2.094 -1.0821  0.9823  0.6446
27159SOL     OW84014   4.894   0.936   6.674 -0.4968  0.2698  0.1333
27159SOL    HW184015   4.925   0.992   6.745  1.0087 -0.4350  0.0289
27159SOL    HW284016   4.899   0.991   6.596  0.8894  0.0203  0.0477
27160SOL     OW84017   6.002   9.919   4.062 -0.0035 -0.3921  0.9137
27160SOL    HW184018   6.003   9.867   3.982  0.0763  0.1800  0.5396
27160SOL    HW284019   5.910   9.945   4.073  0.4197  1.8716 -0.5380
27161SOL     OW84020   0.313   9.141   4.693  0.2573 -0.0887  0.1824
27161SOL    HW184021   0.380   9.208   4.705  0.4560 -0.2999  0.2520
27161SOL    HW284022   0.256   9.150   4.770 -0.5862  1.0014 -0.5606
27162SOL     OW84023   9.068   8.937   3.438 -0.3577 -0.3212 -0.6365
27162SOL    HW184024   9.107   8.901   3.358 -1.4369 -1.0353 -0.8602
27162SOL    HW284025   9.047   9.028   3.416 -0.4273 -0.4456 -1.0798
27163SOL     OW84026   7.917   1.410   4.756 -0.5151  0.0116 -0.2021
27163SOL    HW184027   7.957   1.468   4.821  0.2904  2.1533 -2.5205
27163SOL    HW284028   7.866   1.348   4.807  1.3269  0.6764  2.5564
27164SOL     OW84029   7.242   1.745   8.543 -0.1441 -0.2054  0.2564
27164SOL    HW184030   7.274   1.771   8.629 -2.7472 -0.0845  1.2403
27164SOL    HW284031   7.181   1.674   8.561 -2.5679  1.4328 -1.2482
27165SOL     OW84032   2.815   1.653   9.370  0.1473  0.2087  0.1814
27165SOL    HW184033   2.752   1.704   9.320  0.9874  0.3756 -0.7055
27165SOL    HW284034   2.854   1.716   9.431 -0.0741  0.2474  0.2836
27166SOL     OW84035   4.456   4.381   1.126  0.5940  0.3320 -0.3421
27166SOL    HW184036   4.466   4.436   1.204  0.3385  0.4097 -0.3622
27166SOL    HW284037   4.377   4.329   1.144  1.6259 -1.0654  0.2972
27167SOL     OW84038   2.703   8.224   2.450 -0.3712 -0.2868 -0.0205
27167SOL    HW184039   2.678   8.132   2.449 -1.9938  0.1412 -0.9762
27167SOL    HW284040   2.787   8.227   2.404 -1.1440 -1.0757 -1.5189
27168SOL     OW84041   2.005   2.969   6.738  0.1551  0.5746  0.0766
27168SOL    HW184042   2.063   2.914   6.685  0.5404 -0.6158  1.7217
27168SOL    HW284043   2.033   3.059   6.718  0.7347  0.1139 -1.2158
27169SOL     OW84044   1.877   3.234   2.819 -0.1292  0.6378  0.1022
27169SOL    HW184045   1.811   3.174   2.786 -1.0452  2.0033 -0.5920
27169SOL    HW284046   1.960   3.187   2.810 -0.8058 -0.4031 -0.6737
27170SOL     OW84047   1.832   8.115   5.536 -0.5742  0.0368 -0.4012
27170SOL    HW184048   1.839   8.101   5.631 -1.6043 -0.7237 -0.4355
27170SOL    HW284049   1.772   8.189   5.527 -0.9413 -0.2720 -0.4821
27171SOL     OW84050   1.681   4.693   5.836 -0.2256  0.4301  0.3176
27171SOL    HW184051   1.632   4.744   5.900 -1.1626 -0.1371  0.0669
27171SOL    HW284052   1.614   4.660   5.776  0.6716  1.2252 -1.1494
27172SOL     OW84053   8.906   6.309   6.320 -0.0074  0.3723  0.1421
27172SOL    HW184054   8.825   6.306   6.269  1.2410 -1.9517 -1.8113
27172SOL    HW284055   8.958   6.378   6.279  0.0204  0.1331 -0.2324
27173SOL     OW84056   8.467   0.664   8.659 -0.4159  0.0117 -0.4198
27173SOL    HW184057   8.525   0.588   8.646 -3.3646 -2.1301 -1.6869
27173SOL    HW284058   8.511   0.717   8.725  2.8410 -1.6593 -1.1340
27174SOL     OW84059   6.567  10.188   0.140  0.2305 -0.1825  0.0904
27174SOL    HW184060   6.646  10.241   0.134  0.1475 -0.0584  0.0923
27174SOL    HW284061   6.596  10.099   0.119  0.1925  0.0266 -0.9057
27175SOL     OW84062   2.596   6.763   8.440  0.4502  0.3689 -0.0709
27175SOL    HW184063   2.610   6.787   8.532 -1.0211  0.5177  0.1257
27175SOL    HW284064   2.502   6.749   8.433  0.6419 -0.3209 -1.4053
27176SOL     OW84065   9.708   9.094   0.063 -0.1015  0.1865  0.3804
27176SOL    HW184066   9.788   9.043   0.047  0.4677  1.0729  0.3945
27176SOL    HW284067   9.738   9.172   0.110 -0.9708  0.5587  0.3231
27177SOL     OW84068   8.852   2.904   0.791  0.4118  0.2675  0.1576
27177SOL    HW184069   8.903   2.825   0.778  1.0384  0.8679 -1.1456
27177SOL    HW284070   8.915   2.976   0.780 -0.4470  0.9797 -0.1777
27178SOL     OW84071   3.870   1.986   6.006 -0.7567  0.2581 -0.5230
27178SOL    HW184072   3.875   1.982   6.101  1.4400 -0.8158 -0.6494
27178SOL    HW284073   3.860   2.079   5.986  2.2174  0.9028  0.6710
27179SOL     OW84074   1.248   9.376   4.534 -0.2278 -0.4630  0.5020
27179SOL    HW184075   1.246   9.370   4.629 -1.7246 -0.6183  0.4725
27179SOL    HW284076   1.340   9.363   4.511  0.2422  0.2217  1.9548
27180SOL     OW84077   2.546   8.445   7.945  0.0394  0.1921 -0.1118
27180SOL    HW184078   2.536   8.540   7.938  1.2685  0.2865 -0.7590
27180SOL    HW284079   2.611   8.423   7.878 -1.8501 -1.3891 -1.4593
27181SOL     OW84080   0.194   1.324   8.993  0.4083 -0.5095 -0.2424
27181SOL    HW184081   0.149   1.257   9.046 -0.2168 -0.3664 -0.5904
27181SOL    HW284082   0.172   1.301   8.903  0.0944  0.2331 -0.3574
27182SOL     OW84083   2.056   7.381   5.528 -0.4603  0.6516  0.0501
27182SOL    HW184084   2.043   7.356   5.619  1.0473 -0.1228  0.0649
27182SOL    HW284085   1.968   7.375   5.489 -0.9471  0.0468  1.2080
27183SOL     OW84086   0.923  10.131   6.173  0.5410 -0.0359 -0.2286
27183SOL    HW184087   0.912  10.058   6.112 -1.7703  1.4132 -1.6243
27183SOL    HW284088   0.972  10.197   6.123  1.4971 -0.1023  0.5986
27184SOL     OW84089   1.001   8.897   9.623  0.0911  0.0857  0.2355
27184SOL    HW184090   1.066   8.838   9.586  1.3282  0.6759  1.3889
27184SOL    HW284091   1.040   8.984   9.615  0.4139  0.2271  2.8773
27185SOL     OW84092   5.095   1.354   1.098 -1.0371 -0.2757 -0.1137
27185SOL    HW184093   5.181   1.326   1.127 -1.1150 -0.1133  0.2779
27185SOL    HW284094   5.093   1.334   1.004 -0.8137 -0.8778  0.0044
27186SOL     OW84095   7.061   0.366   0.282  0.8015  0.3636 -0.3058
27186SOL    HW184096   7.017   0.432   0.336  0.1777  0.0920 -0.4857
27186SOL    HW284097   7.037   0.388   0.192  0.1702 -0.4259 -0.3317
27187SOL     OW84098   2.060   2.049   5.131 -0.3155  0.3310 -0.2995
27187SOL    HW184099   2.049   2.014   5.219  1.4737 -0.6616 -0.4479
27187SOL    HW284100   1.977   2.093   5.112 -0.3778  1.4150  2.2543
27188SOL     OW84101   6.259   9.110   2.586 -0.4241 -0.2103  0.0947
27188SOL    HW184102   6.277   9.030   2.635 -2.3611 -0.4439  0.4646
27188SOL    HW284103   6.314   9.177   2.626 -0.6763 -0.8031  1.4300
27189SOL     OW84104   6.474   1.900   1.565 -0.8273 -0.9176  0.1274
27189SOL    HW184105   6.554   1.941   1.531 -0.3005 -2.6092 -0.7557
27189SOL    HW284106   6.466   1.933   1.654 -0.7579  1.5368 -0.7408
27190SOL     OW84107   9.832   2.011   8.111 -0.0063  0.1332  0.1997
27190SOL    HW184108   9.739   1.989   8.117 -0.0778  0.3934  0.0416
27190SOL    HW284109   9.853   2.050   8.196  0.5199 -2.0126  1.1024
27191SOL     OW84110   4.119   8.249   2.815  0.0076 -0.1004  0.3777
27191SOL    HW184111   4.031   8.282   2.796 -1.0792 -2.5237  1.0514
27191SOL    HW284112   4.113   8.155   2.800  2.0698 -0.5132  1.9607
27192SOL     OW84113   3.667   6.360   4.701 -0.7527 -0.2987  0.3141
27192SOL    HW184114   3.625   6.274   4.709 -1.4691 -0.0524 -0.6570
27192SOL    HW284115   3.757   6.346   4.728 -0.1995 -1.9195 -2.1957
27193SOL     OW84116   8.019   2.081   2.289 -0.1261 -0.0994  1.0226
27193SOL    HW184117   7.924   2.075   2.278  0.0719 -0.2512 -0.7010
27193SOL    HW284118   8.051   2.116   2.206  1.3106  0.1892  1.6763
27194SOL     OW84119   0.099   3.895   1.334  0.1643 -0.0874  0.9213
27194SOL    HW184120   0.046   3.924   1.409  0.4284 -2.0452  1.8871
27194SOL    HW284121   0.163   3.834   1.371  0.2825 -1.1180 -0.9000
27195SOL     OW84122   4.204   4.724   4.868 -0.5240 -0.0327  0.1149
27195SOL    HW184123   4.115   4.755   4.884 -0.8941 -0.9128 -0.2085
27195SOL    HW284124   4.195   4.629   4.857  0.4452 -0.1242  0.0408
27196SOL     OW84125   0.419   7.266   9.467  0.4632 -0.4281  0.5354
27196SOL    HW184126   0.401   7.183   9.423  1.6554  0.5095 -1.7898
27196SOL    HW284127   0.509   7.258   9.499  1.7185  1.0508 -2.4043
27197SOL     OW84128   9.292   1.505   5.815  0.0265  0.5302  0.2859
27197SOL    HW184129   9.284   1.489   5.721 -3.4003  0.9059  0.4615
27197SOL    HW284130   9.255   1.592   5.829  0.4167  0.4470  1.9823
27198SOL     OW84131   4.707   2.006   7.543 -0.2500 -0.4645 -0.1227
27198SOL    HW184132   4.789   1.956   7.544 -0.1466 -0.3061 -0.5477
27198SOL    HW284133   4.733   2.096   7.559 -0.3808 -0.4649  0.0966
27199SOL     OW84134   6.050   1.161   9.801  0.3410  0.4042 -0.2997
27199SOL    HW184135   5.973   1.208   9.767 -0.7062 -0.8755  0.2838
27199SOL    HW284136   6.114   1.166   9.730 -1.2468 -0.8540 -1.8691
27200SOL     OW84137   1.478   8.148   6.885 -0.2127  0.2401  0.4698
27200SOL    HW184138   1.570   8.133   6.906 -0.5967 -1.9761  0.7114
27200SOL    HW284139   1.472   8.131   6.791 -0.1164  1.7771  0.1770
27201SOL     OW84140   5.243   6.853   0.071 -0.8523  0.2533 -0.1312
27201SOL    HW184141   5.150   6.831   0.062 -1.7559  4.2611 -1.8946
27201SOL    HW284142   5.284   6.814  -0.006 -0.9776 -1.7276  0.7695
27202SOL     OW84143   7.836   3.897   6.471 -0.4107 -0.0268 -0.1616
27202SOL    HW184144   7.858   3.885   6.563  4.7162  1.2870 -1.0022
27202SOL    HW284145   7.867   3.817   6.428 -0.7743  0.2683 -0.9902
27203SOL     OW84146   6.908   7.141   1.910 -0.2532  0.5696  0.5600
27203SOL    HW184147   6.879   7.165   1.822  0.2323 -3.0700 -0.7072
27203SOL    HW284148   6.827   7.121   1.957 -0.3258 -2.3976 -0.6972
27204SOL     OW84149   1.075   5.826   9.502 -0.4510 -0.2941  0.1091
27204SOL    HW184150   1.138   5.757   9.481 -2.3823 -1.7495 -1.0573
27204SOL    HW284151   1.055   5.867   9.417 -3.4786 -2.0020 -0.0761
27205SOL     OW84152   6.183   1.238   3.348  0.0093  0.3420 -0.1589
27205SOL    HW184153   6.114   1.270   3.406  0.1967  1.7697 -0.7231
27205SOL    HW284154   6.196   1.307   3.284 -0.0195 -1.1314 -1.7927
27206SOL     OW84155   6.745   0.427   8.974  0.4342 -0.2844  0.6858
27206SOL    HW184156   6.826   0.380   8.952  1.2730  1.6086 -0.3760
27206SOL    HW284157   6.762   0.465   9.061 -0.4854 -2.4079  1.8400
27207SOL     OW84158   2.400   7.916   3.244  0.4445 -0.0435 -0.4324
27207SOL    HW184159   2.493   7.914   3.222  0.8501  0.4287  1.2025
27207SOL    HW284160   2.391   7.854   3.316 -0.5766 -0.3615 -0.8244
27208SOL     OW84161   0.465   0.087   9.044 -0.6937  0.8372  0.2146
27208SOL    HW184162   0.477   0.022   9.113 -1.5637  1.0719  0.5977
27208SOL    HW284163   0.531   0.064   8.978 -0.2611  0.2451  0.8442
27209SOL     OW84164   6.289   7.337   9.647  0.3760 -0.6859  0.2447
27209SOL    HW184165   6.369   7.336   9.594 -1.1662 -0.6315 -2.2018
27209SOL    HW284166   6.255   7.425   9.637 -0.4758 -0.9863  0.4636
27210SOL     OW84167   7.692   9.702   1.536 -0.3500  0.6363  0.2981
27210SOL    HW184168   7.728   9.729   1.452 -1.1498  1.7071  0.2958
27210SOL    HW284169   7.756   9.735   1.600  0.0359  0.2025  0.1389
27211SOL     OW84170   9.935   7.166   4.366  0.4762 -0.3664  0.0678
27211SOL    HW184171   9.858   7.219   4.346 -0.3641 -0.7986  2.0242
27211SOL    HW284172   9.994   7.180   4.292 -1.4648 -0.0200 -1.4417
27212SOL     OW84173   8.232   4.657   9.333 -0.3372  0.7865  0.2514
27212SOL    HW184174   8.165   4.652   9.264  1.0663  0.2652 -1.1147
27212SOL    HW284175   8.306   4.701   9.291  0.5466  0.4445  1.4385
27213SOL     OW84176   7.704   2.213   2.737  0.2673 -0.4962 -0.1896
27213SOL    HW184177   7.771   2.167   2.788  0.0254 -0.5869  0.0501
27213SOL    HW284178   7.647   2.144   2.705 -0.5281 -0.3127  0.7925
27214SOL     OW84179   1.857   3.556   4.302  0.3038  0.1327 -0.8482
27214SOL    HW184180   1.809   3.530   4.223 -0.9581 -0.2884  0.0411
27214SOL    HW284181   1.894   3.474   4.336  0.1299  0.1845 -0.5329
27215SOL     OW84182   2.096   9.942   4.256 -0.5727 -0.0567  0.8402
27215SOL    HW184183   2.017   9.989   4.229 -0.8947 -0.5048  1.0071
27215SOL    HW284184   2.093   9.860   4.209 -0.3719 -0.2125  1.0972
27216SOL     OW84185   9.438   7.876   1.982  0.0354 -0.1612  0.2782
27216SOL    HW184186   9.395   7.817   2.044 -0.7009 -0.0573 -0.1358
27216SOL    HW284187   9.379   7.880   1.907  0.8156 -0.1042 -0.3389
27217SOL     OW84188   2.227  10.026   3.069  0.3081  0.0220 -0.6777
27217SOL    HW184189   2.132  10.018   3.070  0.4051 -1.1441  0.0545
27217SOL    HW284190   2.258   9.952   3.121  1.7101 -0.8072 -2.6427
27218SOL     OW84191   5.210   0.298   3.309 -0.3978  0.6063  0.4050
27218SOL    HW184192   5.209   0.251   3.392 -0.6126  2.3636  1.4086
27218SOL    HW284193   5.252   0.382   3.329 -0.3313  0.9925 -1.2845
27219SOL     OW84194   5.745   4.762   0.541 -0.5652 -0.0636  0.0994
27219SOL    HW184195   5.728   4.856   0.546 -0.2005 -0.0694  1.7605
27219SOL    HW284196   5.791   4.750   0.458 -0.4060  1.2580 -0.0051
27220SOL     OW84197   8.177   0.172   0.671 -0.8588 -0.0772  0.0437
27220SOL    HW184198   8.173   0.183   0.765 -1.0018 -0.0278  0.0322
27220SOL    HW284199   8.102   0.116   0.650  0.1414 -1.4906  0.1638
27221SOL     OW84200   8.192   6.871   6.895 -0.7580  0.4614  0.0619
27221SOL    HW184201   8.253   6.892   6.825  0.0035 -1.0933  0.2473
27221SOL    HW284202   8.124   6.818   6.853 -1.6905  1.6868 -0.0181
27222SOL     OW84203   6.781   2.285   6.701 -0.2911 -0.8758 -0.0136
27222SOL    HW184204   6.787   2.376   6.672  0.1229 -1.1581 -0.8311
27222SOL    HW284205   6.818   2.286   6.789  1.0069 -0.4945 -0.5422
27223SOL     OW84206   2.331   5.033   4.926 -0.0880  0.6539  0.9919
27223SOL    HW184207   2.278   5.081   4.989  0.6777  0.0529  2.1139
27223SOL    HW284208   2.421   5.041   4.959  0.5073  1.4633 -0.7534
27224SOL     OW84209  10.193   1.009   6.302  0.1557  0.0962 -0.0511
27224SOL    HW184210  10.206   0.953   6.378  0.1369  0.4641  0.2233
27224SOL    HW284211  10.253   1.083   6.316 -2.0613  1.7132  1.1188
27225SOL     OW84212   7.702   5.282   4.833  0.0472 -0.9256  0.5645
27225SOL    HW184213   7.686   5.321   4.747  2.5239 -0.3754  0.3390
27225SOL    HW284214   7.638   5.210   4.838 -0.1361 -0.9763 -1.7145
27226SOL     OW84215   1.008   5.174   6.890  0.1757 -0.6821  0.3063
27226SOL    HW184216   1.006   5.256   6.840  1.4609 -1.0468 -0.3837
27226SOL    HW284217   1.099   5.144   6.881  0.5016 -0.6483  3.0516
27227SOL     OW84218   8.024   0.716   4.472  0.3926  0.2342  0.3468
27227SOL    HW184219   7.964   0.732   4.399 -1.5458 -2.3170  1.2923
27227SOL    HW284220   8.106   0.689   4.430 -0.5723 -0.8241 -0.9013
27228SOL     OW84221   9.730   5.158   4.673  0.0424  0.2381 -0.0217
27228SOL    HW184222   9.747   5.120   4.759  0.4660 -0.2452 -0.3189
27228SOL    HW284223   9.764   5.094   4.611  2.8656  2.1372 -0.5100
27229SOL     OW84224   4.449   5.276   6.511  0.0745 -0.0050  0.4133
27229SOL    HW184225   4.423   5.212   6.577 -2.3473 -0.9067 -1.3612
27229SOL    HW284226   4.470   5.224   6.433 -0.7670  1.2638 -0.6848
27230SOL     OW84227   0.148   3.464   3.919  0.1386 -0.2579  0.6698
27230SOL    HW184228   0.069   3.517   3.912 -0.0768 -0.7017 -0.3825
27230SOL    HW284229   0.156   3.422   3.833  1.9607  0.4066  0.4933
27231SOL     OW84230   6.525   4.848   5.187 -0.1042  0.1116 -0.1009
27231SOL    HW184231   6.565   4.902   5.255 -1.3621  1.0524 -0.0837
27231SOL    HW284232   6.599   4.804   5.145  0.7596  0.2032  1.2779
27232SOL     OW84233   7.679   4.350   7.650  0.7352 -0.5712 -0.1538
27232SOL    HW184234   7.632   4.423   7.690 -1.6104 -2.2777  0.2968
27232SOL    HW284235   7.694   4.377   7.560 -0.6937  0.2325 -0.1655
27233SOL     OW84236   9.610   1.809   2.016  0.1974 -0.7941  0.0549
27233SOL    HW184237   9.544   1.826   2.083 -0.5493 -1.2040 -0.5739
27233SOL    HW284238   9.634   1.896   1.984 -0.9173 -0.7086 -0.5570
27234SOL     OW84239   7.580   3.385   1.950  0.3658 -0.2549  0.2225
27234SOL    HW184240   7.668   3.399   1.983  0.7454  0.2630 -0.9776
27234SOL    HW284241   7.550   3.472   1.922 -0.3584 -0.4990  0.2120
27235SOL     OW84242   4.716   5.010   0.580 -0.5424  0.3301  0.3429
27235SOL    HW184243   4.712   5.100   0.549 -1.3628 -0.0453 -0.7030
27235SOL    HW284244   4.807   4.995   0.603 -0.5936  1.7324  1.4393
27236SOL     OW84245   4.172   9.984   9.058  0.4694 -0.8535  0.2604
27236SOL    HW184246   4.247  10.010   9.112  1.2867  0.0009 -1.2631
27236SOL    HW284247   4.109  10.055   9.068  1.1084 -0.1259 -0.8337
27237SOL     OW84248   8.166   5.994   8.855  0.2226  0.0879  0.0673
27237SOL    HW184249   8.091   6.035   8.811  0.4640  0.9996  0.4822
27237SOL    HW284250   8.148   6.006   8.948  0.0878 -1.1582  0.2154
27238SOL     OW84251   5.378   2.140   6.430 -0.4328 -0.6365  0.2241
27238SOL    HW184252   5.368   2.125   6.336 -0.4236  0.5448  0.0240
27238SOL    HW284253   5.333   2.224   6.446  0.4121 -0.3360  1.0905
27239SOL     OW84254   7.530   1.382   0.597 -0.5236  0.1105 -0.1724
27239SOL    HW184255   7.564   1.366   0.685  0.4019  0.9796 -0.3581
27239SOL    HW284256   7.524   1.296   0.557 -0.0388 -0.1992  0.4170
27240SOL     OW84257   6.679   6.974   2.469 -0.1191 -0.1758 -0.3941
27240SOL    HW184258   6.720   6.945   2.550  0.5348  1.1897 -0.2206
27240SOL    HW284259   6.744   6.955   2.401 -0.8104 -1.6441 -0.6425
27241SOL     OW84260   6.940   9.474   3.816 -0.6905 -0.1289  0.4857
27241SOL    HW184261   6.962   9.384   3.836 -0.0234 -0.1594 -0.3274
27241SOL    HW284262   7.006   9.526   3.861  0.3065 -0.1626 -0.8864
27242SOL     OW84263   4.333   1.646   8.209  0.4469  0.4222 -0.7193
27242SOL    HW184264   4.371   1.697   8.280  2.4406  1.2443 -2.3438
27242SOL    HW284265   4.407   1.597   8.173 -0.9450 -1.6455 -0.8729
27243SOL     OW84266   4.647   1.510   2.894 -0.1568  0.4420  0.3989
27243SOL    HW184267   4.663   1.417   2.878 -1.4046  0.1085  1.0139
27243SOL    HW284268   4.638   1.516   2.989  0.2556  1.2593  0.3913
27244SOL     OW84269   3.727   4.231   4.071  0.2021  0.1518  0.1718
27244SOL    HW184270   3.676   4.312   4.064  1.1221  0.6588 -0.8459
27244SOL    HW284271   3.784   4.245   4.146  0.2410  0.3846  0.0986
27245SOL     OW84272   7.888   2.580   7.299 -0.2179  0.0487 -0.4161
27245SOL    HW184273   7.872   2.656   7.243 -0.3361 -0.9665 -1.8093
27245SOL    HW284274   7.805   2.532   7.298  0.3621 -0.9742 -0.9526
27246SOL     OW84275   0.788   2.790   9.534 -0.2129  0.0064  0.1229
27246SOL    HW184276   0.779   2.697   9.513  0.5050 -0.2818  1.0613
27246SOL    HW284277   0.747   2.799   9.620 -2.6105  1.0630 -1.0987
27247SOL     OW84278   0.874   8.552   7.687  0.2226 -0.0754 -0.2073
27247SOL    HW184279   0.861   8.636   7.643  1.7695  0.2743 -0.0288
27247SOL    HW284280   0.943   8.509   7.637 -0.5428 -1.2314 -0.2759
27248SOL     OW84281   6.297   0.001   7.810  0.0891  0.1972 -0.2074
27248SOL    HW184282   6.306   0.069   7.743 -1.0501 -0.0001 -0.5729
27248SOL    HW284283   6.337   0.039   7.888 -1.8980  1.9092  0.0122
27249SOL     OW84284   7.885   9.985   2.854 -0.0230 -0.3407 -0.3219
27249SOL    HW184285   7.877  10.072   2.893  1.7980 -0.8547  1.2614
27249SOL    HW284286   7.923  10.001   2.767 -1.8574  0.6084 -0.9703
27250SOL     OW84287   5.018   3.353   0.248 -0.9014 -0.6516 -0.0226
27250SOL    HW184288   5.058   3.282   0.298  0.4543 -1.0488 -1.6463
27250SOL    HW284289   5.054   3.345   0.160 -1.7819  1.2119 -0.5916
27251SOL     OW84290   2.916   5.573   3.065  0.0332  0.4026  0.6143
27251SOL    HW184291   2.913   5.489   3.110  0.3875  0.1752  0.2199
27251SOL    HW284292   2.825   5.603   3.064 -0.1472 -0.1400  0.4555
27252SOL     OW84293   9.660   0.019   9.041  0.5878  0.3883  0.9891
27252SOL    HW184294   9.630   0.096   8.992  1.2971 -0.2020 -0.4139
27252SOL    HW284295   9.737   0.049   9.089  0.3861  0.7694  1.0726
27253SOL     OW84296   8.514   5.770   4.268  0.0818  0.5156 -0.2578
27253SOL    HW184297   8.591   5.823   4.250  0.1151  0.5213 -0.0948
27253SOL    HW284298   8.499   5.779   4.362 -0.6298  1.2190 -0.4360
27254SOL     OW84299   5.055   7.064   1.515  0.8708 -0.1705 -0.4962
27254SOL    HW184300   5.126   7.128   1.522  2.2360 -1.6323 -0.7845
27254SOL    HW284301   4.984   7.102   1.568  2.7489  0.0957  1.9407
27255SOL     OW84302   7.308   0.892   7.997 -0.9755  0.1670 -0.1536
27255SOL    HW184303   7.375   0.825   8.010 -1.7083 -0.4870  0.3300
27255SOL    HW284304   7.357   0.971   7.974 -0.1529 -0.7776 -1.7516
27256SOL     OW84305   2.437   0.409   5.428 -0.2740 -0.2208  1.2314
27256SOL    HW184306   2.516   0.463   5.424  0.3099 -0.9664  2.3449
27256SOL    HW284307   2.383   0.450   5.495 -0.6381  0.0233  0.7930
27257SOL     OW84308   5.979   8.390   0.670  0.0365  0.6097  0.0253
27257SOL    HW184309   6.060   8.439   0.656 -0.4153  1.5386  0.6289
27257SOL    HW284310   5.994   8.341   0.751  0.3302  0.0705 -0.3520
27258SOL     OW84311   4.259   4.198   1.038 -0.6190 -0.8444 -0.4746
27258SOL    HW184312   4.286   4.114   1.002 -0.2476 -0.9583  0.0687
27258SOL    HW284313   4.210   4.176   1.117 -0.6395 -0.5560 -0.4055
27259SOL     OW84314   7.974   8.913   0.333 -0.0530  0.3652 -0.8333
27259SOL    HW184315   8.058   8.872   0.352  0.2775  0.9840 -0.9605
27259SOL    HW284316   7.939   8.938   0.418 -0.3079 -0.2664 -0.7438
27260SOL     OW84317   7.294   0.481   3.031 -0.0042  0.6124 -0.0387
27260SOL    HW184318   7.233   0.458   3.102  0.2287 -1.1300 -0.3763
27260SOL    HW284319   7.380   0.458   3.066  0.3276  1.7529 -0.0941
27261SOL     OW84320   0.178   3.540   3.120 -0.6069 -0.3535  0.1905
27261SOL    HW184321   0.236   3.613   3.146 -0.4399  0.2004 -1.6229
27261SOL    HW284322   0.121   3.526   3.196  0.6282  0.3902  1.2827
27262SOL     OW84323   0.882  10.138   3.498  0.2085  0.0230  0.3233
27262SOL    HW184324   0.935  10.153   3.576  0.6145 -2.2257  0.4981
27262SOL    HW284325   0.870  10.043   3.494  0.9230  0.0049 -2.8124
27263SOL     OW84326   2.380   0.520   6.572 -0.4449 -0.2483 -0.5613
27263SOL    HW184327   2.367   0.561   6.658  1.2007  1.0731 -0.9088
27263SOL    HW284328   2.307   0.551   6.519 -1.2652 -0.7711  0.2343
27264SOL     OW84329   3.132   0.209   1.805 -0.0820 -0.2532 -0.4841
27264SOL    HW184330   3.211   0.246   1.845 -0.4670  0.7984 -0.6931
27264SOL    HW284331   3.103   0.142   1.867  0.2577  0.2340  0.2095
27265SOL     OW84332   2.927   6.785  10.156 -0.0989 -0.0370 -0.0169
27265SOL    HW184333   2.838   6.757  10.172 -0.0086  0.6193  1.6602
27265SOL    HW284334   2.934   6.788  10.060 -2.7111  2.5691 -0.1911
27266SOL     OW84335   0.434   6.272   4.217 -1.0411  0.4829  0.2587
27266SOL    HW184336   0.390   6.343   4.169 -0.4706  0.1661 -0.7367
27266SOL    HW284337   0.429   6.300   4.308 -2.0915  1.1196  0.0253
27267SOL     OW84338   1.314   8.788   3.661  0.0749 -0.1067 -0.3359
27267SOL    HW184339   1.377   8.818   3.596 -0.6760 -0.0690 -1.0645
27267SOL    HW284340   1.288   8.701   3.631 -1.1058  0.3564 -0.7218
27268SOL     OW84341   1.485   0.780   2.320 -0.7669 -0.0055  0.4615
27268SOL    HW184342   1.536   0.699   2.323 -0.2265  0.3592  1.7812
27268SOL    HW284343   1.539   0.841   2.271  0.6537  0.7431  2.8791
27269SOL     OW84344   3.821   2.868   4.866  0.4015 -0.5959 -0.1908
27269SOL    HW184345   3.804   2.961   4.884  2.1465 -0.2663 -0.1651
27269SOL    HW284346   3.778   2.822   4.938  1.0951  0.3082  0.8357
27270SOL     OW84347   2.398   2.644   3.629 -0.8059  0.2378  0.0528
27270SOL    HW184348   2.474   2.654   3.687 -1.2296  1.3400  0.4404
27270SOL    HW284349   2.370   2.734   3.611 -1.9369 -0.1546 -0.2011
27271SOL     OW84350   5.434   4.153   1.756  0.2813 -0.2541  0.4028
27271SOL    HW184351   5.449   4.246   1.774  0.1208 -0.2690  0.6264
27271SOL    HW284352   5.354   4.152   1.702  0.0822 -0.2830  0.6961
27272SOL     OW84353   0.270   1.956   0.491  0.5120 -0.6602 -0.2369
27272SOL    HW184354   0.288   1.865   0.515 -1.2655 -0.5795  1.5587
27272SOL    HW284355   0.203   1.951   0.423 -1.7591 -0.6752  1.9223
27273SOL     OW84356   8.473   7.569   4.473  0.4988 -0.2559 -0.8232
27273SOL    HW184357   8.493   7.480   4.502  0.3009  0.0790  0.4007
27273SOL    HW284358   8.557   7.615   4.474  0.0819  0.5475  2.1429
27274SOL     OW84359   1.375   4.533   3.299  0.0050 -0.1836  0.3964
27274SOL    HW184360   1.386   4.535   3.394  1.2881 -1.0046  0.2893
27274SOL    HW284361   1.346   4.444   3.280 -1.5415  0.3756  0.1391
27275SOL     OW84362   1.268   0.365   4.862 -0.2553  0.6231 -0.2176
27275SOL    HW184363   1.277   0.412   4.945 -0.6921  0.5696 -0.1403
27275SOL    HW284364   1.330   0.293   4.869 -2.5841 -1.2782  1.3841
27276SOL     OW84365   7.761   9.519   4.094 -0.3937 -0.6418 -0.3893
27276SOL    HW184366   7.707   9.497   4.018 -0.9921 -0.3800 -0.0445
27276SOL    HW284367   7.736   9.608   4.116  1.4210  0.0922 -1.2690
27277SOL     OW84368   6.950   2.984   7.211 -0.0804  0.0008  0.3011
27277SOL    HW184369   6.947   2.975   7.116  0.6776 -1.8495  0.4231
27277SOL    HW284370   7.036   2.950   7.236 -0.5184 -0.1222  1.6984
27278SOL     OW84371   8.782   9.832   2.729  0.2505  0.0386 -0.2060
27278SOL    HW184372   8.857   9.868   2.681  0.9118 -0.5390  0.3829
27278SOL    HW284373   8.811   9.831   2.820 -0.7311  0.4536  0.1190
27279SOL     OW84374   4.234   9.837   3.780 -0.0001  0.2396  0.2522
27279SOL    HW184375   4.213   9.796   3.864 -1.7303  2.0093  0.7235
27279SOL    HW284376   4.207   9.928   3.791  1.5536  0.9370 -1.5765
27280SOL     OW84377   7.091   1.202   1.242  0.5725  0.5549  0.0832
27280SOL    HW184378   7.149   1.262   1.194 -1.1086  2.2906  0.1694
27280SOL    HW284379   7.088   1.123   1.187  1.8925  0.9817 -0.6277
27281SOL     OW84380   5.510   4.624   4.211 -0.1109  0.4602 -0.4003
27281SOL    HW184381   5.467   4.540   4.194  0.7592 -0.2668  0.8174
27281SOL    HW284382   5.600   4.612   4.179 -0.4240  1.4739 -1.6559
27282SOL     OW84383   2.758   0.025   2.355  0.2396 -0.1358  0.0765
27282SOL    HW184384   2.714   0.080   2.421 -0.0033 -0.1860 -0.0449
27282SOL    HW284385   2.830  -0.016   2.403  0.5596  0.4592  0.1166
27283SOL     OW84386   8.993   8.935   9.134 -0.4160  0.4163 -0.2664
27283SOL    HW184387   9.040   9.010   9.097  1.1680  1.0078  2.7974
27283SOL    HW284388   8.932   8.973   9.197  0.0852 -0.8337  1.0016
27284SOL     OW84389   4.733   0.881   8.264 -0.1063  0.2882 -0.5458
27284SOL    HW184390   4.787   0.939   8.318 -0.2448 -0.2992  0.2343
27284SOL    HW284391   4.683   0.941   8.208  0.4284  0.8836 -0.3938
27285SOL     OW84392   6.708   3.687   4.759  0.6109  0.2310 -0.2086
27285SOL    HW184393   6.625   3.662   4.798  0.0903 -0.9170 -1.9775
27285SOL    HW284394   6.774   3.641   4.811 -0.0845 -1.5029 -0.8340
27286SOL     OW84395   6.707   8.961   6.099  0.0390  0.1852  0.3422
27286SOL    HW184396   6.772   8.998   6.040 -0.7104  0.4061 -0.3551
27286SOL    HW284397   6.704   9.023   6.172 -0.8304  1.2536 -0.5765
27287SOL     OW84398   6.561   4.866   2.398  0.1703 -0.4161 -0.1398
27287SOL    HW184399   6.603   4.945   2.429 -0.2019 -0.5273  0.6541
27287SOL    HW284400   6.468   4.889   2.393  0.2226 -0.4031 -1.1574
27288SOL     OW84401   5.650   5.122   1.428  0.4171  0.2399  0.9081
27288SOL    HW184402   5.576   5.177   1.453 -0.4864 -0.5943  0.1354
27288SOL    HW284403   5.669   5.070   1.507 -0.6572 -0.4455  0.7365
27289SOL     OW84404   6.350   4.669  10.155 -0.5584  0.5879 -0.1769
27289SOL    HW184405   6.403   4.740  10.119  1.1360 -0.4095  0.3247
27289SOL    HW284406   6.379   4.591  10.108 -2.3987  0.1842 -0.7160
27290SOL     OW84407   2.094   8.420   9.866 -0.0611  0.8104 -0.4481
27290SOL    HW184408   2.098   8.392   9.774  0.9185 -0.9916  0.1222
27290SOL    HW284409   2.122   8.512   9.863 -2.1375  1.4419 -2.1952
27291SOL     OW84410  10.196   4.228   7.212 -0.4663  0.0061  0.2911
27291SOL    HW184411  10.211   4.221   7.306  0.6789  1.0974  0.2049
27291SOL    HW284412  10.275   4.270   7.178 -1.2591  0.4640 -1.0257
27292SOL     OW84413   6.956   2.816   9.443 -0.1982  0.3886 -0.1224
27292SOL    HW184414   7.008   2.736   9.429  1.8181  1.3266  1.7853
27292SOL    HW284415   6.921   2.836   9.356 -1.8362 -3.2804 -0.4184
27293SOL     OW84416   2.214   2.556   1.568  0.5580  0.2023 -0.4760
27293SOL    HW184417   2.217   2.499   1.645  0.1341  0.9666  0.1118
27293SOL    HW284418   2.232   2.643   1.602  1.9670  0.3188 -1.4902
27294SOL     OW84419   7.659   7.993   5.106 -0.3080  0.6616 -0.4531
27294SOL    HW184420   7.715   8.041   5.045  1.2885 -0.1770  0.2972
27294SOL    HW284421   7.614   7.929   5.051  0.5104  0.4451 -0.8896
27295SOL     OW84422   9.735   5.515   9.267 -0.2668 -0.1619 -0.3815
27295SOL    HW184423   9.726   5.431   9.312  4.5805  0.2129  1.6038
27295SOL    HW284424   9.693   5.578   9.324  1.3030 -0.4451  1.1242
27296SOL     OW84425   2.758  10.153   3.699 -0.3719  0.2057  0.6346
27296SOL    HW184426   2.732  10.064   3.724 -0.9783 -0.2765 -1.6224
27296SOL    HW284427   2.700  10.210   3.749 -2.2082 -0.7515 -0.3626
27297SOL     OW84428   2.206   0.428   2.148 -0.1927 -0.0727  0.0047
27297SOL    HW184429   2.113   0.428   2.171  0.3626 -1.5782  2.4282
27297SOL    HW284430   2.245   0.493   2.207  0.2696  0.7457 -1.1858
27298SOL     OW84431   7.884   3.807   8.550  0.1125  0.7578 -0.1219
27298SOL    HW184432   7.896   3.835   8.641  2.8137 -0.3673 -0.0927
27298SOL    HW284433   7.813   3.863   8.518 -0.6472  1.4319  2.5500
27299SOL     OW84434   6.163   2.932   0.462  0.1732 -0.2896  0.3218
27299SOL    HW184435   6.151   2.916   0.369 -2.1942 -1.1138  0.7187
27299SOL    HW284436   6.131   3.022   0.475 -0.0912 -0.4021  0.4448
27300SOL     OW84437   0.343   8.278   1.789 -0.2093  0.1059 -0.0212
27300SOL    HW184438   0.367   8.346   1.852 -0.4450  0.5899 -0.4595
27300SOL    HW284439   0.248   8.276   1.791 -0.1836 -1.5477  1.4224
27301SOL     OW84440   9.198   7.956   5.017  0.2621  0.0887 -0.0616
27301SOL    HW184441   9.293   7.960   5.032  0.3659 -3.0757  0.5462
27301SOL    HW284442   9.172   8.047   5.005  3.2027  1.1261  0.8385
27302SOL     OW84443   1.618   9.287   7.759 -0.6750 -0.0035 -0.7295
27302SOL    HW184444   1.604   9.193   7.773 -0.8299  0.1276  0.0367
27302SOL    HW284445   1.634   9.322   7.847 -1.5385  0.8422 -0.9059
27303SOL     OW84446   8.623   0.171  10.095 -0.6340 -0.1832  0.0554
27303SOL    HW184447   8.669   0.088  10.106 -0.9934 -0.5059 -0.8239
27303SOL    HW284448   8.548   0.165  10.155 -0.0488 -0.0389  0.8038
27304SOL     OW84449  10.043   7.396   1.116  0.0527  0.4899 -0.3441
27304SOL    HW184450  10.007   7.468   1.063 -2.3865  0.0359  0.6431
27304SOL    HW284451   9.989   7.320   1.094  0.6639 -0.3209  0.8854
27305SOL     OW84452   3.887   1.399   3.317 -0.3396  0.1158 -0.3318
27305SOL    HW184453   3.930   1.485   3.316  1.5360 -0.8224 -0.9335
27305SOL    HW284454   3.887   1.370   3.226  1.4633 -1.6983  0.2078
27306SOL     OW84455   6.997   5.942   1.908  0.1610  0.1345  0.2863
27306SOL    HW184456   7.016   5.903   1.993  1.3586 -3.3944 -1.5321
27306SOL    HW284457   7.000   6.037   1.925 -0.0330 -0.4554  4.2101
27307SOL     OW84458   8.726   8.121   1.626 -0.1734  0.0192  0.3554
27307SOL    HW184459   8.679   8.117   1.543  1.1509  1.0632 -0.4728
27307SOL    HW284460   8.686   8.194   1.674 -0.8352 -0.4875  0.5865
27308SOL     OW84461   7.476   3.921   5.285 -0.3373  0.4085  0.0961
27308SOL    HW184462   7.412   3.971   5.335 -1.0054  0.8107 -1.1220
27308SOL    HW284463   7.541   3.986   5.257 -0.5676  0.3924 -0.4886
27309SOL     OW84464   8.503   7.135   1.244 -0.0194  0.2110 -0.3941
27309SOL    HW184465   8.447   7.150   1.167 -1.5281  0.4767  0.7281
27309SOL    HW284466   8.487   7.211   1.300  0.6872 -0.2298  0.4129
27310SOL     OW84467   8.647   4.580   7.628  0.2938  0.9869  0.2858
27310SOL    HW184468   8.711   4.550   7.693  0.3413 -0.2036 -0.3137
27310SOL    HW284469   8.574   4.520   7.637 -0.5607  2.0469  0.6196
27311SOL     OW84470   5.472   5.595   4.354  0.2335 -0.2668 -0.4403
27311SOL    HW184471   5.416   5.570   4.280  1.3750  1.2071 -1.8326
27311SOL    HW284472   5.411   5.610   4.426 -0.8891 -1.8574 -1.0275
27312SOL     OW84473   4.129   0.038   1.023  0.1726  0.1142  0.3542
27312SOL    HW184474   4.211  -0.005   0.997 -0.6437 -1.0694 -0.3267
27312SOL    HW284475   4.122   0.022   1.117 -0.4218 -1.7915  0.0013
27313SOL     OW84476   6.534   7.808   9.622  0.2521  0.6905  0.1159
27313SOL    HW184477   6.562   7.896   9.597  0.3345  0.4519 -0.6390
27313SOL    HW284478   6.615   7.757   9.621 -0.0484  0.2406 -1.0136
27314SOL     OW84479   7.790   3.707   7.171 -0.2884  0.4354 -0.1171
27314SOL    HW184480   7.760   3.796   7.188  0.1645  0.6678 -0.5336
27314SOL    HW284481   7.810   3.706   7.077 -1.0770 -0.3353 -0.2873
27315SOL     OW84482   4.992   9.522   9.120 -0.3860  0.5001 -0.0573
27315SOL    HW184483   5.047   9.455   9.078 -1.6745 -0.8107  0.3067
27315SOL    HW284484   4.941   9.559   9.048  0.4414  1.2241 -0.2841
27316SOL     OW84485   0.348   9.942   0.886  0.3253 -0.7940 -0.2646
27316SOL    HW184486   0.438   9.926   0.914 -0.0810 -1.0592  0.8851
27316SOL    HW284487   0.332  10.034   0.908  0.0237 -0.9877  0.3183
27317SOL     OW84488   4.700   9.544   9.899  0.2887 -0.3516  0.0622
27317SOL    HW184489   4.745   9.615   9.852 -0.9633  1.5179  1.6206
27317SOL    HW284490   4.729   9.465   9.855  0.8032  1.2032 -2.5139
27318SOL     OW84491   3.931   9.710   8.163  0.4532 -0.6132 -0.5181
27318SOL    HW184492   3.930   9.718   8.259 -1.3330 -1.0857 -0.4757
27318SOL    HW284493   3.948   9.798   8.132  0.6829 -0.3815  0.2481
27319SOL     OW84494   3.277   9.778   9.177  0.1595  0.3372 -0.2047
27319SOL    HW184495   3.304   9.686   9.169 -0.7574  0.1203 -0.9353
27319SOL    HW284496   3.214   9.778   9.250  0.0077  0.3559 -0.3370
27320SOL     OW84497   2.817   5.678   5.208  0.4280  0.1174 -0.0584
27320SOL    HW184498   2.726   5.677   5.239  0.6944  0.0854  0.7360
27320SOL    HW284499   2.865   5.722   5.278  1.1911 -0.8088 -0.0019
27321SOL     OW84500   9.742   7.700   4.272  0.1750  0.5970  0.0360
27321SOL    HW184501   9.701   7.755   4.205 -1.0620 -2.5915 -1.9269
27321SOL    HW284502   9.689   7.714   4.350 -1.8596  0.0702 -1.2151
27322SOL     OW84503   3.748   3.094   0.936  0.0390  0.5312 -0.6664
27322SOL    HW184504   3.779   3.010   0.903  1.1305 -0.5306  2.8613
27322SOL    HW284505   3.652   3.085   0.936  0.1233 -0.4881 -0.8715
27323SOL     OW84506   3.487   6.923   6.686 -0.3721 -0.1815  0.3829
27323SOL    HW184507   3.516   6.838   6.719 -2.5877 -1.1535 -0.0750
27323SOL    HW284508   3.459   6.906   6.596  0.2063  1.2639 -0.0899
27324SOL     OW84509   6.963   9.206   1.454 -0.1199 -0.1280  0.2346
27324SOL    HW184510   7.037   9.246   1.499 -1.1723  0.3324  1.5835
27324SOL    HW284511   6.889   9.217   1.514 -1.0711 -1.4652 -0.6535
27325SOL     OW84512   9.238   3.941   0.720 -0.1007  0.2442 -0.2946
27325SOL    HW184513   9.208   4.024   0.759  1.2100  1.1000 -1.0605
27325SOL    HW284514   9.285   3.968   0.641 -0.7953 -1.3352 -1.2612
27326SOL     OW84515   5.140   9.836   7.273 -0.3726 -0.0484 -0.5094
27326SOL    HW184516   5.179   9.817   7.358 -1.4231  1.8155  0.4069
27326SOL    HW284517   5.053   9.871   7.293 -1.6604 -1.9830 -2.4363
27327SOL     OW84518   8.011   4.161   9.693  0.3752  0.3487  0.1731
27327SOL    HW184519   8.106   4.168   9.705  0.0610  0.8010  2.6731
27327SOL    HW284520   7.975   4.237   9.739 -1.2673 -0.3269  0.0462
27328SOL     OW84521   1.001   1.408   3.025 -0.0404 -0.2961  0.1791
27328SOL    HW184522   0.986   1.427   3.118 -0.5295  0.9443 -0.1456
27328SOL    HW284523   1.093   1.382   3.020 -0.1837 -0.9789  1.1111
27329SOL     OW84524   2.474   0.136   5.720  0.2903 -0.0413  0.2935
27329SOL    HW184525   2.459   0.115   5.628  3.3040  0.8828 -0.4561
27329SOL    HW284526   2.442   0.226   5.729  0.8801  0.2049 -0.0767
27330SOL     OW84527   1.185   6.020   3.335  0.7101  0.6269 -0.3168
27330SOL    HW184528   1.098   5.995   3.365  0.2480  0.6924 -1.5508
27330SOL    HW284529   1.169   6.088   3.268  1.7457  1.3568  0.1475
27331SOL     OW84530   3.769   7.407   1.135 -0.0528 -0.2144 -0.4536
27331SOL    HW184531   3.826   7.434   1.207  0.8600 -0.8314 -0.9382
27331SOL    HW284532   3.828   7.365   1.073 -0.8164  0.4069 -1.6130
27332SOL     OW84533   9.762   9.281   1.495 -0.1474  0.1363  0.0709
27332SOL    HW184534   9.799   9.268   1.407 -1.4062 -2.3538 -0.1588
27332SOL    HW284535   9.670   9.305   1.479 -0.1737  0.4616  0.6935
27333SOL     OW84536   4.594   0.620   4.479 -0.2221  0.4966 -0.0712
27333SOL    HW184537   4.680   0.656   4.497 -0.4650  1.2675 -0.4093
27333SOL    HW284538   4.538   0.654   4.549  0.0082 -1.0242  0.8682
27334SOL     OW84539   5.815   1.909   5.094  0.0980 -0.2667 -0.7881
27334SOL    HW184540   5.870   1.901   5.172  0.3796 -2.4264 -1.1922
27334SOL    HW284541   5.732   1.945   5.127  0.5064 -0.3870  0.3777
27335SOL     OW84542   3.647   5.798   4.840  0.3508  0.3133  0.0112
27335SOL    HW184543   3.731   5.765   4.809  0.1398  0.7195 -1.0237
27335SOL    HW284544   3.668   5.882   4.882  0.3356  0.9947 -1.2880
27336SOL     OW84545   4.382   2.756   1.600  0.0895 -0.0696 -0.2406
27336SOL    HW184546   4.413   2.821   1.537  1.2638  1.0832  1.4580
27336SOL    HW284547   4.291   2.780   1.616  0.4762  1.1200  0.2828
27337SOL     OW84548   8.182   3.058   9.258  0.2003  0.3280 -0.3596
27337SOL    HW184549   8.232   3.131   9.220  0.5815  0.6803  0.7776
27337SOL    HW284550   8.091   3.088   9.257  0.5167  1.4345  1.4122
27338SOL     OW84551   7.049   1.852   5.324  0.8722 -0.2308 -0.0626
27338SOL    HW184552   7.025   1.761   5.306  1.2767 -0.3750  0.1128
27338SOL    HW284553   7.053   1.893   5.238 -2.8557  0.5306  0.0710
27339SOL     OW84554   3.789   6.432   9.197  0.4355  0.1384  0.1361
27339SOL    HW184555   3.825   6.429   9.285 -0.8961 -0.8340  0.6660
27339SOL    HW284556   3.773   6.340   9.175  1.8325  0.2686 -1.5797
27340SOL     OW84557   8.391   4.863  10.198 -0.7584 -0.3202  0.1236
27340SOL    HW184558   8.331   4.858  10.123  0.2589  0.6156 -0.7766
27340SOL    HW284559   8.447   4.938  10.178 -0.9304  0.3776  2.1901
27341SOL     OW84560   1.170   1.324   2.350 -0.2869  0.0205  0.6566
27341SOL    HW184561   1.235   1.332   2.280 -0.1907 -0.1012  0.7338
27341SOL    HW284562   1.162   1.413   2.384 -0.3907  0.0949  0.4399
27342SOL     OW84563   8.564   0.218   0.955 -0.0466  0.4598 -0.1660
27342SOL    HW184564   8.645   0.257   0.924 -0.8173  1.7314 -0.6233
27342SOL    HW284565   8.534   0.277   1.025  0.7601 -1.4060  1.8145
27343SOL     OW84566   8.260   7.457   7.398  0.4393  0.3104  0.1162
27343SOL    HW184567   8.287   7.418   7.481  1.4062 -0.3011 -0.4825
27343SOL    HW284568   8.271   7.387   7.334 -1.1792  0.4913 -0.3854
27344SOL     OW84569   6.402   0.595   2.428 -0.4128  0.4019  0.6676
27344SOL    HW184570   6.410   0.676   2.478 -0.2667  2.3710 -2.4187
27344SOL    HW284571   6.492   0.562   2.421 -0.3699  0.3918  1.2340
27345SOL     OW84572   8.255   7.657   4.262 -0.1395  0.4897 -0.3544
27345SOL    HW184573   8.279   7.644   4.170 -1.6843  1.3709 -0.8883
27345SOL    HW284574   8.319   7.605   4.311  2.0854  1.7779 -1.8196
27346SOL     OW84575   3.261   3.936   7.341 -0.4153 -0.0668  0.8741
27346SOL    HW184576   3.287   4.028   7.352  0.3825 -0.4890  2.7233
27346SOL    HW284577   3.277   3.917   7.249  0.2867  1.3993  0.6812
27347SOL     OW84578   7.635   7.840   7.499 -0.3055 -0.3615 -0.3986
27347SOL    HW184579   7.630   7.757   7.451 -2.3977 -1.3184  1.4177
27347SOL    HW284580   7.577   7.899   7.450 -0.3161 -0.5222 -0.5820
27348SOL     OW84581   9.170   4.893   9.617 -0.5936  0.1673  0.1710
27348SOL    HW184582   9.195   4.800   9.622 -1.2818 -0.0948 -0.9642
27348SOL    HW284583   9.093   4.900   9.673  0.4300  0.4142  1.5702
27349SOL     OW84584   9.385   9.445   3.062 -0.0412 -0.0327  0.0978
27349SOL    HW184585   9.396   9.395   2.981 -0.5673  0.9620 -0.6130
27349SOL    HW284586   9.337   9.524   3.034 -0.7240  0.0537  1.4755
27350SOL     OW84587   0.097   2.962   9.439 -0.2230  0.1715 -0.6007
27350SOL    HW184588   0.173   2.999   9.394  0.7549 -1.1384 -0.0855
27350SOL    HW284589   0.127   2.876   9.469 -1.1280  0.6041  1.7003
27351SOL     OW84590   4.856   1.506   3.125 -0.2621  0.3844  0.1386
27351SOL    HW184591   4.856   1.453   3.205  0.0114 -0.8455 -0.6707
27351SOL    HW284592   4.877   1.445   3.055  1.3791  1.7966 -0.6625
27352SOL     OW84593   7.123   9.865   3.780  0.0378 -0.6019  0.2139
27352SOL    HW184594   7.139   9.795   3.844  4.2586  0.0958  0.0692
27352SOL    HW284595   7.169   9.941   3.815  0.0708  0.5889 -2.2878
27353SOL     OW84596   3.737   8.422   1.319  0.1730  0.1333  0.4110
27353SOL    HW184597   3.647   8.429   1.288 -0.4183  1.5127  2.3191
27353SOL    HW284598   3.734   8.359   1.391  1.0166 -0.9766 -0.5156
27354SOL     OW84599   8.710   9.423   5.781  0.1861 -0.2319 -0.2697
27354SOL    HW184600   8.683   9.381   5.863  2.3747 -0.2130  0.4897
27354SOL    HW284601   8.715   9.516   5.802 -1.7348  0.1055 -1.1527
27355SOL     OW84602   4.684   3.742   4.699 -0.0300  0.2415 -0.2352
27355SOL    HW184603   4.617   3.810   4.708 -1.2901 -1.0784  0.4412
27355SOL    HW284604   4.646   3.678   4.639  0.6858 -0.4418  0.0271
27356SOL     OW84605   9.367   6.582   3.819  0.1879  0.0439 -0.4059
27356SOL    HW184606   9.356   6.665   3.865  1.7626 -0.0837  0.2528
27356SOL    HW284607   9.349   6.515   3.884 -2.5674 -0.1769 -1.3218
27357SOL     OW84608   6.771   7.285   8.743 -0.4294 -0.4327 -0.2639
27357SOL    HW184609   6.748   7.317   8.830  0.7547 -0.1621 -0.0403
27357SOL    HW284610   6.761   7.361   8.686  1.3589  0.0910  0.0910
27358SOL     OW84611   2.849   5.772   2.362 -0.1043 -0.4599  0.4797
27358SOL    HW184612   2.864   5.714   2.437  1.0859  0.3184  0.8538
27358SOL    HW284613   2.922   5.752   2.303  0.2741  0.6016  0.5803
27359SOL     OW84614   1.963   1.407   1.237  0.6389  0.1589  0.7974
27359SOL    HW184615   1.954   1.472   1.167  0.8554 -0.7740 -0.1203
27359SOL    HW284616   1.874   1.376   1.253  0.6765 -0.1540  0.4138
27360SOL     OW84617   2.721   6.625   6.755 -0.3114  0.1920  0.3142
27360SOL    HW184618   2.780   6.559   6.793 -0.0684  0.8590  1.1113
27360SOL    HW284619   2.655   6.639   6.823 -1.6428 -0.8693 -0.7471
27361SOL     OW84620   4.084   6.418   5.960  0.2693 -0.4250  0.5058
27361SOL    HW184621   4.058   6.473   5.886  1.3519 -0.5724  0.0042
27361SOL    HW284622   4.100   6.480   6.031 -1.6346 -0.3472  0.8950
27362SOL     OW84623   0.082   2.473   7.475  0.1417 -0.1437  0.6608
27362SOL    HW184624   0.017   2.474   7.544  0.2986  0.5696  0.8014
27362SOL    HW284625   0.031   2.465   7.394 -0.0622 -0.5584  0.8302
27363SOL     OW84626   9.851   4.726   6.082 -0.6093  0.3108 -0.1809
27363SOL    HW184627   9.856   4.653   6.144  0.8497 -0.2443 -0.9385
27363SOL    HW284628   9.757   4.746   6.077 -0.8052 -0.0340  1.7257
27364SOL     OW84629   7.123   4.509   4.572  0.6332  0.1462  0.6231
27364SOL    HW184630   7.146   4.480   4.661  1.3655 -4.0818 -0.8027
27364SOL    HW284631   7.033   4.539   4.579 -0.1420 -2.3871  2.4011
27365SOL     OW84632   8.020   1.476   6.032  0.2826 -0.5228 -0.3329
27365SOL    HW184633   8.049   1.390   6.062 -0.3776 -1.4368 -2.2142
27365SOL    HW284634   8.085   1.502   5.966 -1.0245 -0.8784 -1.8136
27366SOL     OW84635   5.737   6.810   7.531  0.3895  0.2080  0.8302
27366SOL    HW184636   5.747   6.837   7.440  1.3835 -1.4134  0.4451
27366SOL    HW284637   5.643   6.797   7.542  0.4017 -1.0226 -0.3941
27367SOL     OW84638   9.387   7.710   4.541 -0.7417  0.2696  0.1372
27367SOL    HW184639   9.394   7.627   4.588 -1.5909  0.2484  0.2486
27367SOL    HW284640   9.372   7.775   4.610 -1.8005  0.2656 -0.0750
27368SOL     OW84641   8.498   9.358   8.750  0.1305  0.1754  0.1461
27368SOL    HW184642   8.557   9.424   8.786 -0.0839  0.7443 -0.5212
27368SOL    HW284643   8.536   9.335   8.665  2.1094 -3.1455  1.8394
27369SOL     OW84644   4.395   5.227   7.378  0.1450  0.1423  0.0799
27369SOL    HW184645   4.452   5.252   7.306 -0.2747  0.6183 -0.0902
27369SOL    HW284646   4.454   5.204   7.449  0.5889 -1.0670 -0.6477
27370SOL     OW84647   0.121   4.811   7.296 -0.1770  0.1650 -0.1275
27370SOL    HW184648   0.064   4.866   7.242  1.3604  2.5800  0.6020
27370SOL    HW284649   0.147   4.739   7.239 -2.3043  0.1225 -1.0919
27371SOL     OW84650   1.236   6.590   6.373 -0.4307  0.1667 -0.4488
27371SOL    HW184651   1.163   6.530   6.389  1.0938 -2.2448 -2.1164
27371SOL    HW284652   1.221   6.622   6.284 -1.6677  2.9866  0.7091
27372SOL     OW84653   5.076   6.359   2.079  0.7430 -0.0865 -0.0003
27372SOL    HW184654   5.052   6.268   2.064  1.7663 -0.4519  0.5560
27372SOL    HW284655   5.001   6.409   2.047 -0.3002 -1.1635  0.7208
27373SOL     OW84656   7.754   3.177   3.179 -0.2073  0.0197  0.1546
27373SOL    HW184657   7.753   3.093   3.133  1.0430  0.1563 -0.1565
27373SOL    HW284658   7.664   3.191   3.206 -0.1236 -2.2403  1.6925
27374SOL     OW84659   7.152   1.961   8.966 -0.7418 -0.0452 -0.0210
27374SOL    HW184660   7.106   1.924   9.041 -1.9214  1.2553 -0.0910
27374SOL    HW284661   7.242   1.973   8.996 -0.8747 -0.8491  0.7216
27375SOL     OW84662   3.702   2.337   6.501 -0.9349  0.4390 -0.2374
27375SOL    HW184663   3.727   2.271   6.565  1.4536 -0.0295 -1.6090
27375SOL    HW284664   3.644   2.397   6.549  0.8872  0.1433  2.3736
27376SOL     OW84665   4.780   1.744   3.262 -0.3490  0.2683 -0.0265
27376SOL    HW184666   4.788   1.673   3.199  2.8331  0.2202  0.3426
27376SOL    HW284667   4.699   1.789   3.237  0.1656 -0.5047 -3.3480
27377SOL     OW84668   9.986   8.754   3.693 -0.2598 -0.2004  0.6210
27377SOL    HW184669  10.032   8.706   3.763 -0.8435 -0.3433  0.9105
27377SOL    HW284670  10.019   8.716   3.612 -0.0286 -0.4527  0.8326
27378SOL     OW84671   5.749   7.009   3.368  0.1698  0.6922  0.1962
27378SOL    HW184672   5.741   6.914   3.359 -2.4291  0.9277 -0.2326
27378SOL    HW284673   5.814   7.022   3.437  0.3407 -1.3836  0.4369
27379SOL     OW84674   8.041   3.412   5.995 -0.1406  0.2202  0.2650
27379SOL    HW184675   8.060   3.318   6.001 -2.7455 -0.3706  0.1651
27379SOL    HW284676   8.079   3.439   5.912 -0.4760 -1.0510 -0.3219
27380SOL     OW84677   5.905   3.741   5.219  0.0502  0.0646 -0.0134
27380SOL    HW184678   5.879   3.826   5.184  0.7437  0.6553  0.8794
27380SOL    HW284679   5.841   3.721   5.287  0.2850  0.2045  0.2527
27381SOL     OW84680   2.563   6.435   3.182  0.4420  0.1344  0.8685
27381SOL    HW184681   2.538   6.524   3.158  1.8326  0.2292 -0.3330
27381SOL    HW284682   2.592   6.396   3.099  0.0168 -1.3727  1.4226
27382SOL     OW84683   4.658   9.187   1.965  0.0085  0.5430 -0.4764
27382SOL    HW184684   4.681   9.212   2.054  0.3546 -0.5824 -0.2436
27382SOL    HW284685   4.734   9.213   1.912  0.2661  0.2049 -0.2739
27383SOL     OW84686   2.375   3.628   6.378  0.2594  0.2633  0.4324
27383SOL    HW184687   2.348   3.589   6.295  0.9558 -0.4400  0.5217
27383SOL    HW284688   2.471   3.633   6.371  0.1884  1.7341  0.5267
27384SOL     OW84689  10.124   9.856  10.193 -0.5539  0.0920 -0.2526
27384SOL    HW184690  10.194   9.821  10.138 -0.1867 -0.5049  0.5860
27384SOL    HW284691  10.102   9.941  10.153 -1.0202 -0.7964 -1.9357
27385SOL     OW84692   8.206   4.661   8.238  0.0794  0.1074  0.0955
27385SOL    HW184693   8.297   4.670   8.210 -0.3829 -0.5420 -1.6912
27385SOL    HW284694   8.158   4.641   8.157 -1.4309 -1.0335  1.2529
27386SOL     OW84695   7.294   5.164   2.372 -0.4122 -0.4457  0.1427
27386SOL    HW184696   7.264   5.082   2.334 -0.6113 -0.1781 -0.2776
27386SOL    HW284697   7.224   5.191   2.431 -0.3277 -0.5937  0.3142
27387SOL     OW84698   8.895   4.600   2.878 -0.3643  0.1533 -0.1405
27387SOL    HW184699   8.964   4.553   2.925 -0.9438 -0.5020  0.0656
27387SOL    HW284700   8.827   4.534   2.863  0.2271  0.0883 -2.7960
27388SOL     OW84701   3.358   5.999   3.565  0.3245  0.2951 -0.4548
27388SOL    HW184702   3.390   6.059   3.633 -0.6429  0.3183 -0.0104
27388SOL    HW284703   3.302   5.938   3.612  1.7943 -1.3691 -0.7986
27389SOL     OW84704   7.953   9.538   4.836  0.3416  0.3535  0.2598
27389SOL    HW184705   7.973   9.507   4.747 -0.0155 -2.1867  1.0187
27389SOL    HW284706   7.873   9.589   4.826 -1.7677 -2.9469 -0.3948
27390SOL     OW84707  10.085   9.553   5.666 -0.0615  0.3468 -0.9396
27390SOL    HW184708  10.102   9.527   5.756 -0.4593  1.5331 -0.5240
27390SOL    HW284709  10.032   9.481   5.630  1.3587 -0.8374 -0.6842
27391SOL     OW84710   8.389   8.284   3.847  0.5463 -0.5395 -0.5502
27391SOL    HW184711   8.397   8.332   3.765  1.4081  0.2262 -0.0377
27391SOL    HW284712   8.403   8.192   3.823  2.4049 -0.1580 -1.0376
27392SOL     OW84713   4.632   6.818   2.510 -0.5102  0.2225 -0.3652
27392SOL    HW184714   4.588   6.752   2.563 -1.7007 -0.7275 -2.5120
27392SOL    HW284715   4.720   6.824   2.548 -1.8680  0.9038  2.8665
27393SOL     OW84716   3.025   8.677   1.134  0.0447 -0.0703 -0.1739
27393SOL    HW184717   2.958   8.721   1.186  0.7555 -1.8335  2.3289
27393SOL    HW284718   3.033   8.730   1.055 -3.3131  0.9362  0.0866
27394SOL     OW84719   6.994   5.667   0.800  0.0218  0.4690 -0.1437
27394SOL    HW184720   6.999   5.718   0.880 -1.4706 -0.1618  0.3746
27394SOL    HW284721   6.958   5.583   0.827 -0.3434  0.1930 -1.4462
27395SOL     OW84722   5.972   9.079   3.254  0.3492  0.7163 -0.1498
27395SOL    HW184723   5.995   9.156   3.307 -2.4956  1.5419 -0.0535
27395SOL    HW284724   5.935   9.116   3.174  1.1122 -0.5682 -1.1125
27396SOL     OW84725   9.400   2.494   5.589  0.0219  0.8074 -0.1039
27396SOL    HW184726   9.315   2.522   5.555 -0.4789 -1.3228 -0.6824
27396SOL    HW284727   9.393   2.505   5.683 -0.6792  1.2449 -0.2062
27397SOL     OW84728   2.310   9.731   1.351 -0.1967 -0.2442  0.2661
27397SOL    HW184729   2.333   9.771   1.434  0.3583  0.3194 -0.1501
27397SOL    HW284730   2.303   9.637   1.369  0.7154 -0.2110  0.7630
27398SOL     OW84731   4.323   6.990   8.198  0.5812 -0.2391  0.3470
27398SOL    HW184732   4.253   7.054   8.203 -1.4684 -2.0945 -3.0233
27398SOL    HW284733   4.297   6.921   8.260  0.7054  0.2237  0.9220
27399SOL     OW84734   3.202   4.775   0.123 -0.4420  0.3869 -0.7149
27399SOL    HW184735   3.170   4.689   0.147 -2.3286  1.0039 -0.9512
27399SOL    HW284736   3.151   4.799   0.045 -0.0400  1.7665 -0.5656
27400SOL     OW84737   8.083   6.862   3.821 -0.1880 -0.5419  0.6397
27400SOL    HW184738   8.155   6.841   3.762 -0.0411 -1.1496  1.0189
27400SOL    HW284739   8.021   6.911   3.768 -0.3296 -1.5871 -0.1749
27401SOL     OW84740   6.507   4.080   6.547 -0.7268  0.4152  0.0058
27401SOL    HW184741   6.480   4.016   6.613 -0.2711  0.2470  0.0337
27401SOL    HW284742   6.439   4.148   6.549  0.1698  1.2767  1.8415
27402SOL     OW84743   1.122   8.118   5.571 -0.4096 -0.0667 -0.7242
27402SOL    HW184744   1.166   8.196   5.537 -0.6794  0.4512  0.0780
27402SOL    HW284745   1.193   8.059   5.596 -0.1179  0.9420  0.9807
27403SOL     OW84746   0.993   9.144   8.330  0.3549  0.1544  0.2087
27403SOL    HW184747   1.038   9.086   8.391  1.5713  0.5955 -0.2466
27403SOL    HW284748   0.958   9.215   8.384  0.4323 -0.0616  0.5377
27404SOL     OW84749   0.229   4.788   8.818 -0.0981  0.0663  0.7142
27404SOL    HW184750   0.296   4.804   8.884  0.6404 -1.0464  0.2541
27404SOL    HW284751   0.220   4.693   8.816  0.5295  0.0152 -1.4126
27405SOL     OW84752   2.177   2.804   2.607 -0.5860  0.0759  0.6322
27405SOL    HW184753   2.135   2.745   2.670 -0.8352 -3.5762 -2.7974
27405SOL    HW284754   2.267   2.773   2.602  0.2626  2.3062  1.3644
27406SOL     OW84755   2.738   1.027   4.339  0.2503  0.0336 -0.4037
27406SOL    HW184756   2.707   0.939   4.362  1.4852 -0.0469  1.0677
27406SOL    HW284757   2.829   1.028   4.370  0.5986  1.4508 -1.4474
27407SOL     OW84758   5.812   8.617   2.608  0.0705 -0.1297 -0.1575
27407SOL    HW184759   5.850   8.575   2.531 -0.7969  0.1655 -0.7629
27407SOL    HW284760   5.770   8.696   2.574  1.3652  1.0387  0.9148
27408SOL     OW84761   0.073   5.807   5.358 -0.5306 -0.0991  0.4991
27408SOL    HW184762   0.042   5.717   5.368  0.0698 -0.3225  0.3850
27408SOL    HW284763   0.021   5.857   5.420  0.6443 -0.8893  2.1584
27409SOL     OW84764   2.893   9.469   3.545 -0.1491  0.0274 -0.2973
27409SOL    HW184765   2.832   9.467   3.471 -0.4166 -2.2886 -0.0518
27409SOL    HW284766   2.947   9.546   3.529 -3.1665  2.1847 -0.4843
27410SOL     OW84767   8.082   8.191   8.094 -0.7756 -0.3406 -0.9238
27410SOL    HW184768   7.998   8.150   8.072 -1.8346  0.1967  1.8909
27410SOL    HW284769   8.060   8.254   8.163  1.7303  0.8716 -1.1711
27411SOL     OW84770   6.457   3.258   4.847 -0.3550 -0.4585 -0.1958
27411SOL    HW184771   6.454   3.264   4.751 -0.8276 -1.2888 -0.2401
27411SOL    HW284772   6.390   3.320   4.877 -2.5439 -2.6074 -0.5163
27412SOL     OW84773   4.643   9.080   1.071  0.5426  0.1987  0.1994
27412SOL    HW184774   4.632   8.986   1.061 -0.1030  0.4035 -1.0118
27412SOL    HW284775   4.560   9.118   1.042  0.4770  1.0996  1.4906
27413SOL     OW84776   9.761   8.527   6.860  0.1918  0.3323  0.0238
27413SOL    HW184777   9.834   8.569   6.905  2.0197 -1.9859 -0.6911
27413SOL    HW284778   9.793   8.510   6.772 -0.7111 -1.8742  0.0788
27414SOL     OW84779   4.830   4.457   0.598  0.0669 -0.1875 -0.5226
27414SOL    HW184780   4.797   4.522   0.536  1.1000 -1.2045 -2.1468
27414SOL    HW284781   4.816   4.497   0.684  0.7682  2.2379 -1.4994
27415SOL     OW84782   4.089   8.325   8.911  0.1462 -0.1521 -0.0286
27415SOL    HW184783   4.089   8.346   9.005 -0.4771  0.2724 -0.1200
27415SOL    HW284784   4.166   8.370   8.877  0.8381 -0.9697  0.4175
27416SOL     OW84785   5.775   1.615   1.506 -0.2290 -0.0940 -0.3794
27416SOL    HW184786   5.784   1.573   1.421  0.2699 -0.8245  0.0252
27416SOL    HW284787   5.685   1.646   1.509 -0.4969 -0.8325 -0.8180
27417SOL     OW84788   5.964   5.122   2.589 -0.1835 -0.2744 -0.2647
27417SOL    HW184789   5.893   5.173   2.628 -0.1136 -0.1623 -0.2842
27417SOL    HW284790   6.044   5.155   2.631 -0.0559  0.2277 -0.8997
27418SOL     OW84791   3.579   2.944   4.416 -0.3638 -0.3189 -0.3339
27418SOL    HW184792   3.545   3.026   4.451  2.8545  1.9150 -2.1557
27418SOL    HW284793   3.623   2.902   4.490  0.6490  1.1064 -0.1257
27419SOL     OW84794   5.255   8.365   4.395 -0.3473 -0.6262 -0.4462
27419SOL    HW184795   5.309   8.315   4.333  1.1539  0.9543 -0.4717
27419SOL    HW284796   5.310   8.373   4.473 -0.2481  1.5468 -0.6971
27420SOL     OW84797   6.075   1.139   3.850 -0.7103 -0.3669  0.0792
27420SOL    HW184798   6.130   1.214   3.829 -2.4039  0.7157 -0.6197
27420SOL    HW284799   6.133   1.063   3.843  1.1491  0.9206  1.3837
27421SOL     OW84800   8.446   6.353   3.059  0.4939  0.1943  0.1352
27421SOL    HW184801   8.488   6.412   2.996  0.7991 -0.3933 -0.2145
27421SOL    HW284802   8.354   6.353   3.032  0.9328 -1.4712 -1.4547
27422SOL     OW84803   8.426   6.667   5.362  0.3445  0.0360  0.0506
27422SOL    HW184804   8.445   6.578   5.332  0.0854 -0.8861  2.4979
27422SOL    HW284805   8.506   6.695   5.407  0.4372  1.0693 -0.7222
27423SOL     OW84806   5.687   6.619   9.584  0.2546 -0.7785 -0.7874
27423SOL    HW184807   5.698   6.525   9.573  1.0950 -1.1578  2.7193
27423SOL    HW284808   5.599   6.629   9.620 -0.5976 -0.0084 -2.9856
27424SOL     OW84809   6.200   0.962   9.399 -0.3397 -0.3577  0.4796
27424SOL    HW184810   6.216   1.045   9.442 -3.1342 -0.8469  2.6649
27424SOL    HW284811   6.267   0.903   9.434  1.1249  0.7260 -0.4490
27425SOL     OW84812   2.995   1.747   0.831  0.3290 -0.0401 -0.5159
27425SOL    HW184813   2.932   1.819   0.834  0.0279 -0.3226 -0.0556
27425SOL    HW284814   2.966   1.693   0.758  0.1339 -0.0823 -0.4074
27426SOL     OW84815   1.812   1.772   8.404 -0.4637  0.2607 -0.1533
27426SOL    HW184816   1.873   1.776   8.330 -0.1442  1.0082  0.1433
27426SOL    HW284817   1.727   1.794   8.366 -0.0698  2.0114 -0.0567
27427SOL     OW84818   7.880   8.730   5.296  0.0534  0.1579  0.4897
27427SOL    HW184819   7.822   8.654   5.300 -0.8077  0.8190  0.7068
27427SOL    HW284820   7.821   8.806   5.294  0.8983  0.8209  0.2194
27428SOL     OW84821   3.395   3.691   3.373  0.1486  0.2539 -0.1412
27428SOL    HW184822   3.404   3.772   3.323  0.2516 -1.2876 -2.6944
27428SOL    HW284823   3.481   3.680   3.415  0.0871  1.5231  0.3367
27429SOL     OW84824   9.148   8.841   2.499  0.4346  0.2446 -0.4861
27429SOL    HW184825   9.231   8.877   2.467 -0.2556  0.2431 -2.3061
27429SOL    HW284826   9.081   8.890   2.452 -0.6371  0.7265  1.4807
27430SOL     OW84827   9.957   1.264   7.513  0.2140 -0.0092 -0.2321
27430SOL    HW184828   9.946   1.169   7.509  0.5818 -0.0207 -1.0697
27430SOL    HW284829   9.872   1.299   7.483 -0.1153 -0.0702  0.6304
27431SOL     OW84830   4.576   0.917   5.441  0.0827 -0.5024 -0.2032
27431SOL    HW184831   4.640   0.924   5.512 -2.1511  0.0136  1.8449
27431SOL    HW284832   4.607   0.844   5.388  2.1645 -0.4896  0.9284
27432SOL     OW84833   8.254   0.396   4.452  0.1937 -0.3810 -0.0859
27432SOL    HW184834   8.309   0.452   4.398 -0.8419 -1.6532 -2.5654
27432SOL    HW284835   8.272   0.423   4.542  1.0095  2.7133 -1.1128
27433SOL     OW84836   4.650   8.013   3.196  0.5177 -0.1549 -0.2201
27433SOL    HW184837   4.598   7.935   3.175 -0.0253  0.2346 -0.3335
27433SOL    HW284838   4.666   8.006   3.290  2.3434 -1.5341 -0.5986
27434SOL     OW84839   8.206   5.502   0.389 -0.5044 -0.1711 -0.0863
27434SOL    HW184840   8.185   5.417   0.427  0.2083  0.3077  1.4058
27434SOL    HW284841   8.226   5.558   0.464  2.1656  0.4458 -1.1889
27435SOL     OW84842   6.124   0.451   8.944 -0.7220  0.9260  0.7180
27435SOL    HW184843   6.123   0.364   8.985  1.4721  0.9405  0.8394
27435SOL    HW284844   6.090   0.436   8.856  0.5982 -0.2481  0.3858
27436SOL     OW84845   4.490   0.519   8.176  0.0291 -0.2083 -0.0949
27436SOL    HW184846   4.395   0.527   8.183  0.0114 -0.0211 -0.5349
27436SOL    HW284847   4.507   0.511   8.082  0.5523  1.1515 -0.1285
27437SOL     OW84848   4.321   7.439   5.745 -0.3588  0.4870 -0.0492
27437SOL    HW184849   4.354   7.355   5.776  2.6383  2.0571  1.2461
27437SOL    HW284850   4.382   7.465   5.676 -2.2302  0.8505 -1.6069
27438SOL     OW84851   8.425   5.276   9.595  0.0084 -0.3786  0.3350
27438SOL    HW184852   8.353   5.259   9.655 -0.5315 -0.1986 -0.2569
27438SOL    HW284853   8.485   5.203   9.608 -0.8931 -1.2040 -0.0804
27439SOL     OW84854   3.424   1.020   8.878  0.1316 -0.1219 -0.4494
27439SOL    HW184855   3.393   0.978   8.798 -1.7739  0.0296  0.1683
27439SOL    HW284856   3.384   1.107   8.877  0.8980  0.2464  0.1778
27440SOL     OW84857   6.405   7.095   1.250 -0.1609  0.5166  0.3996
27440SOL    HW184858   6.340   7.057   1.191 -0.6357  0.6481  0.8396
27440SOL    HW284859   6.380   7.187   1.258 -1.5957 -0.0284  2.7806
27441SOL     OW84860   6.326   8.812   8.897  0.5728 -0.5378  0.1373
27441SOL    HW184861   6.389   8.876   8.863 -0.0614  1.6204  2.8507
27441SOL    HW284862   6.354   8.797   8.988 -0.7000 -2.3339  0.2509
27442SOL     OW84863   6.124   7.169   0.638  0.0262 -0.1506 -0.0315
27442SOL    HW184864   6.189   7.207   0.697  0.3350 -1.0966  0.2426
27442SOL    HW284865   6.073   7.244   0.608 -0.4754  0.2867  1.8502
27443SOL     OW84866   4.055   0.749   0.943 -0.0603  0.1599 -0.2030
27443SOL    HW184867   4.043   0.663   0.903 -1.8377  0.4686 -0.3951
27443SOL    HW284868   3.975   0.761   0.995  0.7448  1.1594  0.8031
27444SOL     OW84869   5.817   1.321   9.653 -0.0900  0.0000 -0.2292
27444SOL    HW184870   5.805   1.262   9.578 -0.6205  0.8561 -0.8221
27444SOL    HW284871   5.840   1.405   9.614  1.6032 -0.0240  0.6529
27445SOL     OW84872   3.361   6.158   4.215 -0.7849  0.3256  0.1402
27445SOL    HW184873   3.435   6.206   4.179 -0.1254 -0.7415  0.0709
27445SOL    HW284874   3.369   6.171   4.310  1.6060 -2.7829  0.4248
27446SOL     OW84875   5.249   8.604   4.235  0.2921 -0.2454  0.4098
27446SOL    HW184876   5.341   8.624   4.253  0.3033  0.2811 -0.2337
27446SOL    HW284877   5.234   8.520   4.280  1.3150 -0.7651 -0.1892
27447SOL     OW84878   5.006   7.954   8.326 -0.3716  0.4660 -0.9251
27447SOL    HW184879   4.981   7.906   8.405  0.0069  0.8399 -0.5859
27447SOL    HW284880   4.936   7.933   8.264 -0.9695  0.6319 -0.3134
27448SOL     OW84881   3.758   0.584   9.979 -0.2871 -0.3673 -0.0309
27448SOL    HW184882   3.808   0.663  10.001 -0.4051 -0.1615 -0.5080
27448SOL    HW284883   3.700   0.611   9.908  1.6424 -1.6095 -2.1300
27449SOL     OW84884   8.123   5.645   7.322  0.2906  0.5766  0.0640
27449SOL    HW184885   8.206   5.652   7.274 -0.8951  1.4919 -1.9250
27449SOL    HW284886   8.140   5.579   7.389  1.8048 -1.3662 -2.1257
27450SOL     OW84887   4.313   2.786   8.001 -0.9615 -0.2666  0.1730
27450SOL    HW184888   4.307   2.746   8.088  0.6124 -0.3286  0.2692
27450SOL    HW284889   4.406   2.803   7.989 -1.3420  1.1732 -0.8748
27451SOL     OW84890   4.696   0.165   7.490  0.7125 -0.0103 -0.1549
27451SOL    HW184891   4.608   0.192   7.515  1.0776  2.1224 -0.9964
27451SOL    HW284892   4.692   0.070   7.483 -1.5007  0.0618 -0.1045
27452SOL     OW84893   0.285   0.380   2.413  0.2117  0.1790  0.6815
27452SOL    HW184894   0.264   0.356   2.503  1.3429  0.1272  0.9384
27452SOL    HW284895   0.297   0.475   2.415  0.0385  0.2034  0.5475
27453SOL     OW84896   5.849   3.057   2.886 -0.1871  0.2208  0.7660
27453SOL    HW184897   5.916   3.112   2.846  0.0267 -1.0361 -0.6677
27453SOL    HW284898   5.873   3.051   2.978 -0.0686  2.2923  0.8787
27454SOL     OW84899   4.169   4.090   6.634 -0.1265 -0.5523  0.3016
27454SOL    HW184900   4.211   4.120   6.553 -0.5311 -1.9834 -0.4632
27454SOL    HW284901   4.224   4.017   6.663 -0.0468 -0.1111  1.2635
27455SOL     OW84902   0.063   9.479   7.302  0.3853 -0.9795 -0.2462
27455SOL    HW184903   0.094   9.485   7.392 -1.4986  3.0100  0.2435
27455SOL    HW284904  -0.025   9.442   7.310 -0.4576  0.9720 -0.2300
27456SOL     OW84905   3.889   9.834   8.897  0.3757 -0.3252  0.3913
27456SOL    HW184906   3.922   9.921   8.875  1.9831 -0.7817  0.9441
27456SOL    HW284907   3.834   9.810   8.823  0.9715  0.6241 -0.3717
27457SOL     OW84908   8.005   1.629   4.925  1.0603  0.7125 -0.1335
27457SOL    HW184909   8.053   1.709   4.943  0.7078  0.5376  1.6400
27457SOL    HW284910   7.913   1.655   4.924  1.0059  0.5243 -0.6928
27458SOL     OW84911   1.518   6.893   6.974  0.7424  0.2711  0.0890
27458SOL    HW184912   1.423   6.884   6.966  0.6107  0.2904  1.3901
27458SOL    HW284913   1.553   6.864   6.890 -0.3193 -1.4667  0.2327
27459SOL     OW84914   8.175   4.518   7.354  0.5035  0.0720 -0.3201
27459SOL    HW184915   8.238   4.581   7.389 -1.1504  1.0363  0.9895
27459SOL    HW284916   8.196   4.512   7.261  0.9235  2.3010 -0.3956
27460SOL     OW84917   3.908   9.772   5.114  0.2081 -0.0016 -0.3445
27460SOL    HW184918   3.993   9.795   5.150  0.1546  0.1514 -0.3136
27460SOL    HW284919   3.855   9.851   5.124 -0.1916 -0.3621  0.4125
27461SOL     OW84920   9.496   3.789   2.584  0.3238 -0.5969  0.2653
27461SOL    HW184921   9.457   3.709   2.621 -1.0512 -0.2823 -0.4483
27461SOL    HW284922   9.422   3.834   2.543  1.0771  1.1008  0.7474
27462SOL     OW84923   6.308   5.663   6.437 -0.1302  0.1325  0.7895
27462SOL    HW184924   6.343   5.583   6.477 -0.8471  0.0509  1.2571
27462SOL    HW284925   6.364   5.679   6.361 -0.9464 -1.6922 -0.2163
27463SOL     OW84926   9.287   0.426   6.866 -0.2995  0.1719 -0.4011
27463SOL    HW184927   9.219   0.400   6.928 -0.8941  0.6052 -0.8575
27463SOL    HW284928   9.239   0.474   6.798  0.6469  1.6979 -0.0122
27464SOL     OW84929   6.113  10.034   7.699  0.5582 -0.2407 -0.5818
27464SOL    HW184930   6.185  10.078   7.744  1.0533 -0.8954 -0.7340
27464SOL    HW284931   6.065  10.105   7.656 -0.9866  0.6320  2.4401
27465SOL     OW84932   9.061   7.856   4.788 -0.4252  0.6139 -0.1068
27465SOL    HW184933   9.083   7.915   4.860 -1.4013  0.4634  0.3280
27465SOL    HW284934   8.966   7.861   4.782 -0.3926  0.1776 -1.0093
27466SOL     OW84935   4.196   9.724   4.025 -0.8283  0.0388  0.6708
27466SOL    HW184936   4.122   9.663   4.022 -0.8510  0.1407 -1.3514
27466SOL    HW284937   4.246   9.696   4.102  0.3011 -3.9035 -1.3275
27467SOL     OW84938   7.755   6.150   3.417 -0.5830 -0.2934  0.1322
27467SOL    HW184939   7.723   6.220   3.473 -0.7993  0.3205 -0.7485
27467SOL    HW284940   7.712   6.071   3.451 -0.9289  0.1145  0.6482
27468SOL     OW84941   5.712   4.301   6.021 -0.3044 -0.7596 -0.2634
27468SOL    HW184942   5.617   4.316   6.023 -0.1229  0.4203  0.2523
27468SOL    HW284943   5.739   4.315   6.112  0.9158  2.7755 -1.0927
27469SOL     OW84944   5.598   9.539   3.482 -0.1146  0.0079 -0.6142
27469SOL    HW184945   5.527   9.594   3.517  0.1091  0.8385 -1.4272
27469SOL    HW284946   5.678   9.580   3.514  0.0327 -0.2065 -0.7093
27470SOL     OW84947   7.930   1.080   3.987 -0.1185  0.0326 -0.2872
27470SOL    HW184948   7.900   1.004   3.937 -1.4053  1.4661 -1.7682
27470SOL    HW284949   7.997   1.121   3.933  1.8132 -0.9837  1.2833
27471SOL     OW84950   7.708   6.610   8.388 -0.4757  0.2275 -0.5547
27471SOL    HW184951   7.625   6.646   8.419 -0.2602  1.1052 -0.9710
27471SOL    HW284952   7.761   6.687   8.367 -0.0182 -0.3326 -1.4931
27472SOL     OW84953   9.600   0.907   9.967  0.2126 -0.3933  0.3514
27472SOL    HW184954   9.667   0.950   9.914  1.2874 -0.3088  1.7673
27472SOL    HW284955   9.552   0.852   9.905  0.5007  0.8314 -0.9884
27473SOL     OW84956   6.403   0.885   2.033  0.8034 -0.1704 -0.4284
27473SOL    HW184957   6.447   0.908   2.115 -1.2583 -0.9874  0.9609
27473SOL    HW284958   6.428   0.954   1.972  1.4956  1.0535  1.2058
27474SOL     OW84959   1.258   9.339   8.547  0.3475 -0.3490 -0.1640
27474SOL    HW184960   1.225   9.336   8.636  0.8890 -0.5634  0.0257
27474SOL    HW284961   1.199   9.401   8.502  0.3531  0.1052  0.4510
27475SOL     OW84962   8.993   4.567   1.209  0.5065  0.3039 -0.0102
27475SOL    HW184963   8.927   4.588   1.143  1.7318  0.5593 -1.1947
27475SOL    HW284964   9.012   4.474   1.195 -1.0777 -0.2970  1.6973
27476SOL     OW84965   6.070  10.189   0.394 -0.3548 -0.4432  0.4007
27476SOL    HW184966   6.076  10.128   0.468 -0.9961 -1.5303 -0.4255
27476SOL    HW284967   6.140  10.161   0.335 -1.8212 -1.5878 -0.8415
27477SOL     OW84968   9.750   7.971   7.331  0.0974 -0.4744 -0.0485
27477SOL    HW184969   9.704   7.999   7.251 -0.6516 -0.7397  0.2871
27477SOL    HW284970   9.815   7.908   7.300  0.3461  0.0295 -0.5489
27478SOL     OW84971   3.965   7.126   4.344 -0.7628 -0.1881 -0.6527
27478SOL    HW184972   3.988   7.063   4.413  0.4801  0.9003 -0.0564
27478SOL    HW284973   3.880   7.161   4.371  0.3613  1.2812  1.1204
27479SOL     OW84974   7.796   2.839   1.378  0.2408  0.6294 -0.2082
27479SOL    HW184975   7.715   2.891   1.384 -0.0031  0.1579  0.7204
27479SOL    HW284976   7.832   2.860   1.292 -1.0726  0.5598 -0.7828
27480SOL     OW84977   6.386   7.867   3.779 -0.1630 -0.0315 -0.0489
27480SOL    HW184978   6.474   7.841   3.753  0.1503  0.9924 -0.0664
27480SOL    HW284979   6.334   7.786   3.778  0.7272 -0.5970 -0.2388
27481SOL     OW84980   0.168   5.575   7.058  0.1620 -0.5833 -0.1359
27481SOL    HW184981   0.075   5.558   7.044 -0.2877  2.3126 -1.0103
27481SOL    HW284982   0.203   5.591   6.971  0.3060  3.6035  0.5980
27482SOL     OW84983   6.564   1.727   0.218 -0.1141  0.9709  0.0035
27482SOL    HW184984   6.639   1.680   0.183 -0.7259  0.6797 -0.9516
27482SOL    HW284985   6.586   1.744   0.309  0.9886  0.6498 -0.2018
27483SOL     OW84986   5.663   7.709   1.444 -0.5946  0.0217  0.5168
27483SOL    HW184987   5.718   7.676   1.373 -1.6697  1.9046 -1.2252
27483SOL    HW284988   5.657   7.803   1.428 -2.3657  0.1909  2.0560
27484SOL     OW84989   5.527   1.236   8.578  0.1225 -0.0703  0.0586
27484SOL    HW184990   5.498   1.309   8.632  1.5729  0.0169  0.7400
27484SOL    HW284991   5.606   1.268   8.535  0.1672 -0.8679 -0.4703
27485SOL     OW84992   2.830   7.473   4.376  0.6811  0.2197 -0.2178
27485SOL    HW184993   2.871   7.509   4.455  3.4109 -0.6146 -1.1842
27485SOL    HW284994   2.794   7.549   4.331  2.7304  1.2652 -0.1672
27486SOL     OW84995   5.202   6.090   4.175  0.1914  0.1567  0.4410
27486SOL    HW184996   5.217   6.128   4.088  0.3953  0.3578  0.5637
27486SOL    HW284997   5.126   6.033   4.163  0.7262 -0.4532 -0.0616
27487SOL     OW84998   6.587   7.064   1.061 -0.0548 -0.3920  0.2799
27487SOL    HW184999   6.536   7.066   1.142  0.9311  0.1926  0.9067
27487SOL    HW285000   6.639   6.984   1.068 -1.1496 -1.1852 -0.5327
27488SOL     OW85001   5.153   4.334   1.763 -0.1608  0.1338  0.4183
27488SOL    HW185002   5.234   4.384   1.753  0.6511 -1.0433  0.9985
27488SOL    HW285003   5.120   4.323   1.674  1.9332 -2.0080 -0.1569
27489SOL     OW85004   7.796   3.143   2.804  0.7666  0.4771  0.7897
27489SOL    HW185005   7.837   3.192   2.876 -0.5067  0.1112  1.7748
27489SOL    HW285006   7.702   3.155   2.816  0.5360  0.7318 -1.0626
27490SOL     OW85007   9.769   5.733   8.126  0.1835  0.4737 -0.2148
27490SOL    HW185008   9.796   5.645   8.152  1.4858  0.3835 -1.8079
27490SOL    HW285009   9.677   5.739   8.153 -0.1175 -1.6279 -0.7435
27491SOL     OW85010   5.513   0.842   9.877 -0.0490 -0.5201  0.2539
27491SOL    HW185011   5.492   0.934   9.863  1.0307 -0.5574 -1.8019
27491SOL    HW285012   5.591   0.827   9.823 -0.8688 -2.9114 -0.3055
27492SOL     OW85013   9.929   5.140   7.245  0.3656 -0.1631  0.3008
27492SOL    HW185014  10.001   5.200   7.263 -0.2135  0.5408  0.3172
27492SOL    HW285015   9.851   5.185   7.280 -0.0161 -1.1143  0.6998
27493SOL     OW85016   9.105   9.083   7.498 -0.4372  0.6157  0.2980
27493SOL    HW185017   9.016   9.060   7.525  0.0227  1.6593  2.8299
27493SOL    HW285018   9.159   9.011   7.533 -0.1444  0.5986 -0.1928
27494SOL     OW85019   4.196   1.663   5.432 -0.4281 -0.0133 -0.1018
27494SOL    HW185020   4.172   1.749   5.467 -0.2884 -0.5750  1.4306
27494SOL    HW285021   4.114   1.614   5.431 -0.8269  0.6706 -2.5959
27495SOL     OW85022   5.350   8.226   5.460 -0.2181  0.0888  0.1861
27495SOL    HW185023   5.445   8.223   5.450  0.0518  0.9601  2.3543
27495SOL    HW285024   5.334   8.196   5.549 -2.2345 -3.1223 -1.1491
27496SOL     OW85025   4.458   7.698   4.695  0.3874  0.1110  0.4712
27496SOL    HW185026   4.402   7.764   4.736 -0.3000 -0.1588 -0.0397
27496SOL    HW285027   4.494   7.649   4.769  1.2506  1.3217  0.8850
27497SOL     OW85028   5.702   7.923   4.415  0.6619 -0.5042 -0.6768
27497SOL    HW185029   5.726   7.843   4.369 -0.4734 -0.9745 -0.4678
27497SOL    HW285030   5.703   7.899   4.508 -1.6688 -0.8647 -0.7022
27498SOL     OW85031   3.591   7.638   0.736 -0.4856  0.2466 -0.3142
27498SOL    HW185032   3.562   7.603   0.652  0.8448  0.8293 -1.0358
27498SOL    HW285033   3.524   7.611   0.799 -1.1351 -0.7705 -1.4449
27499SOL     OW85034   4.597   2.476   0.269 -0.3236  0.3852  0.2098
27499SOL    HW185035   4.650   2.556   0.263  0.0766  0.0177 -1.4077
27499SOL    HW285036   4.638   2.426   0.340  1.6056  0.0514 -1.1010
27500SOL     OW85037   6.674   4.438   9.639 -0.1058 -0.9055 -0.5901
27500SOL    HW185038   6.706   4.507   9.582  2.0338 -1.2633  0.1262
27500SOL    HW285039   6.595   4.475   9.680 -0.6033  0.0204 -2.3571
27501SOL     OW85040   0.298   5.633   7.576 -0.4778  0.0438 -0.0146
27501SOL    HW185041   0.256   5.591   7.651 -1.0842 -0.7629 -0.7838
27501SOL    HW285042   0.382   5.587   7.566 -0.5770 -0.1277 -0.0700
27502SOL     OW85043   9.274   0.602   2.122  0.5429 -0.2617  0.5076
27502SOL    HW185044   9.251   0.665   2.053  0.5966 -0.4603  0.3081
27502SOL    HW285045   9.189   0.571   2.155  0.5130  0.2067  0.8756
27503SOL     OW85046   0.017   6.445   4.436 -0.1200  0.9686  0.4152
27503SOL    HW185047   0.028   6.452   4.531  0.3510 -2.3813  0.6870
27503SOL    HW285048  -0.074   6.417   4.424  0.3273 -0.4070  0.0449
27504SOL     OW85049   1.978   7.546   5.784 -0.4509  0.0536  0.1274
27504SOL    HW185050   2.012   7.576   5.699 -0.3696  1.8572  0.7701
27504SOL    HW285051   1.964   7.452   5.772  0.1433  0.1652 -1.6911
27505SOL     OW85052   2.037   0.600   8.860 -0.6252 -0.2069  0.4171
27505SOL    HW185053   2.129   0.573   8.863  0.0834  1.8283 -1.4276
27505SOL    HW285054   2.018   0.609   8.766 -2.0430  1.4848  0.8463
27506SOL     OW85055   8.220   9.762   7.533 -0.4527 -0.1066 -0.1139
27506SOL    HW185056   8.205   9.673   7.501  0.9270 -0.3150 -0.2358
27506SOL    HW285057   8.304   9.787   7.494  0.7628  0.0297  2.4396
27507SOL     OW85058   8.549   6.266   3.441 -0.4629 -0.3416 -0.4809
27507SOL    HW185059   8.465   6.260   3.395 -0.5244  2.3710 -0.8087
27507SOL    HW285060   8.614   6.236   3.377 -0.9857 -0.6206 -0.8789
27508SOL     OW85061   1.854   2.574   5.587 -0.3529  0.3170 -0.0161
27508SOL    HW185062   1.858   2.612   5.675 -0.0809 -0.5194  0.3400
27508SOL    HW285063   1.867   2.648   5.528  0.5691  0.7081  0.6760
27509SOL     OW85064   6.322   4.852   5.504 -0.2640  0.6023 -0.2741
27509SOL    HW185065   6.308   4.946   5.492  0.5464  0.8622  0.7850
27509SOL    HW285066   6.412   4.844   5.535 -0.4077 -0.5124 -0.1164
27510SOL     OW85067   4.277   2.976   2.663 -0.5926 -0.1658 -0.0696
27510SOL    HW185068   4.195   2.981   2.712 -0.3328 -0.0579  0.3606
27510SOL    HW285069   4.263   3.031   2.586 -0.7696  0.2111  0.2309
27511SOL     OW85070   7.950   4.704   7.317 -0.2648 -0.9804  0.0268
27511SOL    HW185071   7.950   4.762   7.393  1.8557 -0.0749 -0.6154
27511SOL    HW285072   8.002   4.628   7.344  1.3975 -0.1804 -0.8196
27512SOL     OW85073   5.581   5.392   5.253  0.4562 -0.5956  0.0287
27512SOL    HW185074   5.617   5.468   5.299  2.1388 -1.1690 -0.3061
27512SOL    HW285075   5.611   5.317   5.304 -0.9869 -1.0577  0.2081
27513SOL     OW85076   9.236   0.319   3.915 -0.5879  0.2676  0.2225
27513SOL    HW185077   9.314   0.359   3.876 -0.2241  0.3047  0.9752
27513SOL    HW285078   9.219   0.242   3.862 -1.3254  1.4406 -1.2804
27514SOL     OW85079   7.314   8.900   0.069  0.5687 -0.1971 -0.0823
27514SOL    HW185080   7.349   8.923  -0.017  0.9911 -0.1249  0.1076
27514SOL    HW285081   7.311   8.804   0.069  0.0771 -0.1778 -0.3740
27515SOL     OW85082   1.407   1.169   6.010 -0.1814 -0.2253 -0.0966
27515SOL    HW185083   1.353   1.096   5.978 -0.7213 -0.5329  1.4660
27515SOL    HW285084   1.349   1.245   6.007 -0.0777 -0.1577 -0.3416
27516SOL     OW85085   6.642   2.536   9.126 -0.7268 -0.5920 -0.1318
27516SOL    HW185086   6.660   2.577   9.210  0.0000 -1.7362  0.2691
27516SOL    HW285087   6.728   2.527   9.084 -0.8373 -2.1096 -0.0319
27517SOL     OW85088   6.156   9.468   0.340 -0.3817 -0.1881 -0.9412
27517SOL    HW185089   6.169   9.527   0.266 -0.7542 -2.1656 -2.6260
27517SOL    HW285090   6.062   9.449   0.339 -0.5579  0.4756  0.6276
27518SOL     OW85091   3.116   8.617   3.570 -0.1749 -1.0178 -0.5331
27518SOL    HW185092   3.182   8.616   3.639  0.1876 -2.0512 -0.8911
27518SOL    HW285093   3.055   8.687   3.596  0.8627 -0.2859 -0.0294
27519SOL     OW85094   0.636   9.750   5.259  0.4168 -0.0032 -0.3079
27519SOL    HW185095   0.614   9.726   5.349 -0.4522  0.6360 -0.3328
27519SOL    HW285096   0.587   9.688   5.205  0.5092 -0.0460 -0.3429
27520SOL     OW85097   9.748   1.599   4.725  0.1968  0.2791 -0.0764
27520SOL    HW185098   9.733   1.632   4.636  0.8324 -0.4650 -0.4576
27520SOL    HW285099   9.672   1.630   4.774 -0.7824 -0.3568 -1.1615
27521SOL     OW85100   9.101   2.278   0.256 -0.3969  0.6899  0.4322
27521SOL    HW185101   9.026   2.238   0.212  0.3483 -0.1936 -0.0647
27521SOL    HW285102   9.110   2.364   0.216 -0.9856  0.7001  0.3178
27522SOL     OW85103   3.657   0.684   9.135  0.4815 -0.0672 -0.1609
27522SOL    HW185104   3.569   0.715   9.153  0.7323  0.9944 -0.7595
27522SOL    HW285105   3.652   0.644   9.048 -0.0258 -2.4870  0.9223
27523SOL     OW85106   5.661   0.002   8.897 -0.1028 -0.2627  0.6257
27523SOL    HW185107   5.576  -0.036   8.873 -0.4963  1.2007 -0.2945
27523SOL    HW285108   5.677  -0.032   8.986 -0.6852 -2.1675  0.0346
27524SOL     OW85109   9.406   5.783   3.035  0.3265  0.5906  0.2855
27524SOL    HW185110   9.344   5.746   2.971  0.2278 -0.4157  0.9601
27524SOL    HW285111   9.351   5.831   3.097  0.2445 -0.0340  0.7007
27525SOL     OW85112   6.875   2.378   8.419 -0.2462 -0.1359 -0.3654
27525SOL    HW185113   6.890   2.291   8.381 -1.9160  0.0721 -1.5705
27525SOL    HW285114   6.785   2.375   8.451 -0.6442  1.4417 -1.2661
27526SOL     OW85115   8.836   6.002   9.411 -0.1068  0.8471 -0.5810
27526SOL    HW185116   8.815   6.092   9.435 -0.5256  0.3132  1.1063
27526SOL    HW285117   8.751   5.960   9.398 -0.1400 -0.5603  3.4411
27527SOL     OW85118   2.490   8.335   9.826 -0.3530  0.0578 -0.2179
27527SOL    HW185119   2.502   8.381   9.743 -0.3142 -1.3656 -1.0187
27527SOL    HW285120   2.478   8.404   9.891 -1.4390  1.1688 -1.5804
27528SOL     OW85121   7.834   8.415   8.672  0.5827 -0.1300 -0.5505
27528SOL    HW185122   7.777   8.491   8.659  1.2944  0.3947 -0.6166
27528SOL    HW285123   7.785   8.359   8.732  0.8396  1.2198  0.9512
27529SOL     OW85124   7.093   7.222   4.303  0.4582  0.2211  0.0914
27529SOL    HW185125   7.011   7.190   4.265  0.0497  0.6170  0.6335
27529SOL    HW285126   7.119   7.294   4.246  1.4190 -1.1117 -1.1712
27530SOL     OW85127   2.170   9.565   9.430  0.3654 -0.0257 -0.1823
27530SOL    HW185128   2.150   9.598   9.342 -0.8862  1.5693  0.6698
27530SOL    HW285129   2.224   9.634   9.469  0.2647 -0.3665  0.5708
27531SOL     OW85130   2.988   3.649   3.961  0.5967  0.5618 -0.4739
27531SOL    HW185131   2.927   3.722   3.957 -0.0600  0.0096 -0.7866
27531SOL    HW285132   3.055   3.676   4.024 -1.6472 -0.0596  2.3120
27532SOL     OW85133   8.328   4.264   3.633  0.1378  0.0081  0.0951
27532SOL    HW185134   8.414   4.274   3.591  0.8226  0.6844  1.6143
27532SOL    HW285135   8.282   4.200   3.578  1.0947  0.6627 -1.5196
27533SOL     OW85136   9.098   9.440   8.071 -0.0296  0.2613 -0.4299
27533SOL    HW185137   9.006   9.425   8.047 -0.2250 -0.3552  0.6721
27533SOL    HW285138   9.125   9.512   8.015 -1.6954  1.6088  0.4440
27534SOL     OW85139   6.650   3.768   9.721  0.6568 -0.2074  0.6856
27534SOL    HW185140   6.666   3.674   9.706  0.3614 -0.2340  0.5221
27534SOL    HW285141   6.578   3.789   9.662  5.0175  1.6846 -4.2832
27535SOL     OW85142   0.218   7.000   1.849  0.7029  0.3449 -0.1667
27535SOL    HW185143   0.267   7.051   1.913 -3.0883  0.9533  2.4058
27535SOL    HW285144   0.159   7.062   1.807 -0.6874 -1.0440 -0.3380
27536SOL     OW85145   9.892   0.842   4.719 -0.2588  0.1501 -0.0924
27536SOL    HW185146   9.950   0.914   4.745 -1.0030  0.3787  0.9640
27536SOL    HW285147   9.863   0.804   4.801 -1.0651 -0.4146 -0.6323
27537SOL     OW85148   8.263   1.054   0.674 -0.4447 -0.5610 -0.0862
27537SOL    HW185149   8.222   1.138   0.657  0.3545 -0.2398 -0.4707
27537SOL    HW285150   8.236   1.030   0.762  0.2010  0.6165  0.4356
27538SOL     OW85151   2.425   1.791   6.513 -0.2556 -0.4719 -0.5139
27538SOL    HW185152   2.358   1.726   6.531  0.1206 -0.6528  0.2856
27538SOL    HW285153   2.472   1.801   6.596 -0.9284  1.5407 -0.3415
27539SOL     OW85154   4.033   6.537   1.680  0.1767 -0.1362 -0.8132
27539SOL    HW185155   3.939   6.521   1.676  0.2954 -0.8522 -0.7383
27539SOL    HW285156   4.073   6.450   1.672  0.8543  0.2493 -1.7303
27540SOL     OW85157   4.783   9.888   8.006 -0.2884  0.3231  0.1817
27540SOL    HW185158   4.751   9.977   8.018 -0.8172  0.3803 -1.5267
27540SOL    HW285159   4.860   9.897   7.950 -0.5334 -0.3328 -0.2630
27541SOL     OW85160   6.805   1.222   7.102  0.3468  0.4799  0.1423
27541SOL    HW185161   6.857   1.282   7.156  0.5522 -0.6968  1.2850
27541SOL    HW285162   6.725   1.270   7.082 -0.4307  0.3861  2.8495
27542SOL     OW85163   2.115   4.441   8.961 -0.1340 -0.2194  0.1609
27542SOL    HW185164   2.119   4.382   8.885  0.1270 -1.8006  1.3783
27542SOL    HW285165   2.030   4.422   9.001 -1.3084  2.2822 -1.0206
27543SOL     OW85166   9.488  10.155   4.376 -0.2710  0.0469  0.0450
27543SOL    HW185167   9.420  10.100   4.415 -0.9223  1.2457  0.6429
27543SOL    HW285168   9.451  10.182   4.292 -0.3127  0.2460  0.1256
27544SOL     OW85169   0.868   5.269   1.825 -0.1587 -0.2202 -0.2143
27544SOL    HW185170   0.850   5.357   1.859  0.3522  0.1322 -0.8540
27544SOL    HW285171   0.959   5.252   1.849 -0.1155 -0.3885 -0.4943
27545SOL     OW85172   6.979   3.808   7.249 -0.0160  0.3341 -0.0831
27545SOL    HW185173   7.019   3.738   7.300 -2.2188  1.0674  2.7937
27545SOL    HW285174   7.036   3.884   7.263  0.2791  0.1148 -0.0890
27546SOL     OW85175   0.038   8.273   5.540 -0.0251  0.2388  0.0936
27546SOL    HW185176  -0.014   8.311   5.470  1.9283  0.6018 -1.2062
27546SOL    HW285177   0.060   8.347   5.597  0.7168  0.4303 -0.4384
27547SOL     OW85178   9.003   6.208   2.768  0.2153 -0.3625  0.3030
27547SOL    HW185179   8.911   6.190   2.744  0.6130 -0.9783 -0.8092
27547SOL    HW285180   9.018   6.154   2.845  0.3366 -2.1552 -0.9312
27548SOL     OW85181   4.492   8.548   7.136  0.5891  0.0146 -0.2122
27548SOL    HW185182   4.433   8.580   7.204  0.5045  2.8780 -1.5480
27548SOL    HW285183   4.434   8.502   7.075  0.7182 -2.8839  1.7503
27549SOL     OW85184   6.617   4.710   7.151  0.2482 -0.2710  0.4009
27549SOL    HW185185   6.588   4.801   7.152  0.3898 -0.2170 -0.2949
27549SOL    HW285186   6.607   4.681   7.242  2.9304  1.3237  1.2964
27550SOL     OW85187   8.945   0.275   3.257 -0.2146 -0.1721  0.2691
27550SOL    HW185188   8.959   0.294   3.164  1.7918 -1.0596  0.3578
27550SOL    HW285189   8.945   0.362   3.299  0.3482  0.1489 -0.3771
27551SOL     OW85190   1.849   1.657   5.464  0.1909 -0.0782  0.0891
27551SOL    HW185191   1.933   1.697   5.486  0.1731 -0.4672  0.8573
27551SOL    HW285192   1.837   1.588   5.529  0.0206 -1.0681 -0.9613
27552SOL     OW85193   1.233   7.370   4.861 -0.0055  0.9996 -0.0008
27552SOL    HW185194   1.313   7.329   4.828 -0.7386  0.2554 -0.8478
27552SOL    HW285195   1.263   7.456   4.893  1.1381  0.7217 -0.2780
27553SOL     OW85196   1.867   7.144   7.497  0.8893 -0.1840 -0.0317
27553SOL    HW185197   1.902   7.075   7.440 -1.2897 -0.2576 -1.3331
27553SOL    HW285198   1.816   7.097   7.563  0.8971  0.0810  0.1630
27554SOL     OW85199   5.187   7.277   7.921  0.4235  0.1506 -0.1540
27554SOL    HW185200   5.184   7.330   8.001  0.1711  0.7868 -0.5787
27554SOL    HW285201   5.222   7.193   7.949 -1.2355 -0.2040  0.9557
27555SOL     OW85202   8.631   4.709   9.310 -0.5888 -0.3597  0.0737
27555SOL    HW185203   8.690   4.711   9.235 -0.9417  0.4714 -0.1895
27555SOL    HW285204   8.563   4.774   9.289 -1.1187 -0.6872  0.7541
27556SOL     OW85205   1.481   2.591   1.874 -0.4036 -0.1488 -0.3142
27556SOL    HW185206   1.557   2.639   1.907  0.7573 -1.1314 -1.5350
27556SOL    HW285207   1.408   2.652   1.885  0.5650  0.8573  0.7338
27557SOL     OW85208   6.393   9.822   5.610 -0.1013  0.5402  0.1786
27557SOL    HW185209   6.377   9.766   5.534  0.9281  0.7413 -0.1842
27557SOL    HW285210   6.454   9.772   5.664 -2.5148 -0.5967  1.9859
27558SOL     OW85211   6.261   5.605   9.774 -0.0539  0.4804 -0.1718
27558SOL    HW185212   6.325   5.668   9.807  0.1857 -0.1756  0.6249
27558SOL    HW285213   6.199   5.593   9.846 -0.1009 -0.1946 -0.3210
27559SOL     OW85214   4.988   8.420   6.968 -0.0590 -0.0451 -0.3818
27559SOL    HW185215   4.987   8.324   6.972 -0.1014 -0.0480 -0.4692
27559SOL    HW285216   4.934   8.448   7.041 -0.4451 -0.0938 -0.6465
27560SOL     OW85217   0.331   0.514   4.973 -0.0323  0.3265  0.2779
27560SOL    HW185218   0.267   0.533   4.905 -2.4427 -0.8338  2.1247
27560SOL    HW285219   0.351   0.421   4.962  0.4264  0.4035  0.4502
27561SOL     OW85220  10.030   0.167   1.417  0.3107  0.0373  0.0879
27561SOL    HW185221  10.092   0.117   1.363  0.4030  1.0051 -0.6953
27561SOL    HW285222  10.022   0.115   1.498  1.7842 -0.3371  0.0043
27562SOL     OW85223   1.483   1.094   5.436 -0.3513 -0.2183 -0.2131
27562SOL    HW185224   1.428   1.156   5.389 -1.2778 -0.1956  0.8767
27562SOL    HW285225   1.565   1.091   5.386  0.2018  2.8720  0.3804
27563SOL     OW85226   0.164   8.511   2.589  0.3645  0.2086  0.0360
27563SOL    HW185227   0.115   8.538   2.667  1.8247  0.2496  0.9614
27563SOL    HW285228   0.115   8.548   2.516 -0.0331  1.7264  1.0489
27564SOL     OW85229   6.832   6.521   5.529  0.1995  0.3670 -0.2063
27564SOL    HW185230   6.899   6.513   5.597 -0.6700  0.9554  0.7410
27564SOL    HW285231   6.765   6.457   5.554 -0.8623  1.6775  0.3854
27565SOL     OW85232   5.710   6.269   4.471 -0.5489  0.1002  0.5939
27565SOL    HW185233   5.643   6.230   4.528 -0.9389  1.7767  1.3170
27565SOL    HW285234   5.792   6.231   4.501 -0.9747 -0.5922  0.9095
27566SOL     OW85235   8.513   8.362   6.928 -0.8474  0.4106  0.2868
27566SOL    HW185236   8.460   8.340   7.005 -1.5483  1.4936  0.1256
27566SOL    HW285237   8.475   8.444   6.896 -1.4814 -0.7520 -2.0692
27567SOL     OW85238   4.214   7.598   8.027  0.1011 -0.3288  0.2888
27567SOL    HW185239   4.302   7.561   8.016  0.4864  0.9457 -1.0249
27567SOL    HW285240   4.172   7.540   8.091  1.7967 -1.1110  0.7306
27568SOL     OW85241   3.962   1.687   3.361 -0.6165 -0.4414 -0.1428
27568SOL    HW185242   3.942   1.697   3.268  0.8749  0.9007 -0.3405
27568SOL    HW285243   3.949   1.774   3.398  2.1491 -0.1182  0.2182
27569SOL     OW85244   9.219   7.632   6.007  0.0508 -0.2448  0.3114
27569SOL    HW185245   9.260   7.718   6.022  0.3846  0.2257 -2.9815
27569SOL    HW285246   9.290   7.578   5.972 -0.7233 -1.2185  0.2236
27570SOL     OW85247   4.013   0.980   2.672 -0.3882 -0.2527 -0.3708
27570SOL    HW185248   3.978   1.068   2.685 -0.2654 -0.4310  1.3203
27570SOL    HW285249   4.108   0.992   2.671 -0.3679 -0.3714 -0.0211
27571SOL     OW85250   2.773   3.751   1.362  0.5471  0.0693  0.2828
27571SOL    HW185251   2.713   3.681   1.337  3.0127 -1.4010 -1.6957
27571SOL    HW285252   2.859   3.722   1.331  2.3678  1.9934  3.2646
27572SOL     OW85253   1.269   2.834   8.143 -0.0768 -0.4320 -0.1653
27572SOL    HW185254   1.175   2.811   8.140  0.1509 -1.8289  2.0627
27572SOL    HW285255   1.272   2.914   8.195  0.0400 -0.7612  0.3290
27573SOL     OW85256   8.433   8.640   5.459  0.1305  1.2113 -0.2478
27573SOL    HW185257   8.350   8.626   5.504 -0.2710  1.4961 -0.8877
27573SOL    HW285258   8.421   8.721   5.411  0.6916  1.1233 -0.5440
27574SOL     OW85259   9.167   3.039   5.211  0.4703 -0.4821  0.2621
27574SOL    HW185260   9.186   3.032   5.118  2.2413  1.1355  0.4679
27574SOL    HW285261   9.073   3.052   5.217  0.1355 -2.1105 -1.2027
27575SOL     OW85262   5.113   9.536   0.624 -0.1584  0.0649 -0.1962
27575SOL    HW185263   5.206   9.554   0.614  0.0070 -0.1252  1.0091
27575SOL    HW285264   5.108   9.465   0.687 -0.9688 -2.1622 -2.6631
27576SOL     OW85265   1.698   6.762   3.527 -0.1779 -0.0565  0.0391
27576SOL    HW185266   1.649   6.707   3.588 -2.2894  1.7826  0.0707
27576SOL    HW285267   1.654   6.748   3.442  1.8017 -1.4563 -0.7897
27577SOL     OW85268   3.502   1.088   6.808  0.2953  0.2750 -0.0504
27577SOL    HW185269   3.579   1.138   6.834 -0.5082  1.2622  0.4659
27577SOL    HW285270   3.537   1.005   6.775  1.5822  0.8038 -0.0382
27578SOL     OW85271  10.139   2.530   7.000 -0.8729  0.0449  0.0609
27578SOL    HW185272  10.153   2.445   6.959  1.0167  0.9670 -1.2608
27578SOL    HW285273  10.094   2.582   6.933 -0.2682  0.6885  0.1439
27579SOL     OW85274   3.638   5.068  10.012 -0.1501 -0.9079  0.4932
27579SOL    HW185275   3.594   5.058   9.928  0.8086 -2.1965  0.1358
27579SOL    HW285276   3.675   4.982  10.031  1.5853 -0.0552  1.1446
27580SOL     OW85277   5.423   8.928   9.516 -0.5071  0.2576 -0.5869
27580SOL    HW185278   5.498   8.949   9.461  1.5835 -0.8458  1.7048
27580SOL    HW285279   5.370   9.008   9.518  0.1259  0.7527 -2.9805
27581SOL     OW85280   6.393   1.552   2.108  0.3702 -0.0101  0.3839
27581SOL    HW185281   6.400   1.472   2.056  0.4148 -0.6792  1.4039
27581SOL    HW285282   6.478   1.596   2.096 -0.3134  0.8354 -1.6676
27582SOL     OW85283   9.896   8.565   8.582  0.2488 -0.1659 -0.0650
27582SOL    HW185284   9.924   8.588   8.671 -1.8344  0.5128  0.4309
27582SOL    HW285285   9.804   8.544   8.590  0.0261 -0.0619 -2.0820
27583SOL     OW85286   8.160   7.006   9.735  0.8230  0.3201  0.4622
27583SOL    HW185287   8.193   6.922   9.701 -2.0001 -1.6287  2.2894
27583SOL    HW285288   8.065   7.002   9.719  0.2153  1.7748  3.3811
27584SOL     OW85289   6.233   0.109   6.277 -0.6859 -0.0899  0.0477
27584SOL    HW185290   6.172   0.157   6.334 -2.7100 -1.5545 -0.8578
27584SOL    HW285291   6.207   0.018   6.285  1.4331 -0.7544 -0.3360
27585SOL     OW85292   7.425   1.580   8.711 -0.6504  0.2076  0.1315
27585SOL    HW185293   7.416   1.675   8.721 -0.7193 -0.0054  2.3236
27585SOL    HW285294   7.376   1.559   8.632  0.5964  2.1933 -1.2136
27586SOL     OW85295   5.392   7.003   7.420 -0.1654 -0.1806  0.1930
27586SOL    HW185296   5.390   7.012   7.325 -0.0508 -0.2750  0.1817
27586SOL    HW285297   5.315   7.053   7.450  0.3749  0.7175  0.1162
27587SOL     OW85298   2.460   4.590   1.625  0.1937  0.4539 -0.1273
27587SOL    HW185299   2.449   4.556   1.536  2.8005 -0.7050 -0.0642
27587SOL    HW285300   2.518   4.526   1.667 -0.4763  1.3495  2.1936
27588SOL     OW85301   2.375   2.283   9.229 -0.3097  0.1230 -1.0345
27588SOL    HW185302   2.307   2.254   9.290 -0.7879 -0.5744 -1.8884
27588SOL    HW285303   2.341   2.366   9.195 -2.0703 -1.5356 -3.5123
27589SOL     OW85304   3.400   1.039   9.954 -0.1181  0.1026  0.0071
27589SOL    HW185305   3.352   1.057  10.035  0.9953  0.7177  0.5453
27589SOL    HW285306   3.399   1.122   9.907 -1.9466 -0.6192 -1.2602
27590SOL     OW85307   7.483   0.166   8.754  0.2595 -0.3552 -0.7894
27590SOL    HW185308   7.525   0.175   8.840 -0.1040 -0.1093 -0.6352
27590SOL    HW285309   7.500   0.249   8.711  0.0223 -0.2948 -0.7661
27591SOL     OW85310   2.707   7.487   7.201 -0.4895  0.5591  0.3997
27591SOL    HW185311   2.653   7.410   7.183  1.0459 -0.9458  2.0501
27591SOL    HW285312   2.796   7.453   7.210  0.1576  2.4647  1.5898
27592SOL     OW85313   7.888   3.194   8.606 -0.5992 -0.2284 -0.5570
27592SOL    HW185314   7.802   3.234   8.592 -0.8999 -0.7619 -0.2456
27592SOL    HW285315   7.870   3.100   8.606  0.0952 -0.3645 -1.2500
27593SOL     OW85316   2.738   2.192   5.789 -0.7484 -0.0167 -0.1004
27593SOL    HW185317   2.787   2.271   5.766 -0.4203 -0.3948 -0.7390
27593SOL    HW285318   2.741   2.138   5.709 -1.8953 -0.2040 -0.0262
27594SOL     OW85319   7.463   5.435   5.238  0.1732 -0.0226  0.4245
27594SOL    HW185320   7.534   5.376   5.259  0.2767  0.1121  0.4522
27594SOL    HW285321   7.502   5.522   5.242 -0.4752  0.2166  2.5574
27595SOL     OW85322   6.383   0.314   6.586  0.6838  0.1127 -0.2631
27595SOL    HW185323   6.384   0.236   6.642  1.1983  0.4394  0.1864
27595SOL    HW285324   6.326   0.376   6.631  1.3731  0.5028  0.0776
27596SOL     OW85325   5.965   6.230   3.932 -0.5741  0.2231 -0.5831
27596SOL    HW185326   6.053   6.239   3.895 -0.6903  2.2424 -0.3778
27596SOL    HW285327   5.956   6.303   3.992 -1.7308 -0.9990  0.7841
27597SOL     OW85328   3.328   1.306   8.828  0.5289  0.0221 -0.4355
27597SOL    HW185329   3.253   1.366   8.827  1.4524  1.2538  1.5357
27597SOL    HW285330   3.372   1.321   8.745 -0.5680  0.3771 -0.9662
27598SOL     OW85331   2.145   2.204   9.667  0.3913  0.3069  0.1091
27598SOL    HW185332   2.081   2.137   9.641  1.0447 -0.4440  0.4356
27598SOL    HW285333   2.097   2.259   9.729 -0.4001  0.6279 -0.7810
27599SOL     OW85334   7.565   7.230   6.209  0.2402 -0.5982  0.3369
27599SOL    HW185335   7.476   7.225   6.244  0.6483  1.6454  1.7915
27599SOL    HW285336   7.554   7.223   6.114 -1.6858  1.5098  0.3646
27600SOL     OW85337   2.290   4.783   3.127  0.2534 -0.5215 -0.1348
27600SOL    HW185338   2.212   4.829   3.098 -0.5359 -0.3879  2.1012
27600SOL    HW285339   2.300   4.711   3.065 -0.4513  0.6368 -1.6385
27601SOL     OW85340   6.870   7.145   1.181 -0.1331 -0.0845  0.5085
27601SOL    HW185341   6.867   7.070   1.122  2.0187  0.3863 -0.2501
27601SOL    HW285342   6.832   7.217   1.129 -2.1440 -0.6052  1.2167
27602SOL     OW85343   7.055   3.615   8.656 -0.0563 -0.4668 -0.4948
27602SOL    HW185344   7.112   3.538   8.661 -2.6199 -2.4669 -0.8640
27602SOL    HW285345   6.968   3.581   8.678 -1.4515  2.0942 -1.8788
27603SOL     OW85346   2.689   5.020   4.591 -0.0541 -0.0280 -0.3416
27603SOL    HW185347   2.728   5.001   4.676  0.4421 -1.3003 -0.8358
27603SOL    HW285348   2.616   4.958   4.584  0.9150 -1.0678 -1.5264
27604SOL     OW85349   3.333   8.717   7.152  0.7734 -0.1334 -0.1107
27604SOL    HW185350   3.411   8.767   7.127 -0.2806  1.9860  0.7923
27604SOL    HW285351   3.332   8.720   7.248 -0.1852 -0.5226 -0.1057
27605SOL     OW85352   2.177   5.714   6.759 -0.3232  0.3216  0.1294
27605SOL    HW185353   2.204   5.634   6.803 -0.7106  0.6878  1.0426
27605SOL    HW285354   2.157   5.775   6.830 -0.3845  1.1091 -0.5539
27606SOL     OW85355   4.883   8.726   4.088  0.0067 -0.3025  0.1200
27606SOL    HW185356   4.832   8.803   4.063  0.0909  0.3683  1.8869
27606SOL    HW285357   4.971   8.742   4.053 -0.0725  0.2289  0.1652
27607SOL     OW85358   2.705   9.545   3.098 -0.2615  0.6267 -0.1118
27607SOL    HW185359   2.640   9.615   3.085 -0.7577 -0.1450 -1.8778
27607SOL    HW285360   2.724   9.513   3.010  0.3664 -1.1100  0.6363
27608SOL     OW85361   0.814   2.044  10.053  0.1439 -0.4518  0.4133
27608SOL    HW185362   0.867   2.121  10.032  1.2210 -1.7162 -1.7375
27608SOL    HW285363   0.739   2.051   9.993 -0.4089 -0.4115  1.1117
27609SOL     OW85364   2.181   0.004   2.708 -0.1085  0.0116 -0.5998
27609SOL    HW185365   2.103   0.027   2.759 -1.0848  2.0799 -2.9297
27609SOL    HW285366   2.246   0.070   2.733 -0.1977  0.3014 -1.1342
27610SOL     OW85367   2.180   8.662   5.816  0.5280  0.3075  0.2067
27610SOL    HW185368   2.235   8.668   5.738  1.8167  0.6865  1.1099
27610SOL    HW285369   2.206   8.738   5.869  0.5427 -0.5924  1.5237
27611SOL     OW85370   2.771   4.617   5.109  1.0740 -0.6332 -0.1958
27611SOL    HW185371   2.692   4.638   5.059  1.7740 -0.5735 -1.3243
27611SOL    HW285372   2.745   4.549   5.170  0.3544 -1.2091 -1.1426
27612SOL     OW85373  10.004   9.191   4.559 -0.2644 -0.3969  0.5239
27612SOL    HW185374  10.094   9.178   4.529 -0.4228  1.1538 -0.7014
27612SOL    HW285375   9.989   9.120   4.622  1.6971 -0.8620  0.5023
27613SOL     OW85376   9.729   7.685   5.683  0.5238  0.0201  0.3864
27613SOL    HW185377   9.788   7.627   5.730 -2.1297 -2.1588  1.2024
27613SOL    HW285378   9.777   7.709   5.604  2.7996 -0.9722  1.4086
27614SOL     OW85379   3.345   5.876   0.143 -0.3869  0.3619 -0.2343
27614SOL    HW185380   3.294   5.939   0.092 -0.1244  0.7382 -0.0367
27614SOL    HW285381   3.434   5.912   0.144 -0.1756 -0.1496 -0.3467
27615SOL     OW85382   5.156   7.249   2.912 -0.6867  0.2092 -0.6086
27615SOL    HW185383   5.106   7.252   2.993 -2.9596 -3.3288 -1.7622
27615SOL    HW285384   5.111   7.311   2.854 -0.6539  0.7951 -0.0112
27616SOL     OW85385   3.718   4.948   1.137 -0.6740 -0.3253 -0.1400
27616SOL    HW185386   3.731   4.861   1.176 -1.4216  0.5699  2.1908
27616SOL    HW285387   3.804   4.990   1.145 -0.5532 -0.5197 -0.4154
27617SOL     OW85388   8.666   0.635   8.982 -0.0138  0.0576 -0.4106
27617SOL    HW185389   8.589   0.682   8.950  0.4747  1.0439 -0.1358
27617SOL    HW285390   8.656   0.634   9.077  0.5130  0.5223 -0.3519
27618SOL     OW85391   1.228   5.354   2.561 -0.1702 -0.4813 -0.3442
27618SOL    HW185392   1.202   5.268   2.596 -0.7014 -0.3957 -0.5259
27618SOL    HW285393   1.162   5.374   2.495 -1.5113  1.2298  1.4547
27619SOL     OW85394   6.593   4.862   0.418 -0.3748  0.0890 -0.0518
27619SOL    HW185395   6.575   4.805   0.344 -0.4032  0.1024 -0.0548
27619SOL    HW285396   6.626   4.943   0.379 -1.6116  0.5648 -0.1124
27620SOL     OW85397   6.738   1.768   5.070 -0.5794 -0.3429 -0.4966
27620SOL    HW185398   6.754   1.679   5.101  1.0451  0.0879 -0.0826
27620SOL    HW285399   6.783   1.772   4.985  2.4282  1.1520  1.0942
27621SOL     OW85400   1.960   6.976   5.049  0.2544 -0.0108 -0.0469
27621SOL    HW185401   2.039   6.993   4.997 -0.0022  0.5504 -0.2612
27621SOL    HW285402   1.949   7.054   5.103 -0.2487 -0.0110 -0.1412
27622SOL     OW85403   5.697   6.163   1.314  0.6759 -0.5252 -0.3511
27622SOL    HW185404   5.782   6.207   1.322  1.3496 -1.6290 -1.3251
27622SOL    HW285405   5.691   6.110   1.394  0.4126  0.3663  0.2327
27623SOL     OW85406   4.746   1.648   4.719  0.0229 -0.2864  0.6571
27623SOL    HW185407   4.834   1.686   4.726 -0.2341  0.4460  0.0680
27623SOL    HW285408   4.704   1.700   4.650 -1.3753  0.3515  1.9594
27624SOL     OW85409   0.198   1.855   6.990  0.2391  0.3505  0.0322
27624SOL    HW185410   0.206   1.768   6.952 -2.1173  0.7855 -1.6073
27624SOL    HW285411   0.223   1.915   6.920  2.6162  1.0235  1.3922
27625SOL     OW85412   3.542   6.054   7.875  0.0155 -0.0033 -0.3824
27625SOL    HW185413   3.619   5.997   7.862 -0.7805 -1.2171  0.0905
27625SOL    HW285414   3.535   6.104   7.794  1.0427 -0.2002 -0.6081
27626SOL     OW85415   8.247   4.702   7.014 -0.1725 -0.0857  0.0977
27626SOL    HW185416   8.299   4.634   7.056  2.7929  1.3358 -1.0636
27626SOL    HW285417   8.193   4.738   7.084 -0.1184 -2.0914  1.2084
27627SOL     OW85418   1.028   0.232   7.302 -0.2390  0.3338  0.5366
27627SOL    HW185419   1.009   0.281   7.222 -2.1243 -0.4466  0.4642
27627SOL    HW285420   0.976   0.275   7.369  0.8448  0.5919  1.2212
27628SOL     OW85421   2.729   6.359   3.372 -0.2094 -0.1874 -0.1142
27628SOL    HW185422   2.787   6.294   3.333 -1.3032 -1.2279 -0.0307
27628SOL    HW285423   2.670   6.383   3.300  0.1305  0.6542 -0.1182
27629SOL     OW85424  10.026   4.927   8.901 -1.0213  0.1275  0.2266
27629SOL    HW185425   9.958   4.992   8.884  1.4874  2.5601 -0.7748
27629SOL    HW285426  10.038   4.929   8.996 -1.2533  0.8210  0.2433
27630SOL     OW85427   0.021   4.727   9.811 -0.6393  0.2382  0.2076
27630SOL    HW185428  -0.010   4.720   9.721 -0.8324  0.0020  0.2893
27630SOL    HW285429   0.045   4.637   9.835 -0.4100  0.3298  0.3289
27631SOL     OW85430   6.790   1.073   2.233 -0.2821  0.6969  0.7907
27631SOL    HW185431   6.708   1.036   2.201 -0.0094  0.0582  0.8388
27631SOL    HW285432   6.777   1.168   2.227 -0.8134  0.5917  0.2608
27632SOL     OW85433   9.116   1.776   7.814 -0.0947 -0.7403 -0.1577
27632SOL    HW185434   9.199   1.788   7.858  0.1187  0.5043 -0.8741
27632SOL    HW285435   9.115   1.684   7.788  1.5226 -0.5083 -1.0680
27633SOL     OW85436   7.795   7.223   7.151 -0.1897  0.0652 -0.9165
27633SOL    HW185437   7.861   7.166   7.111  1.1616  0.1692  1.1122
27633SOL    HW285438   7.739   7.163   7.201 -0.3331  0.2312 -0.8772
27634SOL     OW85439   7.191   3.966   7.253 -0.1777 -0.0057 -0.5666
27634SOL    HW185440   7.223   3.885   7.214  0.0546 -0.0158 -0.3588
27634SOL    HW285441   7.193   4.030   7.181 -0.8930 -0.3182 -0.8718
27635SOL     OW85442   6.771   3.089   4.874  0.4546  0.1555 -0.1711
27635SOL    HW185443   6.750   3.135   4.955  0.6748  1.5790 -0.9220
27635SOL    HW285444   6.743   2.998   4.891 -2.5869  1.1177  0.3377
27636SOL     OW85445   0.785   1.602   2.642  0.3783 -0.5976  0.0721
27636SOL    HW185446   0.797   1.577   2.551 -0.0471  1.3872 -0.5607
27636SOL    HW285447   0.865   1.574   2.686  1.2419 -0.2131 -1.2290
27637SOL     OW85448   3.693   9.732   6.022 -0.7447  0.0260 -0.0128
27637SOL    HW185449   3.639   9.770   6.092  1.4681  1.8348  0.7603
27637SOL    HW285450   3.745   9.664   6.066 -0.3416  0.2267 -0.1795
27638SOL     OW85451   0.086   1.874  10.106  0.0773 -0.2546 -0.3151
27638SOL    HW185452   0.038   1.817  10.045  0.9597  0.2727 -1.5322
27638SOL    HW285453   0.176   1.873  10.074  0.5181  0.1661  0.9007
27639SOL     OW85454   9.133   9.247   5.668  0.6419  0.7377 -0.0533
27639SOL    HW185455   9.098   9.247   5.579  3.3208  1.0482 -1.1454
27639SOL    HW285456   9.205   9.310   5.666  1.6113 -0.2391  1.9643
27640SOL     OW85457   0.991   9.243   5.076  0.1609  0.2355  0.4341
27640SOL    HW185458   0.959   9.179   5.140 -2.3161  1.5299  0.5538
27640SOL    HW285459   0.915   9.262   5.021  1.2586  1.9739 -0.5461
27641SOL     OW85460   4.845   9.437   6.397 -0.1749 -0.0683 -0.3439
27641SOL    HW185461   4.867   9.459   6.488  1.8039 -0.2650 -0.7491
27641SOL    HW285462   4.904   9.491   6.345 -2.7151  1.6116 -1.5976
27642SOL     OW85463   7.123   8.248   2.776 -0.5969 -0.0107  0.2701
27642SOL    HW185464   7.080   8.178   2.826 -0.6778 -0.1941 -0.0504
27642SOL    HW285465   7.132   8.320   2.837  1.9578 -1.2337  1.4139
27643SOL     OW85466   5.893   3.302  10.100  0.7710  0.4853 -0.2577
27643SOL    HW185467   5.851   3.384  10.127 -1.2963 -0.7860  0.4475
27643SOL    HW285468   5.893   3.248  10.179 -0.2353 -1.1769 -1.3655
27644SOL     OW85469   7.422   3.111   6.296  0.4246  0.4950  0.1934
27644SOL    HW185470   7.432   3.016   6.300  1.8731  0.6584  0.8384
27644SOL    HW285471   7.361   3.131   6.366 -2.0326 -0.2168 -1.6939
27645SOL     OW85472   6.437  10.181   4.824  0.3595  0.0359 -0.2509
27645SOL    HW185473   6.463  10.269   4.795  0.8763  0.7719  2.3210
27645SOL    HW285474   6.512  10.150   4.875 -0.0484 -1.6994 -0.6676
27646SOL     OW85475   9.215   5.257   5.865  0.3734 -0.0741  0.4609
27646SOL    HW185476   9.249   5.219   5.946 -0.0268  1.7812  1.5343
27646SOL    HW285477   9.132   5.213   5.850  0.9055 -1.1189  0.5060
27647SOL     OW85478   4.983   7.590   6.113 -0.4295  0.1492  0.2811
27647SOL    HW185479   4.898   7.633   6.103 -0.0228  0.8537 -0.1127
27647SOL    HW285480   4.981   7.556   6.203 -1.7803 -1.2632 -0.2638
27648SOL     OW85481   9.054   9.936   8.213 -0.4703  0.3982  0.2889
27648SOL    HW185482   9.108  10.008   8.248  0.4546  0.3620 -1.0549
27648SOL    HW285483   8.971   9.978   8.191 -1.0225  0.4635  2.3301
27649SOL     OW85484   2.742   9.549   0.005 -0.1199 -0.5753  0.7272
27649SOL    HW185485   2.693   9.506   0.075  2.6934 -2.2139  1.7810
27649SOL    HW285486   2.794   9.615   0.049 -1.0190  0.8859 -0.3335
27650SOL     OW85487   3.651   4.316   4.687 -0.3423 -0.0322 -0.0378
27650SOL    HW185488   3.609   4.311   4.601  1.1327 -0.9191 -0.7401
27650SOL    HW285489   3.587   4.279   4.747 -0.6772 -1.1482 -1.0484
27651SOL     OW85490   4.783   8.533   5.093 -0.4932 -0.2376 -0.2830
27651SOL    HW185491   4.763   8.627   5.089  0.4483 -0.0447 -0.7577
27651SOL    HW285492   4.848   8.525   5.163  1.3252 -0.1559 -1.9140
27652SOL     OW85493   5.742   4.222   2.206 -0.0401 -0.5213 -0.5857
27652SOL    HW185494   5.723   4.231   2.299  0.8720  1.7304 -0.5843
27652SOL    HW285495   5.656   4.228   2.164 -0.2825  0.2831  0.0016
27653SOL     OW85496   2.195   1.648   6.603  0.0768 -0.5025  0.6575
27653SOL    HW185497   2.163   1.621   6.517 -1.8338 -0.7949  1.4377
27653SOL    HW285498   2.143   1.725   6.625  0.2413 -0.6908  1.7357
27654SOL     OW85499   5.712   1.415   7.813 -0.0772 -0.5774 -0.2452
27654SOL    HW185500   5.673   1.409   7.900  1.1888  2.5588  0.6003
27654SOL    HW285501   5.638   1.433   7.754 -0.7005 -0.8916  0.4392
27655SOL     OW85502   0.940   4.461   4.386  0.1218  0.0371 -0.1289
27655SOL    HW185503   0.964   4.554   4.378  0.7491 -0.1856 -0.9172
27655SOL    HW285504   1.018   4.420   4.425  0.1093 -0.2757 -0.4348
27656SOL     OW85505   7.946   2.361   2.173  0.6428 -0.0744  0.0493
27656SOL    HW185506   7.863   2.386   2.132 -0.6910 -3.1908  0.6893
27656SOL    HW285507   7.988   2.305   2.108  2.3754  1.6293 -0.3356
27657SOL     OW85508   6.482   4.644   1.025  0.0558 -0.0880  0.1909
27657SOL    HW185509   6.550   4.580   1.004 -1.0520 -1.3169  0.2349
27657SOL    HW285510   6.508   4.680   1.110 -0.1051 -1.6301  0.9141
27658SOL     OW85511   7.101   9.803   8.093 -0.8801  0.0704  0.4416
27658SOL    HW185512   7.037   9.840   8.032 -2.0655  0.6685  1.9856
27658SOL    HW285513   7.169   9.766   8.038 -2.4633 -0.3982 -1.2605
27659SOL     OW85514   1.628   5.829   4.824  0.1556 -0.2955 -0.4346
27659SOL    HW185515   1.683   5.889   4.874  0.9298 -0.3882 -1.1741
27659SOL    HW285516   1.685   5.754   4.805 -1.1115 -1.7877  1.4455
27660SOL     OW85517   2.792   1.697   5.801 -0.1171  0.0413  0.0202
27660SOL    HW185518   2.725   1.764   5.785  0.0536  0.0720 -0.5841
27660SOL    HW285519   2.745   1.614   5.799 -0.3399  0.1459  0.8318
27661SOL     OW85520   9.585   1.771   6.199 -0.7183 -0.2668 -0.0299
27661SOL    HW185521   9.590   1.697   6.138 -0.5750  0.4939 -0.9643
27661SOL    HW285522   9.553   1.844   6.145  0.3494  0.6694  0.5803
27662SOL     OW85523   2.270   9.578   1.881  0.2738  0.0488  0.1749
27662SOL    HW185524   2.238   9.557   1.969 -2.3612  0.5928 -0.6073
27662SOL    HW285525   2.241   9.668   1.866  1.1917  0.1504 -1.0393
27663SOL     OW85526   0.889   2.569  10.038 -0.0701 -0.4442 -0.0359
27663SOL    HW185527   0.927   2.557  10.125 -2.3015 -1.2987  0.8503
27663SOL    HW285528   0.871   2.481  10.007 -0.6417 -0.0760 -0.7661
27664SOL     OW85529   3.290   1.087   9.642  0.5665  0.1331 -0.3096
27664SOL    HW185530   3.364   1.145   9.628 -0.6075  2.2428  1.8864
27664SOL    HW285531   3.328   1.007   9.679  1.9361  0.3386 -1.2510
27665SOL     OW85532   6.108   7.167   0.286 -0.2101 -0.3711 -0.3353
27665SOL    HW185533   6.053   7.242   0.308  1.4476  1.2808 -1.5885
27665SOL    HW285534   6.052   7.091   0.299 -1.5271  0.9925  2.2347
27666SOL     OW85535   2.663  10.123   5.463  0.0304 -0.0665  0.4917
27666SOL    HW185536   2.627  10.113   5.376 -0.9698 -1.0998  1.0195
27666SOL    HW285537   2.638  10.212   5.489  0.3104  0.2320 -0.2528
27667SOL     OW85538   0.246   8.116   5.352 -0.2252 -0.3515  0.0229
27667SOL    HW185539   0.268   8.107   5.445 -0.5844 -0.2662  0.1154
27667SOL    HW285540   0.159   8.155   5.352  0.0813  0.3272 -0.3607
27668SOL     OW85541   6.210   5.063   6.378 -0.2366  0.0502  0.2244
27668SOL    HW185542   6.273   4.994   6.401 -1.3445 -0.5361  1.5141
27668SOL    HW285543   6.213   5.124   6.451  0.9583  1.5606 -1.0533
27669SOL     OW85544   8.120   0.016   2.398  0.1646 -0.1901  0.5004
27669SOL    HW185545   8.192   0.075   2.378  0.9282 -2.1581 -3.0857
27669SOL    HW285546   8.043   0.058   2.359  0.4520 -0.8639 -0.8066
27670SOL     OW85547   1.937   2.149   5.555 -0.2935  0.5394 -0.5904
27670SOL    HW185548   1.935   2.084   5.625 -1.8563  1.3339  0.1139
27670SOL    HW285549   1.933   2.233   5.600  0.4559  1.1034 -1.5575
27671SOL     OW85550   1.934   4.143   9.053  0.1179  0.2854  0.6124
27671SOL    HW185551   1.911   4.142   8.961  0.5005 -0.4047  0.5197
27671SOL    HW285552   1.913   4.232   9.083 -0.0637  0.4859 -0.1181
27672SOL     OW85553   1.714   5.026   2.057  0.1548 -0.4713  0.0713
27672SOL    HW185554   1.691   5.073   1.976  0.1143  0.5819  0.6813
27672SOL    HW285555   1.650   5.056   2.121 -0.1594 -1.7387  0.3607
27673SOL     OW85556  10.145   3.584   4.330  0.2399  0.1312  0.8106
27673SOL    HW185557  10.126   3.667   4.286 -1.1950 -0.2821  0.6259
27673SOL    HW285558  10.167   3.609   4.419 -1.1756  0.6586  1.0304
27674SOL     OW85559   6.549   2.039   0.131 -0.1921  0.1192 -0.5823
27674SOL    HW185560   6.483   2.089   0.179 -0.1306  0.5623 -0.9540
27674SOL    HW285561   6.614   2.015   0.198 -0.0364  0.8525 -0.4603
27675SOL     OW85562   0.905   0.483   4.423 -0.2761 -0.0323  0.1916
27675SOL    HW185563   0.971   0.449   4.484  1.1485  2.6205  0.1728
27675SOL    HW285564   0.823   0.480   4.473  0.5135  0.1991  1.5374
27676SOL     OW85565   1.918   5.979   4.874 -0.1489 -0.3898 -0.0541
27676SOL    HW185566   1.935   5.908   4.936  0.3699 -1.0201 -0.8929
27676SOL    HW285567   2.004   6.009   4.848 -0.3671  0.1558 -0.1458
27677SOL     OW85568   0.542   6.286   0.701 -0.4761  0.4992 -0.4547
27677SOL    HW185569   0.535   6.286   0.605 -1.3098 -1.8524 -0.4358
27677SOL    HW285570   0.478   6.352   0.729 -0.5929  0.8471 -1.4959
27678SOL     OW85571   6.220   1.865   0.063 -0.6494 -0.0376  0.0412
27678SOL    HW185572   6.273   1.912  -0.002 -1.5351  0.6834 -0.1779
27678SOL    HW285573   6.141   1.840   0.015 -1.5592  0.9832  0.9842
27679SOL     OW85574   9.896   3.232   8.418 -0.1210 -0.1672 -0.4195
27679SOL    HW185575   9.891   3.139   8.393 -0.8533 -1.7944  5.0355
27679SOL    HW285576   9.804   3.259   8.427  0.0989  0.4921 -0.1311
27680SOL     OW85577   9.696   8.872   6.083 -0.5011  0.3009  0.4636
27680SOL    HW185578   9.634   8.811   6.122 -1.1459  1.2536  0.9504
27680SOL    HW285579   9.679   8.868   5.989 -0.2823 -0.5444  0.4610
27681SOL     OW85580   5.350   8.123   5.028  0.4377  0.2097 -0.0029
27681SOL    HW185581   5.259   8.104   5.053  0.5998 -1.9465 -0.9466
27681SOL    HW285582   5.349   8.215   5.003 -0.9680  0.8529  2.2997
27682SOL     OW85583   2.138   1.424   5.655  0.0554  0.9727  0.4152
27682SOL    HW185584   2.188   1.342   5.656 -0.2495  0.7069 -2.4244
27682SOL    HW285585   2.064   1.407   5.712  0.7312 -0.2560  0.9543
27683SOL     OW85586   6.754   4.097   3.254  0.0836 -0.0056 -0.2106
27683SOL    HW185587   6.662   4.074   3.268 -0.3823  1.2319 -1.1194
27683SOL    HW285588   6.774   4.160   3.323 -0.0587  0.4937 -0.6177
27684SOL     OW85589   5.776   6.387   3.138  0.2079  0.6174 -0.2984
27684SOL    HW185590   5.825   6.439   3.202  1.1649  1.5003 -1.7172
27684SOL    HW285591   5.714   6.337   3.190 -0.1493  2.5517  1.1833
27685SOL     OW85592   1.014   1.533   6.443 -0.1433 -0.3752  0.5386
27685SOL    HW185593   1.097   1.500   6.477 -0.9906 -0.1591  2.9171
27685SOL    HW285594   0.949   1.510   6.510 -1.2564  3.3111  0.8640
27686SOL     OW85595   8.537   0.532   7.516  0.4496  0.2096 -0.0017
27686SOL    HW185596   8.469   0.507   7.453  1.2678  1.3436 -1.3588
27686SOL    HW285597   8.611   0.559   7.463  1.4027  0.5492  1.4600
27687SOL     OW85598   5.947   9.016   4.762  0.4453  0.0035  0.3458
27687SOL    HW185599   6.011   8.967   4.712  0.2436 -0.6835  0.7572
27687SOL    HW285600   5.998   9.062   4.829  0.5662 -0.0965  0.3205
27688SOL     OW85601   4.220   7.866   3.919 -0.0697  0.2447 -0.2847
27688SOL    HW185602   4.261   7.788   3.881 -1.7501 -0.7070 -0.2112
27688SOL    HW285603   4.180   7.834   4.000  0.5594  1.5315  0.5477
27689SOL     OW85604   9.289   6.100   4.579 -0.2162  0.2011 -0.0069
27689SOL    HW185605   9.306   6.015   4.618  0.3485 -0.1403 -0.9647
27689SOL    HW285606   9.240   6.081   4.499 -2.9299  1.0103  1.4106
27690SOL     OW85607   2.274   9.455   8.497 -0.1088 -0.0565 -0.2702
27690SOL    HW185608   2.285   9.531   8.440  1.7055 -0.2434 -0.1804
27690SOL    HW285609   2.257   9.382   8.438 -1.2208  0.2920 -0.3904
27691SOL     OW85610   2.444   1.225   2.235 -0.3731  0.1979  0.6849
27691SOL    HW185611   2.417   1.311   2.201  0.6037 -0.0403 -0.7606
27691SOL    HW285612   2.525   1.242   2.282 -0.4163  0.1420  0.7795
27692SOL     OW85613   3.509   0.874   2.350  0.1428  0.0312 -0.7839
27692SOL    HW185614   3.472   0.955   2.313 -0.2750  1.3461  2.2936
27692SOL    HW285615   3.599   0.897   2.373  0.9215 -1.2618 -2.4372
27693SOL     OW85616   3.120   4.760   0.449  0.9089  0.3624  0.4397
27693SOL    HW185617   3.067   4.712   0.385  1.3369  0.3054  0.1263
27693SOL    HW285618   3.136   4.697   0.519 -0.8717  0.8861  1.3566
27694SOL     OW85619   6.761   3.259   8.804  0.1026 -0.4599  0.5102
27694SOL    HW185620   6.723   3.213   8.729 -0.1208 -1.6439  1.3376
27694SOL    HW285621   6.856   3.253   8.790  0.0515  0.2933 -0.2384
27695SOL     OW85622   1.411   3.622   7.395 -0.1486 -0.0082 -0.0437
27695SOL    HW185623   1.453   3.701   7.431 -1.1006  0.9349 -0.9611
27695SOL    HW285624   1.379   3.649   7.310 -1.4973 -1.0847  0.1111
27696SOL     OW85625   8.721   3.670   1.345  0.6083  0.1275 -0.0693
27696SOL    HW185626   8.811   3.700   1.362  0.1917  1.4966 -0.1920
27696SOL    HW285627   8.730   3.578   1.321  2.1689  0.7132 -1.8277
27697SOL     OW85628   7.666   4.422   9.207  0.0176  0.5120 -0.5709
27697SOL    HW185629   7.584   4.471   9.209 -0.9004 -0.9840 -0.5469
27697SOL    HW285630   7.701   4.430   9.296 -0.5492  0.4094 -0.3379
27698SOL     OW85631   5.676   6.109   5.493  0.2364 -0.4365 -0.2889
27698SOL    HW185632   5.759   6.066   5.511  0.4419 -0.3822 -1.0810
27698SOL    HW285633   5.654   6.155   5.574  1.1313 -0.1832 -0.1862
27699SOL     OW85634   9.678   0.652   7.334  0.8215 -0.1526  0.6799
27699SOL    HW185635   9.730   0.723   7.371  1.6936  0.2828 -1.3569
27699SOL    HW285636   9.588   0.685   7.333  1.4174  1.4837 -1.5424
27700SOL     OW85637   7.688   5.548   2.773  0.0908 -0.1888  0.4968
27700SOL    HW185638   7.597   5.553   2.804  0.2222  0.1136  0.8458
27700SOL    HW285639   7.681   5.518   2.682 -0.4405  1.1015  0.0947
27701SOL     OW85640   3.193   3.655   4.128 -0.4285 -0.4136  0.3153
27701SOL    HW185641   3.267   3.713   4.143 -0.3259 -0.0747 -1.3605
27701SOL    HW285642   3.223   3.593   4.062 -1.7374 -0.0392 -0.6671
27702SOL     OW85643   5.812   2.385   0.211 -0.8131  0.1477 -0.6339
27702SOL    HW185644   5.738   2.327   0.229  0.9867 -2.3167 -1.0849
27702SOL    HW285645   5.825   2.379   0.117 -1.5097  2.4454 -0.9130
27703SOL     OW85646   7.710   3.213   1.413  0.4390 -0.0423 -0.5999
27703SOL    HW185647   7.752   3.234   1.497  1.1278  1.0581 -1.2010
27703SOL    HW285648   7.677   3.124   1.424  0.7361  0.0043  0.7582
27704SOL     OW85649   8.648   5.894   9.000  0.3933  0.3026  0.3199
27704SOL    HW185650   8.673   5.835   8.929  0.5442  0.6321  0.1004
27704SOL    HW285651   8.614   5.836   9.068 -2.9300  0.2326 -1.3244
27705SOL     OW85652   3.599   0.012   7.843 -0.0901 -0.6737  0.2548
27705SOL    HW185653   3.641  -0.044   7.778 -0.2326 -1.0990  0.5318
27705SOL    HW285654   3.506   0.009   7.820  0.0143  0.2894 -0.3756
27706SOL     OW85655   8.671   0.135   7.741 -0.5606 -0.1308 -0.6369
27706SOL    HW185656   8.731   0.063   7.760 -0.8575 -0.3857 -0.6545
27706SOL    HW285657   8.684   0.154   7.649 -0.4849 -0.1667 -0.6333
27707SOL     OW85658   9.217   7.591   4.982  0.1811 -0.6079  0.6871
27707SOL    HW185659   9.258   7.529   4.921  0.0770 -0.2767  0.2730
27707SOL    HW285660   9.218   7.674   4.935  0.0100 -0.3688  1.1044
27708SOL     OW85661   0.098   0.252   2.239 -0.1212 -0.0556  0.1567
27708SOL    HW185662   0.128   0.161   2.243  1.9351  0.6039  0.7767
27708SOL    HW285663   0.167   0.301   2.285 -1.8125  1.6577  0.9202
27709SOL     OW85664   8.470   7.624   9.796  0.6394 -0.2123 -0.0547
27709SOL    HW185665   8.455   7.531   9.812  1.3305 -0.4809 -0.9151
27709SOL    HW285666   8.457   7.635   9.702 -0.2801  0.7353  0.1705
27710SOL     OW85667   9.931   3.169   6.132 -0.1672  0.2921 -0.3964
27710SOL    HW185668   9.937   3.076   6.108  1.0627  0.3612 -0.4032
27710SOL    HW285669   9.902   3.212   6.052  3.0213  0.3991 -1.5398
27711SOL     OW85670   9.131  10.131   9.391 -0.1989 -0.3089  0.2864
27711SOL    HW185671   9.160  10.072   9.462 -1.3466 -0.0280  0.9997
27711SOL    HW285672   9.080  10.198   9.436  1.9527  1.8423 -0.3964
27712SOL     OW85673   5.568   3.444   3.767 -0.1520 -0.1622  0.8174
27712SOL    HW185674   5.569   3.525   3.715 -1.3534 -0.4241  0.3868
27712SOL    HW285675   5.646   3.452   3.823  0.1159  0.9851  0.3129
27713SOL     OW85676   7.498   2.048   8.698 -0.4314 -0.3326 -0.4572
27713SOL    HW185677   7.525   2.131   8.738 -0.3815  1.3560 -3.8239
27713SOL    HW285678   7.563   2.033   8.630 -3.1926 -0.6081 -3.0947
27714SOL     OW85679   7.874   2.945   0.913  0.0033 -0.4633 -0.0669
27714SOL    HW185680   7.866   2.873   0.850 -0.7112  0.5243 -1.1228
27714SOL    HW285681   7.783   2.963   0.939  0.1520  0.2901 -0.0746
27715SOL     OW85682   6.151   8.790   3.696 -0.7287  0.0710  0.1059
27715SOL    HW185683   6.205   8.866   3.672 -0.9008 -0.2124 -1.2236
27715SOL    HW285684   6.175   8.771   3.787  0.8698  0.4005 -0.2294
27716SOL     OW85685   1.849   2.865   9.088  0.0351  0.4940  0.9023
27716SOL    HW185686   1.898   2.784   9.074 -1.3189 -0.0852 -0.6192
27716SOL    HW285687   1.860   2.884   9.182  2.3858 -0.0926  0.7808
27717SOL     OW85688   8.412   9.060   3.209 -0.0775 -0.0821  0.6135
27717SOL    HW185689   8.409   8.997   3.282 -0.1318 -1.2610 -0.3944
27717SOL    HW285690   8.481   9.121   3.233  0.3198 -0.8162  1.3768
27718SOL     OW85691   0.995   3.082   0.946 -0.1374 -0.0761  0.3448
27718SOL    HW185692   0.924   3.018   0.939 -0.2215  0.0395  0.1519
27718SOL    HW285693   1.069   3.032   0.980  0.4351 -0.7533 -1.8659
27719SOL     OW85694   2.885   8.200   4.731  0.3966  0.1974  0.4265
27719SOL    HW185695   2.801   8.246   4.728 -1.4163 -3.0509 -2.9312
27719SOL    HW285696   2.865   8.117   4.774  1.5545 -1.1325 -1.5106
27720SOL     OW85697   8.294   8.604   7.095 -0.2276  0.0437  0.0379
27720SOL    HW185698   8.247   8.687   7.110  0.9546  0.7721 -0.2077
27720SOL    HW285699   8.313   8.605   7.001  1.3701  0.3522  0.3579
27721SOL     OW85700   7.454   0.241   2.334  0.6934  0.1466  0.3936
27721SOL    HW185701   7.482   0.296   2.407  1.2127 -2.9657  2.6338
27721SOL    HW285702   7.358   0.249   2.333  0.6603 -0.0209  1.6150
27722SOL     OW85703   8.965   4.084   8.069  0.0215  0.2533  0.1092
27722SOL    HW185704   9.011   4.102   7.986  0.6256  0.9698  0.5870
27722SOL    HW285705   8.959   3.989   8.073  1.2069  0.1638 -0.1027
27723SOL     OW85706   9.408   1.220   7.427  0.0343 -0.4591 -0.2874
27723SOL    HW185707   9.327   1.175   7.450 -1.3161  1.6557 -0.7429
27723SOL    HW285708   9.413   1.293   7.489  0.8479  0.2472 -1.1756
27724SOL     OW85709   6.663   8.667   1.570  0.4879 -0.7616  0.3331
27724SOL    HW185710   6.714   8.747   1.581 -2.5992  1.3689 -0.0076
27724SOL    HW285711   6.695   8.628   1.489  1.5543  0.5436  0.1116
27725SOL     OW85712   2.319   8.529   4.660  0.4487  0.1409 -0.3445
27725SOL    HW185713   2.351   8.571   4.580  0.1105 -0.9861 -1.0779
27725SOL    HW285714   2.378   8.560   4.728  1.5452  0.0731 -1.2523
27726SOL     OW85715   5.344   3.342   2.417  0.2962 -0.1771 -0.1161
27726SOL    HW185716   5.296   3.260   2.405  1.0814 -0.8072  1.0099
27726SOL    HW285717   5.314   3.375   2.501 -0.1553  0.7968 -0.6536
27727SOL     OW85718   3.159   9.864   7.744  0.1896  0.3080 -0.2520
27727SOL    HW185719   3.157   9.877   7.649  0.1606  0.8105 -0.1879
27727SOL    HW285720   3.073   9.828   7.765  0.1011  0.4378 -0.3868
27728SOL     OW85721   6.896   1.992   9.967 -0.1422 -0.0231 -0.2473
27728SOL    HW185722   6.889   2.035  10.052  0.5732  0.5403 -0.4711
27728SOL    HW285723   6.987   1.964   9.961  0.0807  0.8621 -1.2560
27729SOL     OW85724   5.530   4.763   1.544 -0.3186  0.1194  0.1978
27729SOL    HW185725   5.448   4.811   1.552  0.3842  1.0485  2.1980
27729SOL    HW285726   5.569   4.793   1.462 -1.7486 -0.0057 -0.5403
27730SOL     OW85727   0.274   5.689   2.582 -0.1212 -0.2145  0.4246
27730SOL    HW185728   0.247   5.685   2.491 -0.9653 -0.2773  0.6698
27730SOL    HW285729   0.316   5.605   2.599  0.2411 -0.1134  0.0354
27731SOL     OW85730   6.696   0.655   7.144  0.3277 -0.5495 -0.7001
27731SOL    HW185731   6.644   0.629   7.220  1.6314  0.8532  0.6820
27731SOL    HW285732   6.642   0.629   7.069 -1.9854  0.1145  0.6900
27732SOL     OW85733   2.232   0.428   9.397  0.0475  0.2031  0.3310
27732SOL    HW185734   2.301   0.364   9.413  0.6455  0.2644 -1.7837
27732SOL    HW285735   2.188   0.396   9.318 -1.1826  1.1265  0.6325
27733SOL     OW85736   3.305   4.139   9.239 -0.7714 -0.0045  0.3456
27733SOL    HW185737   3.291   4.162   9.148  0.9838 -1.0853 -0.2328
27733SOL    HW285738   3.292   4.221   9.287 -2.8523  0.3239 -0.7165
27734SOL     OW85739   5.901   8.980   5.545 -0.0674 -0.3139  0.3951
27734SOL    HW185740   5.847   8.935   5.480  1.6310 -0.1292 -1.2039
27734SOL    HW285741   5.956   8.912   5.583 -0.5586 -0.3023  1.1377
27735SOL     OW85742   4.810   8.732   3.550  0.8385 -0.3644  0.1602
27735SOL    HW185743   4.811   8.822   3.581  0.7363  0.6926 -2.7897
27735SOL    HW285744   4.901   8.703   3.558  1.2561  0.6662 -0.7603
27736SOL     OW85745   3.329   7.574   4.748  0.8743 -0.2021 -0.1413
27736SOL    HW185746   3.393   7.645   4.741 -0.3726  1.1197  1.2945
27736SOL    HW285747   3.308   7.552   4.657  1.1538  1.3961 -0.6143
27737SOL     OW85748   5.283   1.081   2.785  0.2803 -0.0870  0.4779
27737SOL    HW185749   5.232   1.138   2.728  0.0557 -0.3396  0.4265
27737SOL    HW285750   5.358   1.135   2.812  0.5037 -0.0427 -0.2264
27738SOL     OW85751   8.232   1.047   2.585  0.1468  0.2679 -0.2945
27738SOL    HW185752   8.142   1.066   2.613  0.2139  1.4195 -0.8619
27738SOL    HW285753   8.258   0.973   2.640 -0.5472  0.9978  1.0492
27739SOL     OW85754   7.855   8.489   7.276  0.1832  0.3040 -0.3888
27739SOL    HW185755   7.887   8.514   7.362 -0.0628  1.1831 -0.5453
27739SOL    HW285756   7.818   8.402   7.288 -1.3246  1.0874  0.7604
27740SOL     OW85757   3.635   6.984   4.648  0.4005  0.0215  0.9395
27740SOL    HW185758   3.612   6.918   4.583 -2.9754  1.4197  0.6002
27740SOL    HW285759   3.660   6.934   4.725 -0.9467 -1.6662  0.3199
27741SOL     OW85760   7.667   4.100   6.533  0.6871 -0.1424 -0.6501
27741SOL    HW185761   7.756   4.065   6.536  0.5155 -0.7193 -1.8828
27741SOL    HW285762   7.613   4.028   6.500 -0.5979 -0.4503  1.9875
27742SOL     OW85763   0.319   6.890   0.637 -0.2411 -0.4771 -0.1996
27742SOL    HW185764   0.376   6.966   0.628 -0.6257 -0.3241 -1.4467
27742SOL    HW285765   0.346   6.832   0.566 -1.1192 -0.7384 -0.3246
27743SOL     OW85766   3.696   6.678   6.450  0.3338 -0.2507  0.1155
27743SOL    HW185767   3.703   6.592   6.491 -0.0658 -0.9954 -1.3499
27743SOL    HW285768   3.602   6.689   6.435  0.2625  0.9481  1.3386
27744SOL     OW85769  10.124   1.176   3.688  0.0955 -0.4382 -0.3969
27744SOL    HW185770  10.053   1.139   3.741 -0.2781 -0.1334 -0.6859
27744SOL    HW285771  10.174   1.100   3.658  0.4232 -0.6059  0.5518
27745SOL     OW85772   7.510   1.833   1.635 -0.1245  0.0505 -0.0126
27745SOL    HW185773   7.496   1.757   1.691 -0.7244  0.5436  0.5122
27745SOL    HW285774   7.539   1.902   1.695 -2.2229  1.0207 -0.0461
27746SOL     OW85775   6.084   6.448   4.425  0.4070 -0.8376 -0.3798
27746SOL    HW185776   6.010   6.390   4.445  0.8581 -1.0178  0.8016
27746SOL    HW285777   6.162   6.393   4.437  0.8600  0.1578  1.3245
27747SOL     OW85778   7.008   2.869   2.990  0.3885 -0.1691 -0.2232
27747SOL    HW185779   6.913   2.868   2.975  0.2436 -0.8110  0.7069
27747SOL    HW285780   7.018   2.900   3.080  1.0899  0.3675 -0.4853
27748SOL     OW85781   6.098   6.345   2.084 -0.2257 -0.3650 -1.3072
27748SOL    HW185782   6.094   6.374   2.175 -1.4187  1.9929 -2.0993
27748SOL    HW285783   6.061   6.256   2.086 -1.1648  0.0438  0.3424
27749SOL     OW85784  10.192   8.060   8.334 -0.0343 -0.0035  0.1184
27749SOL    HW185785  10.177   8.108   8.252  2.0573  0.8717  0.2052
27749SOL    HW285786  10.113   8.076   8.386 -1.4701 -0.7424 -1.7994
27750SOL     OW85787   2.057   8.805   3.015 -0.2984  0.1921 -0.0604
27750SOL    HW185788   2.140   8.798   2.968  1.1916 -1.2165  2.6511
27750SOL    HW285789   2.073   8.873   3.081 -1.1906 -0.2744  0.6470
27751SOL     OW85790   1.550  10.076   0.144 -0.2157  0.1344  0.0674
27751SOL    HW185791   1.614  10.006   0.154 -0.4073 -0.3036 -1.6313
27751SOL    HW285792   1.487  10.042   0.081 -1.0622  1.3140  0.2662
27752SOL     OW85793   9.564   8.330   8.254  0.2470 -0.1685  0.3001
27752SOL    HW185794   9.660   8.325   8.248  0.4583  0.1159  2.8966
27752SOL    HW285795   9.546   8.423   8.272 -0.5112 -0.2313 -0.1342
27753SOL     OW85796   1.672   1.833   7.422  0.0418  0.3733  0.3067
27753SOL    HW185797   1.701   1.745   7.400  1.5894  0.2564  2.6935
27753SOL    HW285798   1.737   1.890   7.382 -0.4285  0.3943 -0.4277
27754SOL     OW85799   2.333   8.950   2.460  0.3807 -0.1367 -0.1320
27754SOL    HW185800   2.361   9.041   2.470  1.4853 -0.4955  0.1430
27754SOL    HW285801   2.386   8.902   2.524 -1.8741 -0.6585  1.4128
27755SOL     OW85802   6.212   4.819   7.073  0.4923 -0.3382 -0.1430
27755SOL    HW185803   6.294   4.859   7.101 -1.0532  1.8106  1.4696
27755SOL    HW285804   6.210   4.832   6.978  1.3639  0.8797 -0.0032
27756SOL     OW85805  10.049   7.267   8.372 -0.2122 -0.0241 -0.1091
27756SOL    HW185806  10.099   7.186   8.375  3.3962  2.0820 -0.2278
27756SOL    HW285807  10.063   7.300   8.283 -1.3370  0.9141  0.0466
27757SOL     OW85808   4.733   9.684   6.707  0.5817  0.5220 -0.0357
27757SOL    HW185809   4.765   9.765   6.746  0.6402  0.8730 -0.8114
27757SOL    HW285810   4.810   9.647   6.664  0.0730  1.1058 -1.4682
27758SOL     OW85811   4.919   3.191   5.382 -0.3438 -0.5186 -0.1385
27758SOL    HW185812   4.994   3.249   5.374 -0.2027 -0.7016 -0.1364
27758SOL    HW285813   4.929   3.127   5.312  0.0331 -1.1417  0.4784
27759SOL     OW85814   8.530   9.162   7.380  0.3359 -0.2172  0.3730
27759SOL    HW185815   8.573   9.245   7.401  1.7672  0.0476 -3.3293
27759SOL    HW285816   8.484   9.179   7.298 -1.0077 -2.5565  0.6036
27760SOL     OW85817   1.274   7.653   8.402  0.0167  0.0282  0.0392
27760SOL    HW185818   1.335   7.589   8.437  0.8567  1.0896  0.5697
27760SOL    HW285819   1.323   7.736   8.403 -0.2412  0.2728 -2.7661
27761SOL     OW85820   0.605   9.557   4.798  0.0152  0.0926  0.1427
27761SOL    HW185821   0.578   9.605   4.720  0.2491  0.8252  0.5071
27761SOL    HW285822   0.633   9.625   4.860 -0.6008 -0.4451  1.0321
27762SOL     OW85823   8.060   5.911   8.380  0.1876 -0.2759 -0.3789
27762SOL    HW185824   8.022   5.824   8.387 -0.0235 -0.0380  2.1061
27762SOL    HW285825   7.996   5.969   8.422  0.3244  1.0816 -1.9813
27763SOL     OW85826   4.667   9.954   1.436  0.2404  0.1484  0.4264
27763SOL    HW185827   4.726  10.005   1.381 -0.5723  2.2872  1.5034
27763SOL    HW285828   4.706   9.867   1.439  2.2825  1.0176 -0.4724
27764SOL     OW85829   6.008   5.333   0.444 -0.1656  0.1556  0.3280
27764SOL    HW185830   5.982   5.248   0.408 -0.5457  0.4390 -0.0659
27764SOL    HW285831   5.992   5.326   0.538  0.6211 -0.5122  0.4218
27765SOL     OW85832   4.081   8.595   3.284 -0.4053  0.4256  0.1640
27765SOL    HW185833   4.066   8.591   3.378 -0.5995  1.2580  0.1731
27765SOL    HW285834   4.176   8.603   3.274 -0.0699 -2.8111  0.1745
27766SOL     OW85835   2.090   2.999   4.560  0.1955  0.0210  0.2577
27766SOL    HW185836   2.058   3.010   4.650  0.3940 -0.0669  0.3398
27766SOL    HW285837   2.185   3.012   4.567  0.5590 -2.6117  0.5055
27767SOL     OW85838   7.917  10.105   8.476  0.4223  0.2511 -0.0099
27767SOL    HW185839   7.938  10.080   8.386 -2.0546  0.9662 -0.8063
27767SOL    HW285840   7.924  10.201   8.477  0.2700  0.2601  0.5115
27768SOL     OW85841   1.553   1.690   4.625 -0.3338 -0.3745  0.4830
27768SOL    HW185842   1.536   1.685   4.719 -2.3842  0.3521  0.1756
27768SOL    HW285843   1.547   1.600   4.594 -1.7093 -0.3877  0.7419
27769SOL     OW85844   2.195   3.689   0.162  0.4674  0.0098 -0.6403
27769SOL    HW185845   2.144   3.747   0.106 -0.4780 -0.0801  0.1128
27769SOL    HW285846   2.211   3.739   0.242 -1.0932 -1.0123  0.3693
27770SOL     OW85847   5.956   0.322   4.733  0.1297  0.4149  0.2419
27770SOL    HW185848   6.021   0.280   4.676  0.7499 -0.1214  1.3320
27770SOL    HW285849   5.908   0.380   4.675  1.0470  0.2058 -0.7489
27771SOL     OW85850   3.052   2.611   1.380  0.0072 -0.6723  0.1962
27771SOL    HW185851   3.081   2.590   1.291  0.4774 -0.8734  0.3928
27771SOL    HW285852   3.105   2.554   1.436 -0.0930 -0.3486  0.6221
27772SOL     OW85853   3.062   5.512   5.640 -0.0265  0.1207  0.2428
27772SOL    HW185854   3.102   5.433   5.675  0.0650 -0.3935 -1.0251
27772SOL    HW285855   3.132   5.555   5.591  0.6670  2.3219  3.0346
27773SOL     OW85856   4.062   6.682   4.061 -0.4657 -0.3492  0.2286
27773SOL    HW185857   4.012   6.693   4.142 -1.0076  1.6919 -0.3617
27773SOL    HW285858   4.069   6.770   4.025  1.4899 -0.9683 -0.9385
27774SOL     OW85859   4.716   5.671   6.132 -0.0688 -0.4365 -0.1692
27774SOL    HW185860   4.629   5.661   6.094 -0.4281 -0.2631  0.6099
27774SOL    HW285861   4.776   5.654   6.059 -0.7470 -0.8138 -0.6431
27775SOL     OW85862   0.629   2.736   6.088  0.0657 -0.2429  0.0797
27775SOL    HW185863   0.582   2.760   6.169 -1.8956  0.1425 -1.1332
27775SOL    HW285864   0.578   2.778   6.018  1.5668 -0.8252 -1.3819
27776SOL     OW85865   9.290   8.072   2.986 -0.4424 -0.2794 -0.0048
27776SOL    HW185866   9.225   8.110   3.047  0.8875  1.9148  0.1035
27776SOL    HW285867   9.372   8.076   3.035  0.2090 -0.7138 -1.0777
27777SOL     OW85868   6.171   8.855   4.675  0.2232 -0.3699  0.0424
27777SOL    HW185869   6.265   8.845   4.694 -0.2654 -1.8949  1.7386
27777SOL    HW285870   6.166   8.851   4.579  1.8365 -0.7326 -0.0435
27778SOL     OW85871   2.945   4.335   4.260 -0.2223 -0.1093  0.2454
27778SOL    HW185872   3.027   4.288   4.276  1.1130  2.4069  1.0537
27778SOL    HW285873   2.969   4.407   4.201 -1.7516  0.9282  0.8534
27779SOL     OW85874   1.878   5.827   8.434  0.0611 -0.1003 -0.3812
27779SOL    HW185875   1.841   5.882   8.504  0.0170 -1.1504  0.4386
27779SOL    HW285876   1.951   5.781   8.476  1.6902  1.2031 -1.7274
27780SOL     OW85877   6.135   9.629   9.319  0.5814 -0.0296  0.0193
27780SOL    HW185878   6.173   9.711   9.288  2.5751 -1.4487 -1.3839
27780SOL    HW285879   6.210   9.569   9.326 -1.1151 -2.2722 -0.7480
27781SOL     OW85880   8.616   3.866   4.564  0.0770  0.1257 -0.0298
27781SOL    HW185881   8.683   3.918   4.519 -0.3391  0.2016 -0.5598
27781SOL    HW285882   8.664   3.792   4.601  0.4965  0.3175 -0.1851
27782SOL     OW85883   8.012   9.954   7.248  0.2914 -0.0850 -0.5042
27782SOL    HW185884   7.981   9.875   7.293  0.6214 -0.1233 -0.3453
27782SOL    HW285885   7.958  10.025   7.283  0.0158 -0.2374 -0.6241
27783SOL     OW85886   4.314   2.014   3.074  0.0039  0.4103  0.1835
27783SOL    HW185887   4.318   1.942   3.137  1.2887  0.3151  0.0209
27783SOL    HW285888   4.224   2.013   3.042 -0.8987  0.9999  2.6093
27784SOL     OW85889   7.734   8.790   6.903 -0.1513 -0.1363  0.7500
27784SOL    HW185890   7.658   8.746   6.941 -1.4988  0.2069 -1.4531
27784SOL    HW285891   7.696   8.863   6.853  1.6041 -0.0737 -0.5211
27785SOL     OW85892   0.787   3.722   4.876  0.0106 -0.1805 -0.3506
27785SOL    HW185893   0.866   3.754   4.833 -2.0552  1.6266 -2.9824
27785SOL    HW285894   0.797   3.627   4.878  2.8499  0.0919  0.6607
27786SOL     OW85895   8.254   9.040   5.701  0.6011 -0.8704  0.1964
27786SOL    HW185896   8.187   9.093   5.657  1.4371 -0.5394 -0.6979
27786SOL    HW285897   8.273   9.087   5.781  0.0673 -0.7443  0.2541
27787SOL     OW85898   3.294   2.186   7.739  0.6728 -0.1401 -0.0178
27787SOL    HW185899   3.245   2.106   7.754  0.9189 -0.6708 -1.8639
27787SOL    HW285900   3.371   2.180   7.796  0.5853 -1.1124 -0.0080
27788SOL     OW85901   3.229   4.244   5.913 -0.0316  0.0849  0.2334
27788SOL    HW185902   3.251   4.178   5.848 -0.1398  0.3912 -0.1196
27788SOL    HW285903   3.313   4.271   5.950 -0.0238 -0.5685  0.6966
27789SOL     OW85904   0.021   8.240   2.495  0.2940 -0.3280  0.0938
27789SOL    HW185905   0.077   8.306   2.454 -2.0751  0.5526 -1.8899
27789SOL    HW285906  -0.023   8.287   2.566  0.0496 -0.2697 -0.0937
27790SOL     OW85907   5.528   1.360   9.510 -0.4504  0.0903  0.3329
27790SOL    HW185908   5.527   1.430   9.575  0.9127  1.0079 -0.6142
27790SOL    HW285909   5.606   1.309   9.532  0.3794  0.7800 -0.9654
27791SOL     OW85910   0.661   6.765   8.108 -0.2359  0.0991  0.5573
27791SOL    HW185911   0.605   6.746   8.183 -0.4776  1.6799  0.8127
27791SOL    HW285912   0.611   6.737   8.032 -0.8430  0.3277  0.8680
27792SOL     OW85913   4.565   5.115   7.585  0.2290  0.4599 -0.7651
27792SOL    HW185914   4.644   5.079   7.624 -0.0187 -0.0674 -0.7573
27792SOL    HW285915   4.499   5.109   7.654  0.3755  1.6173 -0.5071
27793SOL     OW85916   1.555  10.011   3.970  0.3887  0.3181 -0.8790
27793SOL    HW185917   1.510  10.051   3.896  0.0247 -0.9921 -1.3797
27793SOL    HW285918   1.536   9.917   3.962  2.5085 -0.1737 -0.6409
27794SOL     OW85919  10.126   5.019   5.461 -0.1098  0.3763  0.1555
27794SOL    HW185920  10.207   5.045   5.418  0.4174  1.0441  1.5261
27794SOL    HW285921  10.154   4.967   5.536 -1.0666 -2.0160 -1.0717
27795SOL     OW85922   4.622   1.776   0.484  0.1906  0.0875  0.6473
27795SOL    HW185923   4.676   1.742   0.413 -0.6270 -0.6582  0.3609
27795SOL    HW285924   4.649   1.867   0.495  0.7299  0.0352 -0.2285
27796SOL     OW85925   6.412   6.745   8.176  0.1565 -0.7406 -0.3730
27796SOL    HW185926   6.334   6.729   8.124  1.1821 -2.3355 -1.4779
27796SOL    HW285927   6.434   6.836   8.158 -0.4420 -0.7962 -1.4649
27797SOL     OW85928   5.921   0.008   4.625  0.3321 -0.3639  0.1733
27797SOL    HW185929   5.961  -0.006   4.711  0.4108 -0.5494  0.1055
27797SOL    HW285930   5.995   0.009   4.564  0.5772  2.5377  0.4238
27798SOL     OW85931   5.168   2.966   2.049 -0.1852 -0.2403 -0.1571
27798SOL    HW185932   5.215   3.047   2.030 -1.4875  0.5711 -0.0153
27798SOL    HW285933   5.231   2.896   2.032  0.2284  0.6885 -2.6546
27799SOL     OW85934   9.751   9.866   5.147 -0.0913 -0.8193  0.3612
27799SOL    HW185935   9.761   9.948   5.098  0.0674 -1.6116 -0.9476
27799SOL    HW285936   9.718   9.893   5.232  1.3536  0.7436  0.4414
27800SOL     OW85937   6.069   8.081   0.608 -0.4559 -0.0562 -0.5000
27800SOL    HW185938   6.116   8.011   0.652 -1.4505 -0.1375  0.4585
27800SOL    HW285939   6.059   8.149   0.674 -2.0585 -0.2244 -0.5379
27801SOL     OW85940   3.364   5.236   5.248  0.1236 -0.1762 -0.5584
27801SOL    HW185941   3.330   5.165   5.301 -1.5582  1.2072  0.2711
27801SOL    HW285942   3.419   5.193   5.182  0.7000 -2.0568  1.1140
27802SOL     OW85943   4.997   9.347   2.637  0.5144 -0.2132  0.6213
27802SOL    HW185944   4.915   9.306   2.665  0.3404  0.3756  0.9635
27802SOL    HW285945   5.010   9.421   2.696 -0.3471  1.6143 -1.3802
27803SOL     OW85946   0.470   6.896   1.929 -0.3561  0.5529  0.4105
27803SOL    HW185947   0.402   6.938   1.876 -1.7519 -2.5497 -0.4232
27803SOL    HW285948   0.423   6.860   2.004  0.6592  0.0019  0.7901
27804SOL     OW85949   3.677   7.562   9.172 -0.4411  0.0905 -0.3238
27804SOL    HW185950   3.710   7.651   9.158  0.3380 -0.4079 -1.8564
27804SOL    HW285951   3.746   7.519   9.222  0.5866 -0.4989 -2.1855
27805SOL     OW85952   8.686   5.141   0.143 -0.5686  0.3209  0.3624
27805SOL    HW185953   8.617   5.177   0.087 -0.8706  0.2221  0.6703
27805SOL    HW285954   8.733   5.217   0.176  0.0123  0.3546 -0.5341
27806SOL     OW85955   2.632   7.821   2.070 -0.2597  0.2806  0.2232
27806SOL    HW185956   2.636   7.738   2.117 -1.6846  0.6317  1.0106
27806SOL    HW285957   2.688   7.809   1.993  1.6719 -0.5012  1.7023
27807SOL     OW85958   6.422   7.924   7.646  0.0865  0.2036 -0.1918
27807SOL    HW185959   6.458   7.934   7.734 -0.6467  0.7089  0.0548
27807SOL    HW285960   6.328   7.938   7.657 -0.1020 -0.4885 -0.9315
27808SOL     OW85961   7.581   4.904   9.584 -0.0454  0.1502 -0.2586
27808SOL    HW185962   7.665   4.947   9.572 -0.0926 -0.0669 -1.4101
27808SOL    HW285963   7.519   4.976   9.597  0.6258  0.2476  2.7808
27809SOL     OW85964   6.502   2.008   3.447  0.1952  0.4476 -0.1571
27809SOL    HW185965   6.581   1.993   3.500 -0.2643 -0.8603  0.1926
27809SOL    HW285966   6.529   1.991   3.357  0.3209 -0.0288 -0.0326
27810SOL     OW85967   5.393   9.699   2.175 -0.9516  0.3014  0.0464
27810SOL    HW185968   5.396   9.791   2.199  0.1170  0.8626 -2.1480
27810SOL    HW285969   5.409   9.697   2.081 -1.9020 -2.0624 -0.1216
27811SOL     OW85970   6.726   8.506   1.770 -0.1308 -0.0129 -0.4954
27811SOL    HW185971   6.674   8.520   1.850  1.2751  1.3365  0.2189
27811SOL    HW285972   6.697   8.575   1.710  1.1596  1.0819  0.0997
27812SOL     OW85973   6.517   6.835   5.086 -0.1988 -0.3525 -0.0778
27812SOL    HW185974   6.555   6.759   5.130  0.0025 -0.2647 -0.0992
27812SOL    HW285975   6.474   6.884   5.156 -1.0777 -0.9410 -0.2060
27813SOL     OW85976   5.135   0.383   7.954  0.1306 -0.4216 -0.2267
27813SOL    HW185977   5.188   0.459   7.980 -1.9956  0.2906  2.1771
27813SOL    HW285978   5.163   0.313   8.013  0.5928 -0.9462 -1.0503
27814SOL     OW85979   5.525   8.057   6.589  0.1229 -0.1537  0.2987
27814SOL    HW185980   5.455   8.051   6.653  0.1150 -1.3079  0.1902
27814SOL    HW285981   5.588   8.118   6.628 -0.8992  0.8385  0.4182
27815SOL     OW85982   8.609   6.081   1.640 -0.0949 -0.1628 -0.0057
27815SOL    HW185983   8.608   6.176   1.653 -0.7119 -0.0992 -0.5283
27815SOL    HW285984   8.523   6.051   1.671  0.1311 -0.5646  0.2450
27816SOL     OW85985   9.262   1.110   3.430  0.3268  0.3318 -0.3340
27816SOL    HW185986   9.203   1.036   3.444 -0.5524  0.9983 -0.4336
27816SOL    HW285987   9.295   1.131   3.517 -0.1191  0.3893 -0.1773
27817SOL     OW85988   9.142   6.985   7.790  0.2117 -0.3803  0.3967
27817SOL    HW185989   9.049   6.977   7.771 -0.1157  1.2865  1.2539
27817SOL    HW285990   9.161   7.078   7.778  1.8571 -0.7631 -0.1534
27818SOL     OW85991   8.966   0.371   2.402 -0.2250 -0.3775 -0.4608
27818SOL    HW185992   8.940   0.293   2.353  0.5302  0.1388 -1.6999
27818SOL    HW285993   9.018   0.336   2.475 -2.0936 -1.2062  0.5194
27819SOL     OW85994   9.064   3.703   4.078  0.3069  0.1888  0.1113
27819SOL    HW185995   9.018   3.645   4.018  0.0263  0.0458  0.4658
27819SOL    HW285996   8.999   3.726   4.144 -0.3616  2.9209 -1.4000
27820SOL     OW85997   3.246  10.088   8.840  0.3617  0.1267  0.0013
27820SOL    HW185998   3.238  10.108   8.746  2.2185  0.5879 -0.0714
27820SOL    HW285999   3.180  10.020   8.855  0.3542 -0.2858 -1.7492
27821SOL     OW86000   6.631   9.449   7.173  0.7250  0.2168 -0.4699
27821SOL    HW186001   6.692   9.418   7.240  1.3384  2.6596  0.1260
27821SOL    HW286002   6.677   9.520   7.129  0.0012 -0.7581 -2.9576
27822SOL     OW86003   4.518   4.467   2.664 -0.4998  0.2301 -0.4061
27822SOL    HW186004   4.496   4.506   2.580 -0.9098 -0.4439 -0.6184
27822SOL    HW286005   4.449   4.497   2.723  0.9912  2.4961  0.2370
27823SOL     OW86006   0.139   5.505   7.316  0.5958 -0.0939 -0.1289
27823SOL    HW186007   0.157   5.508   7.222  0.4266  1.1580 -0.1298
27823SOL    HW286008   0.156   5.594   7.347  2.8108 -1.0006  1.4401
27824SOL     OW86009   0.162   7.729   3.101  0.3833 -0.3542  0.1929
27824SOL    HW186010   0.220   7.751   3.174  0.5710 -0.0757 -0.0391
27824SOL    HW286011   0.219   7.723   3.025  0.3803 -1.9964  0.3090
27825SOL     OW86012   4.268   9.025   8.697 -0.5418 -0.2887 -0.5872
27825SOL    HW186013   4.329   9.030   8.623  0.5684  2.3638  0.4312
27825SOL    HW286014   4.190   8.983   8.661  0.1768  0.4664 -3.1419
27826SOL     OW86015   7.540   7.948   3.758  0.2169  0.5041 -0.5927
27826SOL    HW186016   7.466   8.005   3.736  0.5424  0.8738 -0.7538
27826SOL    HW286017   7.515   7.907   3.841 -0.5332 -0.0308 -1.0834
27827SOL     OW86018   2.373   9.015   6.974 -0.3547  0.2146 -0.5071
27827SOL    HW186019   2.442   8.949   6.977 -0.1673  0.3073 -2.3978
27827SOL    HW286020   2.298   8.973   7.017  0.2940 -0.5954 -0.1600
27828SOL     OW86021   4.173   6.985   2.467 -0.0470  0.0072 -0.2486
27828SOL    HW186022   4.191   6.967   2.375  1.4628 -1.0077  0.2349
27828SOL    HW286023   4.158   7.079   2.470  0.8989  0.2076 -1.3803
27829SOL     OW86024   2.842   2.749   6.334  0.1982  0.2283 -0.0606
27829SOL    HW186025   2.837   2.656   6.310  0.1396 -0.1207  1.2383
27829SOL    HW286026   2.897   2.750   6.412 -2.1768  0.9383  1.6628
27830SOL     OW86027   3.365   6.940   2.225  0.1964  0.1491  0.6448
27830SOL    HW186028   3.294   6.990   2.264  0.6572  1.1826  0.1888
27830SOL    HW286029   3.427   6.926   2.296  0.4428  0.9256  0.5803
27831SOL     OW86030   4.147   0.669   9.166 -0.1861  0.0596  0.4405
27831SOL    HW186031   4.185   0.602   9.223  0.7652 -0.8670 -1.2489
27831SOL    HW286032   4.054   0.669   9.188  0.0894 -0.6323  1.6494
27832SOL     OW86033   0.975   2.435   4.458  0.1842 -0.2201  0.3796
27832SOL    HW186034   0.929   2.496   4.401  0.5166 -0.0329  0.3104
27832SOL    HW286035   0.935   2.350   4.440 -0.7287  0.0784  0.9514
27833SOL     OW86036   0.287   7.429   2.533  0.0241 -0.0438 -0.0186
27833SOL    HW186037   0.301   7.423   2.628 -0.6628 -3.0396 -0.0460
27833SOL    HW286038   0.343   7.501   2.505  0.2293  0.9249  2.6543
27834SOL     OW86039   9.369   0.550   3.667 -0.5667 -0.0519 -0.0311
27834SOL    HW186040   9.394   0.553   3.759  1.5683 -0.6439 -0.5548
27834SOL    HW286041   9.434   0.492   3.626 -0.9781  0.8426 -2.0388
27835SOL     OW86042   1.544   0.470   5.842 -0.1023 -0.0540  0.2571
27835SOL    HW186043   1.524   0.420   5.921  0.5691  0.3869  0.7120
27835SOL    HW286044   1.632   0.442   5.818  0.5634  1.4188  0.9174
27836SOL     OW86045   8.242   6.141   6.114 -0.0049  0.1578  0.2915
27836SOL    HW186046   8.195   6.200   6.173  0.9972 -0.9134  2.2195
27836SOL    HW286047   8.331   6.138   6.149  0.8277  0.1414 -1.7908
27837SOL     OW86048   6.651   6.844   4.849  0.3361  0.3712 -0.2428
27837SOL    HW186049   6.601   6.814   4.773  2.2484 -2.2877 -0.5363
27837SOL    HW286050   6.585   6.860   4.916 -1.1111 -0.5954 -1.4078
27838SOL     OW86051   0.024   8.834   2.160 -0.3881 -0.0797 -0.5761
27838SOL    HW186052   0.090   8.818   2.093  0.1542 -2.0407  0.3952
27838SOL    HW286053  -0.023   8.751   2.168 -1.2416  0.5034  0.6170
27839SOL     OW86054   6.762   3.492   5.575 -0.2481  0.7344  0.3647
27839SOL    HW186055   6.786   3.411   5.530 -2.2433  0.0919  0.3834
27839SOL    HW286056   6.772   3.560   5.509 -0.0474  0.2422 -0.1159
27840SOL     OW86057   1.428   0.676   1.264 -0.5076 -0.3513 -0.3000
27840SOL    HW186058   1.411   0.726   1.344 -0.5213  0.2482 -0.6715
27840SOL    HW286059   1.437   0.585   1.293  1.8937  0.1751  0.7191
27841SOL     OW86060   9.336   1.224   7.988 -0.0459  0.4427  0.0007
27841SOL    HW186061   9.405   1.233   8.053 -1.8627 -0.5331  2.1245
27841SOL    HW286062   9.305   1.313   7.972  2.1304  0.9731 -1.5181
27842SOL     OW86063   5.698   5.945   9.605 -0.3570  0.3250  0.2732
27842SOL    HW186064   5.726   5.931   9.514  0.0661 -0.6189  0.5445
27842SOL    HW286065   5.651   6.028   9.603 -0.2608  0.3591 -0.7944
27843SOL     OW86066   4.684   9.240   6.725  0.3570 -0.2255 -0.3218
27843SOL    HW186067   4.729   9.157   6.715 -0.3081 -0.3099 -2.8887
27843SOL    HW286068   4.751   9.306   6.709  1.0318 -0.2126  2.3351
27844SOL     OW86069   2.685   0.969   0.307 -0.0659  0.1085  0.0908
27844SOL    HW186070   2.738   0.988   0.385 -0.2252 -0.3552  0.3193
27844SOL    HW286071   2.606   1.022   0.317  1.2560  2.4245 -1.2931
27845SOL     OW86072   2.647   7.311   7.435 -0.7451  0.1309  0.1572
27845SOL    HW186073   2.650   7.286   7.343 -2.0189  0.2845  0.0645
27845SOL    HW286074   2.562   7.353   7.446 -1.3288 -1.4069  1.7789
27846SOL     OW86075   2.666   5.870   5.541  0.8168  0.1167  0.6166
27846SOL    HW186076   2.716   5.920   5.476  2.3362 -1.1533  0.7774
27846SOL    HW286077   2.645   5.933   5.610 -0.1278  1.2859 -0.7155
27847SOL     OW86078   8.925   8.426   4.712 -0.2328  0.0448 -0.3731
27847SOL    HW186079   8.926   8.521   4.724  0.5496  0.0085 -0.1055
27847SOL    HW286080   8.863   8.394   4.777  0.8902  0.2168  0.8097
27848SOL     OW86081   5.150  10.088   4.408 -1.0255 -0.7401 -0.3769
27848SOL    HW186082   5.178  10.157   4.468 -0.9122  0.2376 -1.5357
27848SOL    HW286083   5.122  10.016   4.465  0.2176 -0.2810  0.8281
27849SOL     OW86084   5.118   2.155   3.276 -0.0633 -0.5135  0.3548
27849SOL    HW186085   5.095   2.207   3.199  0.6613  1.0770  1.1784
27849SOL    HW286086   5.044   2.168   3.336  0.3455 -0.0050  0.7577
27850SOL     OW86087   7.293   3.697   5.269  0.0272 -0.3735 -0.0393
27850SOL    HW186088   7.310   3.664   5.181  1.5154 -1.5364  0.6683
27850SOL    HW286089   7.356   3.767   5.281  0.3296 -0.7133  0.3719
27851SOL     OW86090   0.254   8.103   2.717 -0.1080  0.9332 -0.2003
27851SOL    HW186091   0.180   8.159   2.692 -0.8043 -0.0361 -0.3660
27851SOL    HW286092   0.278   8.058   2.636 -0.3009  0.1516  0.1705
27852SOL     OW86093   9.881   3.789   8.613 -0.0497  0.6555  0.1868
27852SOL    HW186094   9.916   3.864   8.663 -0.1291 -0.1451  1.4735
27852SOL    HW286095   9.914   3.712   8.660 -1.0211 -0.1158 -0.3810
27853SOL     OW86096   6.942   4.866   0.031  0.0513  0.4189 -0.2560
27853SOL    HW186097   6.867   4.820   0.069 -1.1053  0.5154 -2.3240
27853SOL    HW286098   6.917   4.958   0.033  0.8435  0.6222  0.5823
27854SOL     OW86099   3.226   7.162   3.897  0.4173  0.2303  0.3954
27854SOL    HW186100   3.166   7.209   3.839  1.1745  0.5503 -0.1320
27854SOL    HW286101   3.313   7.183   3.864  0.7994 -0.9019  0.6439
27855SOL     OW86102   6.871  10.087   7.467  0.4700 -0.1781  0.0648
27855SOL    HW186103   6.804  10.019   7.472  1.2413 -0.8448  1.3581
27855SOL    HW286104   6.825  10.167   7.492 -0.3159 -0.2923 -0.9636
27856SOL     OW86105   3.655  10.029   3.683 -0.0826 -0.0797 -0.6337
27856SOL    HW186106   3.706   9.948   3.689  1.5691  0.8700 -1.4601
27856SOL    HW286107   3.586  10.019   3.748  0.9261 -1.5614  0.2385
27857SOL     OW86108   6.916   7.033   6.526  0.1433 -0.5288  0.8228
27857SOL    HW186109   6.951   7.121   6.508 -0.7052 -0.2954  0.2865
27857SOL    HW286110   6.965   7.004   6.603  0.7234  0.2476  0.7609
27858SOL     OW86111   8.571  10.188   1.132 -0.5200  0.2579  0.2272
27858SOL    HW186112   8.637  10.256   1.114  0.4371 -0.5838  0.5618
27858SOL    HW286113   8.528  10.175   1.047  1.0928 -0.6141 -0.4800
27859SOL     OW86114   8.988   7.429   8.826 -0.4978  0.3054 -0.1362
27859SOL    HW186115   9.081   7.448   8.841 -0.7683  0.1818  1.8709
27859SOL    HW286116   8.953   7.510   8.791  0.1027  0.8165  0.4191
27860SOL     OW86117   6.507   1.013   0.265 -0.5797  0.2847  0.3593
27860SOL    HW186118   6.546   1.098   0.282  0.3707 -0.4176  1.8095
27860SOL    HW286119   6.416   1.032   0.241 -0.5595  1.6657  1.3467
27861SOL     OW86120   9.461   0.263   0.626  0.2138  0.1719 -0.2241
27861SOL    HW186121   9.408   0.185   0.613 -1.0694  0.7810  1.1704
27861SOL    HW286122   9.402   0.336   0.609  0.7548  0.8498  0.7080
27862SOL     OW86123   0.294   0.951   8.588 -0.0298 -0.3377 -0.3345
27862SOL    HW186124   0.344   1.021   8.547  1.2870 -1.9368 -1.5406
27862SOL    HW286125   0.205   0.985   8.595  0.6278  1.4979 -0.7464
27863SOL     OW86126   7.727   1.350   7.653  0.0130  0.0851  0.1294
27863SOL    HW186127   7.683   1.346   7.738 -1.6466  0.1041 -0.7049
27863SOL    HW286128   7.667   1.401   7.598  0.8264 -0.3709 -1.1902
27864SOL     OW86129  10.067   1.390   8.068 -0.0581  0.4735 -0.3661
27864SOL    HW186130  10.123   1.454   8.023  0.0256 -0.2285 -1.2658
27864SOL    HW286131  10.051   1.322   8.003 -1.8874  0.6188 -0.0897
27865SOL     OW86132   7.385   5.886   1.714  0.9926 -0.8510  0.0554
27865SOL    HW186133   7.294   5.869   1.739  1.1303 -1.9575 -0.1466
27865SOL    HW286134   7.424   5.799   1.707  2.3404 -0.3392  1.1271
27866SOL     OW86135   2.271   4.164   9.027  0.2446  0.3128  0.8369
27866SOL    HW186136   2.216   4.164   8.949  0.4195 -1.6464  0.6823
27866SOL    HW286137   2.244   4.241   9.076 -0.2392  1.2732 -0.8974
27867SOL     OW86138   4.953   7.823   5.361  0.0339 -0.1476 -0.3166
27867SOL    HW186139   4.909   7.902   5.330 -0.6372 -0.2464  0.3957
27867SOL    HW286140   5.035   7.820   5.310  0.9979  2.0763  1.0513
27868SOL     OW86141   9.552   5.845   1.150  0.3935 -0.2078  0.2383
27868SOL    HW186142   9.554   5.894   1.068  1.3634 -1.1088 -0.2895
27868SOL    HW286143   9.549   5.753   1.124 -1.6812 -0.4506  1.2239
27869SOL     OW86144   2.373   1.068   7.469 -0.4373 -0.0964  0.2580
27869SOL    HW186145   2.310   1.104   7.532 -0.1464 -2.5608  2.0561
27869SOL    HW286146   2.405   0.988   7.511  1.0664 -0.8945 -2.3007
27870SOL     OW86147   3.261   9.850   2.813  0.1523  0.0887  0.0521
27870SOL    HW186148   3.300   9.822   2.895 -0.3228 -0.9884 -0.0869
27870SOL    HW286149   3.231   9.769   2.771 -0.4062  0.7074 -0.7687
27871SOL     OW86150   4.226   1.300   4.111 -0.5329  0.9636 -0.3406
27871SOL    HW186151   4.260   1.382   4.146 -0.8063  0.9524 -0.0388
27871SOL    HW286152   4.251   1.234   4.176 -0.1653  0.7816 -0.6656
27872SOL     OW86153   0.415   4.998   7.273 -0.6014 -0.0463 -1.2521
27872SOL    HW186154   0.335   5.022   7.226  0.2193  1.8856 -1.7147
27872SOL    HW286155   0.486   5.022   7.213  0.3904  0.4896  0.1065
27873SOL     OW86156   1.725   0.044   6.710 -0.1825  0.4925  0.1119
27873SOL    HW186157   1.754  -0.025   6.770 -0.9529 -0.8014 -0.9454
27873SOL    HW286158   1.632   0.056   6.731 -0.5512 -0.2332 -1.0355
27874SOL     OW86159   6.225   6.381   9.655  0.0361  0.0755 -0.4433
27874SOL    HW186160   6.159   6.395   9.724  0.7279  0.6192  0.1091
27874SOL    HW286161   6.175   6.388   9.573 -1.1686 -2.4849  0.0162
27875SOL     OW86162   6.727   4.686   6.704  0.3365 -0.6525  0.6446
27875SOL    HW186163   6.793   4.754   6.690  0.4667 -1.0276 -0.6002
27875SOL    HW286164   6.778   4.609   6.729  0.1776 -0.2648  2.2437
27876SOL     OW86165   9.615   6.108   7.304  0.1847  0.0137  0.4634
27876SOL    HW186166   9.612   6.019   7.270 -2.0493  0.5846 -0.9439
27876SOL    HW286167   9.571   6.102   7.389  1.7692 -0.5561  1.2723
27877SOL     OW86168   0.141   4.103   7.855  0.1417 -0.5271  0.5745
27877SOL    HW186169   0.197   4.180   7.868 -0.1896 -0.0826 -0.5497
27877SOL    HW286170   0.182   4.055   7.783 -0.0990 -0.9688  0.7306
27878SOL     OW86171   7.482   1.598   4.638 -0.0030 -0.3075 -0.5811
27878SOL    HW186172   7.576   1.582   4.639 -0.1428 -1.0978  0.1092
27878SOL    HW286173   7.443   1.514   4.614 -0.5246  0.0757 -1.1003
27879SOL     OW86174   3.995   4.738   5.807  0.0418 -0.3300 -0.0494
27879SOL    HW186175   4.032   4.742   5.895 -0.3603 -2.3613  0.2326
27879SOL    HW286176   4.040   4.665   5.766  0.3707  0.7359 -1.6141
27880SOL     OW86177   2.261   1.838   3.707  0.2206  0.4254  0.0367
27880SOL    HW186178   2.272   1.744   3.724  0.0313  0.1745 -1.2067
27880SOL    HW286179   2.166   1.850   3.699  0.3381  0.4158 -1.4914
27881SOL     OW86180   3.030   7.749   5.063  0.4589 -0.7072  0.6122
27881SOL    HW186181   3.077   7.802   5.127  0.1216 -2.0568  2.0087
27881SOL    HW286182   2.984   7.683   5.115 -1.8913 -0.2724 -0.8385
27882SOL     OW86183   7.616   0.519   5.980 -0.4879 -0.8653  0.0428
27882SOL    HW186184   7.709   0.497   5.979 -0.0068  1.0792 -0.1715
27882SOL    HW286185   7.602   0.559   6.066 -0.5332  1.1338 -0.8598
27883SOL     OW86186   6.826   7.915   4.873  0.1379  0.0923  0.3446
27883SOL    HW186187   6.890   7.931   4.943  2.2448 -2.6503 -0.8475
27883SOL    HW286188   6.861   7.962   4.798 -0.2621  0.1668  0.2060
27884SOL     OW86189   0.671   7.002   8.635  0.5591 -0.5413  0.6902
27884SOL    HW186190   0.649   7.020   8.727  0.5436  0.8110  0.4340
27884SOL    HW286191   0.754   7.048   8.621  1.6778 -2.5033  0.5995
27885SOL     OW86192   0.749   6.693   2.989 -0.5812  0.0774  0.0149
27885SOL    HW186193   0.741   6.616   3.045 -0.4068  0.3110  0.3598
27885SOL    HW286194   0.793   6.758   3.043 -1.7155  0.7943  0.0935
27886SOL     OW86195  10.011   4.921   0.851  0.3189 -0.0279  0.8256
27886SOL    HW186196   9.921   4.891   0.870  0.4774 -0.4063  0.9804
27886SOL    HW286197  10.003   4.965   0.766  0.0524 -0.3978  0.6526
27887SOL     OW86198   8.032   6.373   2.493  0.3605  0.9210  0.1935
27887SOL    HW186199   7.937   6.378   2.500  0.4537  0.7732  1.7597
27887SOL    HW286200   8.048   6.292   2.445 -0.2968  0.8054  0.1665
27888SOL     OW86201   2.347   6.269   2.352 -0.4419 -0.0133 -0.4239
27888SOL    HW186202   2.360   6.225   2.268 -0.2737 -1.2550  0.2370
27888SOL    HW286203   2.421   6.240   2.406 -1.0227  0.0785  0.4276
27889SOL     OW86204   4.379   0.704   3.097 -0.0158 -0.2527 -0.0890
27889SOL    HW186205   4.447   0.761   3.133  0.2496 -1.2583  1.0318
27889SOL    HW286206   4.301   0.723   3.151 -0.7906  1.2858 -1.7090
27890SOL     OW86207   8.868   1.439   0.487  0.0106  0.1760 -0.1472
27890SOL    HW186208   8.880   1.360   0.435 -2.7555 -1.1543  1.0910
27890SOL    HW286209   8.846   1.507   0.423 -0.6037 -0.7869 -0.9840
27891SOL     OW86210   9.376   6.694   2.724  0.7577 -0.4214  0.2297
27891SOL    HW186211   9.314   6.748   2.675 -1.9371 -0.3918  3.4972
27891SOL    HW286212   9.384   6.613   2.672  0.3311  0.7397 -1.7063
27892SOL     OW86213   4.246   5.789   0.479 -0.3863  0.2946  0.1401
27892SOL    HW186214   4.337   5.787   0.449 -0.8742 -1.9295 -1.3799
27892SOL    HW286215   4.252   5.811   0.572  1.6523  0.8376 -0.0854
27893SOL     OW86216   0.238   4.213   2.432 -0.3015 -0.0762  0.6047
27893SOL    HW186217   0.183   4.269   2.486 -1.6195 -0.4089 -0.3718
27893SOL    HW286218   0.204   4.125   2.445 -2.3431  0.1381 -2.7251
27894SOL     OW86219   3.189   1.285   5.807  0.5239 -0.2521 -0.6248
27894SOL    HW186220   3.135   1.293   5.728 -1.1948  0.5635  0.6126
27894SOL    HW286221   3.248   1.212   5.789 -1.4741 -1.6154 -1.7180
27895SOL     OW86222   5.701   7.705   6.524 -0.0463 -0.6595 -0.3084
27895SOL    HW186223   5.689   7.630   6.467  0.2938 -0.4653 -0.6321
27895SOL    HW286224   5.613   7.724   6.557  0.0650 -2.0105  0.8057
27896SOL     OW86225   6.900   9.729   1.600 -0.3251 -0.0781  0.3520
27896SOL    HW186226   6.827   9.667   1.603 -2.9095  2.7546 -1.2187
27896SOL    HW286227   6.922   9.744   1.692 -1.4750 -1.2251  0.8367
27897SOL     OW86228   3.978   4.442   1.367  0.3812  0.4796 -0.1453
27897SOL    HW186229   3.993   4.391   1.288  1.1377  0.1886  0.1862
27897SOL    HW286230   3.895   4.487   1.351 -0.3311 -0.9005 -0.4051
27898SOL     OW86231   6.399   0.931   6.299  0.3579 -0.3534 -0.0742
27898SOL    HW186232   6.408   0.875   6.376 -0.0319  0.0649  0.2779
27898SOL    HW286233   6.463   1.000   6.312 -1.3510  1.0658  1.0652
27899SOL     OW86234   0.172   5.569   9.563 -0.1043 -0.3954  0.4045
27899SOL    HW186235   0.139   5.603   9.647  2.7228 -0.0168  1.3917
27899SOL    HW286236   0.171   5.645   9.505  0.8534  0.0542  0.9780
27900SOL     OW86237   8.918   8.902   0.263  0.4528  0.7710  0.7819
27900SOL    HW186238   8.839   8.879   0.215  2.2149 -3.0427 -0.4160
27900SOL    HW286239   8.932   8.995   0.242 -1.4211  0.4341 -2.1986
27901SOL     OW86240   3.358   1.335   0.865 -0.3255 -0.0214 -0.0515
27901SOL    HW186241   3.441   1.337   0.817 -0.5391 -1.8842 -0.5584
27901SOL    HW286242   3.294   1.370   0.803 -0.1773 -0.0293 -0.2106
27902SOL     OW86243   1.651   4.005   8.191 -0.0204  0.3263 -0.1009
27902SOL    HW186244   1.658   3.915   8.158 -0.7852  0.0444  0.4963
27902SOL    HW286245   1.584   4.001   8.258 -0.1570  1.3806 -0.1648
27903SOL     OW86246   4.546   4.941   6.981  0.3286  0.1657 -0.0400
27903SOL    HW186247   4.559   5.035   6.992 -1.8821  0.5611 -0.5229
27903SOL    HW286248   4.523   4.910   7.069  1.0779  0.0709  0.1234
27904SOL     OW86249   2.478   7.510   0.737  0.2122  0.3290  0.0303
27904SOL    HW186250   2.463   7.604   0.746 -1.8033 -0.0953  1.3729
27904SOL    HW286251   2.540   7.502   0.663 -2.3094  2.5007 -2.4127
27905SOL     OW86252   3.791   2.828   5.833  0.2633  0.5375  0.1004
27905SOL    HW186253   3.747   2.826   5.748 -0.4460 -1.6458  0.4815
27905SOL    HW286254   3.884   2.843   5.812 -0.0512  0.9905 -0.9828
27906SOL     OW86255   0.580   2.860   2.407 -0.3864  0.1411 -0.3490
27906SOL    HW186256   0.524   2.790   2.373  0.4360  0.8381 -3.2744
27906SOL    HW286257   0.530   2.940   2.390  0.9612  0.6751 -1.9880
27907SOL     OW86258   0.211   6.012   4.289 -0.4778  0.2965  0.5141
27907SOL    HW186259   0.232   6.026   4.381  0.6592  2.9963 -0.1161
27907SOL    HW286260   0.116   6.005   4.287 -0.6298  1.7648  1.7220
27908SOL     OW86261  10.068   6.639   9.293 -0.3737  0.3271 -0.0934
27908SOL    HW186262   9.994   6.629   9.353 -0.2356  1.6430  0.3023
27908SOL    HW286263  10.138   6.587   9.333 -0.6676  0.1693  0.2194
27909SOL     OW86264   3.253   6.204   7.986 -0.0092 -0.6843 -0.0019
27909SOL    HW186265   3.230   6.172   8.074  1.3150  0.0956  0.6405
27909SOL    HW286266   3.346   6.223   7.991 -0.5347  2.3314 -0.6537
27910SOL     OW86267   6.469   3.198   1.251  0.0841  0.7672  0.0312
27910SOL    HW186268   6.407   3.128   1.272  0.8835 -1.0287 -3.2046
27910SOL    HW286269   6.554   3.155   1.250  0.8064  2.1890 -0.2651
27911SOL     OW86270   7.649   9.492   8.688  0.1609 -0.6800 -0.0835
27911SOL    HW186271   7.669   9.401   8.665 -0.1197 -0.8200  0.2402
27911SOL    HW286272   7.593   9.523   8.616  0.7351 -0.5828 -0.4954
27912SOL     OW86273   8.019   2.741   1.881  0.3329  0.1124 -0.3157
27912SOL    HW186274   8.071   2.722   1.959 -0.5816  0.0829  0.3086
27912SOL    HW286275   7.942   2.788   1.916  0.0135  0.2658 -1.2232
27913SOL     OW86276   8.802   5.240   0.571  0.2748 -0.1706  0.4484
27913SOL    HW186277   8.782   5.177   0.501 -0.1430 -0.1167  0.5188
27913SOL    HW286278   8.845   5.312   0.526 -2.7008  1.2645 -0.2493
27914SOL     OW86279   1.461   5.800   8.483 -0.4502  0.1189 -0.2906
27914SOL    HW186280   1.464   5.727   8.421 -1.9141 -0.9560  0.8750
27914SOL    HW286281   1.409   5.767   8.556 -0.6794  2.1583  0.4865
27915SOL     OW86282   7.632  10.039  10.169  0.2925 -0.4023  0.6289
27915SOL    HW186283   7.536  10.036  10.167  0.3817 -2.3640 -1.9015
27915SOL    HW286284   7.653  10.132  10.175 -1.7600  0.2701 -1.8733
27916SOL     OW86285   6.230   1.518   4.981  0.6441 -0.2403  0.6398
27916SOL    HW186286   6.318   1.542   4.955  0.1913  1.1991  0.3792
27916SOL    HW286287   6.238   1.428   5.014  2.2458 -0.0177  0.8899
27917SOL     OW86288   4.069   7.368   2.871 -0.2717 -0.4424  0.3889
27917SOL    HW186289   4.030   7.282   2.857  0.0738 -0.4644 -0.4629
27917SOL    HW286290   4.124   7.357   2.949 -2.3114 -0.2745  1.8994
27918SOL     OW86291   7.111   5.296   0.068 -0.0441  0.3266 -0.0318
27918SOL    HW186292   7.179   5.243   0.111 -0.7468 -0.1126  0.5444
27918SOL    HW286293   7.159   5.349   0.005  0.6143 -1.3617 -0.9839
27919SOL     OW86294   2.119   2.167   7.715 -0.2517  0.4221  0.4155
27919SOL    HW186295   2.141   2.250   7.673  3.4135 -1.7073 -2.1257
27919SOL    HW286296   2.196   2.145   7.767 -1.4321 -1.1065  1.5728
27920SOL     OW86297   7.211   1.285   8.940  0.2327 -0.2400  0.1242
27920SOL    HW186298   7.123   1.250   8.954 -0.9846  1.2914 -3.1438
27920SOL    HW286299   7.252   1.222   8.880 -0.1650  1.2039 -1.7051
27921SOL     OW86300   9.719   5.890   5.176 -0.2254 -0.8665  0.3095
27921SOL    HW186301   9.772   5.916   5.101 -0.8616  0.6454  0.3553
27921SOL    HW286302   9.751   5.804   5.200  1.4960 -0.4143 -0.3212
27922SOL     OW86303   4.867   5.023   0.911 -0.2630 -0.0774 -0.6253
27922SOL    HW186304   4.875   5.077   0.989  0.3710 -0.1925 -0.6063
27922SOL    HW286305   4.797   4.961   0.932  1.5154 -1.6453  0.7678
27923SOL     OW86306   9.594   3.477   7.278 -0.1208  0.2995  0.2737
27923SOL    HW186307   9.539   3.555   7.281 -0.5713 -0.0099  0.1975
27923SOL    HW286308   9.683   3.510   7.276 -0.3444  0.8628 -1.6122
27924SOL     OW86309   8.449   3.991   8.377  0.5183  0.4899 -0.1914
27924SOL    HW186310   8.426   3.999   8.470  0.6229 -0.1330 -0.1085
27924SOL    HW286311   8.398   3.915   8.347  0.5932  0.6043 -0.6068
27925SOL     OW86312   5.425   1.279   2.043 -0.2451  0.0287 -0.1093
27925SOL    HW186313   5.452   1.198   1.999 -1.4807  1.0427 -2.8036
27925SOL    HW286314   5.500   1.338   2.034 -0.1901 -0.0424 -0.1160
27926SOL     OW86315   9.194   1.625   1.690 -0.6456  0.0828 -0.5725
27926SOL    HW186316   9.149   1.665   1.616  0.8531  0.1797 -1.4602
27926SOL    HW286317   9.287   1.625   1.665 -0.1102  0.0832  1.2864
27927SOL     OW86318   3.433   0.957   8.297 -0.4814 -0.2360  0.1815
27927SOL    HW186319   3.454   0.956   8.390  0.3203  1.8901  0.0369
27927SOL    HW286320   3.382   0.877   8.283  1.4593 -1.8385  1.9536
27928SOL     OW86321   2.147   9.826   1.872 -0.1394 -0.9163 -0.0837
27928SOL    HW186322   2.056   9.800   1.862 -0.1750 -1.2427  0.9858
27928SOL    HW286323   2.145   9.891   1.942  0.4755 -1.0864  0.0950
27929SOL     OW86324   6.085   9.477   8.111  0.0835 -0.0873 -0.1554
27929SOL    HW186325   6.102   9.502   8.202 -0.4786  0.7810 -0.2860
27929SOL    HW286326   6.068   9.383   8.115  1.9499 -0.4400  0.3733
27930SOL     OW86327  10.007   2.603   8.360  0.2193 -0.0709  0.5692
27930SOL    HW186328  10.029   2.513   8.339  2.0497  0.9543 -2.1756
27930SOL    HW286329   9.920   2.617   8.322  1.0017  0.0467 -1.1743
27931SOL     OW86330   2.975   2.642   3.704 -0.1508 -0.4669  0.0867
27931SOL    HW186331   2.932   2.723   3.675 -0.5310 -0.8179 -0.3462
27931SOL    HW286332   2.916   2.572   3.674 -0.5392 -0.8418  1.7098
27932SOL     OW86333   3.378   1.012   4.819  0.2162 -0.1893 -0.3469
27932SOL    HW186334   3.451   1.072   4.831  0.3102 -0.7843  2.3309
27932SOL    HW286335   3.418   0.925   4.824 -0.4676 -0.5048 -0.3009
27933SOL     OW86336   4.385  10.150   7.868 -0.2236  0.0494  0.1767
27933SOL    HW186337   4.317  10.101   7.914 -0.5562  0.9852  0.6984
27933SOL    HW286338   4.378  10.121   7.777 -1.8139  0.6710  0.0811
27934SOL     OW86339   8.604   9.309   0.978  0.5203  0.1157  0.2156
27934SOL    HW186340   8.659   9.305   1.057 -1.2480 -0.1751  1.4765
27934SOL    HW286341   8.640   9.241   0.921  3.7539  2.3725 -0.5561
27935SOL     OW86342   9.735   8.791   7.511  0.4999 -0.2455 -0.3613
27935SOL    HW186343   9.815   8.742   7.528  1.4770  1.0148 -1.2576
27935SOL    HW286344   9.761   8.860   7.450 -1.1654  0.4765 -0.2924
27936SOL     OW86345   9.337   2.051   3.397  0.4618  0.1550 -0.5928
27936SOL    HW186346   9.354   2.040   3.490 -0.2940  0.1373 -0.4574
27936SOL    HW286347   9.389   2.128   3.372 -0.6345  1.1605  0.1988
27937SOL     OW86348   3.011   5.745   0.653  0.4521  0.2732  0.1332
27937SOL    HW186349   3.036   5.735   0.745  0.5202 -3.7703 -0.2481
27937SOL    HW286350   2.923   5.708   0.648  0.3811  0.6134 -1.4270
27938SOL     OW86351   2.488   6.872   1.914 -0.3569  0.8261 -0.2030
27938SOL    HW186352   2.470   6.873   1.820  0.3072  1.7918 -0.3217
27938SOL    HW286353   2.551   6.801   1.925  0.4741  1.4904 -0.6563
27939SOL     OW86354   9.427  10.023   5.701  0.4148  0.4453 -0.1918
27939SOL    HW186355   9.515  10.036   5.736  0.5965 -2.3124  0.4851
27939SOL    HW286356   9.440  10.004   5.608  0.2793  2.8508 -0.7502
27940SOL     OW86357   0.877   9.464   2.946  0.1460  0.0032 -0.3030
27940SOL    HW186358   0.851   9.495   2.859  0.2077 -0.0467 -0.3384
27940SOL    HW286359   0.830   9.522   3.007  0.8491  0.6535 -0.3722
27941SOL     OW86360   4.246   5.467   2.975  0.4294  0.2248 -0.5208
27941SOL    HW186361   4.289   5.462   3.061  1.0113  1.2240 -0.7516
27941SOL    HW286362   4.229   5.375   2.952 -0.8577 -0.0205  1.2187
27942SOL     OW86363   6.633   8.791   5.889  0.1348 -0.1892  0.0167
27942SOL    HW186364   6.662   8.862   5.946  1.1643 -2.0040  1.8130
27942SOL    HW286365   6.714   8.750   5.859 -0.4381 -0.2978 -1.3965
27943SOL     OW86366   9.663   6.007   8.460 -0.2446 -0.5317  0.1671
27943SOL    HW186367   9.693   5.993   8.549 -2.8212  1.2382  1.3726
27943SOL    HW286368   9.584   5.952   8.452 -1.2812  0.9868 -0.2718
27944SOL     OW86369  10.175   3.458   1.417 -0.1102  0.3714  0.5261
27944SOL    HW186370  10.148   3.488   1.331  0.3255  0.8845  0.5654
27944SOL    HW286371  10.244   3.519   1.444  0.0841 -0.0594  1.0353
27945SOL     OW86372   4.818   1.924   0.822  0.0365  0.1106 -0.2333
27945SOL    HW186373   4.810   1.905   0.728  2.0810 -2.6145  0.0934
27945SOL    HW286374   4.742   1.882   0.861  0.9773 -1.7030 -0.3101
27946SOL     OW86375  10.000   4.821   4.583  0.2179  0.1470  0.3025
27946SOL    HW186376  10.086   4.789   4.608  0.1486  0.6599  1.2377
27946SOL    HW286377   9.939   4.755   4.617  0.2018  0.0996  0.1837
27947SOL     OW86378   1.355   1.609   5.913 -0.2985 -0.2650  0.1253
27947SOL    HW186379   1.398   1.653   5.840 -1.7525 -0.2341 -0.7045
27947SOL    HW286380   1.365   1.670   5.986  0.8635 -0.1528 -0.1149
27948SOL     OW86381   7.145   6.146   7.633 -0.1236 -0.5536  0.7526
27948SOL    HW186382   7.099   6.063   7.621  0.2860 -0.4412 -2.0820
27948SOL    HW286383   7.080   6.214   7.614 -0.0114 -0.2854  1.3286
27949SOL     OW86384   6.420   9.606   7.723  0.3519  0.0192  0.0711
27949SOL    HW186385   6.489   9.640   7.666 -0.5215  0.3018 -0.8398
27949SOL    HW286386   6.378   9.537   7.671 -0.2361  0.0445  0.5036
27950SOL     OW86387   8.140   0.452   8.611  0.2551  0.4017 -0.2233
27950SOL    HW186388   8.114   0.541   8.637 -0.5337  0.4383 -1.1308
27950SOL    HW286389   8.218   0.465   8.556  0.3498  0.5014 -0.0696
27951SOL     OW86390   7.381   7.838   8.754  0.3124 -0.1365  0.1458
27951SOL    HW186391   7.411   7.854   8.844 -0.8624  1.4759  0.2872
27951SOL    HW286392   7.455   7.863   8.699  0.5707  0.1479  0.6207
27952SOL     OW86393   9.732   7.839   8.289  0.3806  0.0206 -0.0257
27952SOL    HW186394   9.793   7.828   8.362 -0.3723 -3.3562  0.1584
27952SOL    HW286395   9.681   7.917   8.313  2.0085  0.6170  1.6633
27953SOL     OW86396   9.075   4.674   6.594 -0.0263 -0.4654  0.0063
27953SOL    HW186397   9.017   4.741   6.630  0.1833 -0.8157  1.0211
27953SOL    HW286398   9.029   4.641   6.517 -0.6993 -0.0131  0.2127
27954SOL     OW86399   4.636   0.543   7.870 -0.1951 -0.3670 -0.4968
27954SOL    HW186400   4.656   0.546   7.776 -0.1987 -0.0355 -0.4865
27954SOL    HW286401   4.684   0.467   7.902  1.1959  0.5195 -0.4456
27955SOL     OW86402   7.373   9.885   6.821  0.6619 -0.0227 -0.0705
27955SOL    HW186403   7.451   9.911   6.871 -1.1995  1.0550  2.3798
27955SOL    HW286404   7.310   9.955   6.838 -1.1646 -1.3542 -1.2653
27956SOL     OW86405  10.061   2.955   4.958 -0.6727  0.0139 -0.7926
27956SOL    HW186406   9.970   2.974   4.935 -0.6404 -1.8014 -2.5471
27956SOL    HW286407  10.112   2.994   4.887 -0.1932 -0.3147 -0.6302
27957SOL     OW86408   3.801   0.868   2.376  0.7156 -0.2914  0.8427
27957SOL    HW186409   3.840   0.830   2.455  0.8246  0.5363  1.1886
27957SOL    HW286410   3.856   0.944   2.356  1.0989 -0.8748 -0.4245
27958SOL     OW86411   6.985   4.147   4.581  0.3006  0.6662 -0.6132
27958SOL    HW186412   7.019   4.065   4.547  0.0183 -0.0204  0.7194
27958SOL    HW286413   7.021   4.153   4.670 -0.5429  1.4614 -0.3151
27959SOL     OW86414   6.306   9.322   6.680 -0.0299 -0.3021 -0.2492
27959SOL    HW186415   6.246   9.280   6.619  0.1246 -2.7690  1.2422
27959SOL    HW286416   6.249   9.367   6.742 -0.2384  0.0584 -0.6946
27960SOL     OW86417   0.504   9.121   6.554  0.3243 -0.1815 -0.0937
27960SOL    HW186418   0.448   9.106   6.630  0.2426  0.5171 -0.0123
27960SOL    HW286419   0.481   9.209   6.524  2.2204  0.6096  0.6765
27961SOL     OW86420   6.684   4.642   4.366 -0.4167 -0.2542 -0.1588
27961SOL    HW186421   6.644   4.706   4.307 -0.5206  0.8573  1.0721
27961SOL    HW286422   6.633   4.562   4.354 -0.8838  0.1739 -1.0412
27962SOL     OW86423   1.689   5.910   9.134 -0.2959  0.1724  0.2449
27962SOL    HW186424   1.656   5.839   9.190 -0.9518  0.2038 -0.0961
27962SOL    HW286425   1.709   5.980   9.196  0.5062 -0.3617  0.6004
27963SOL     OW86426   4.629   5.492   6.456 -0.4848  0.2553  0.4050
27963SOL    HW186427   4.687   5.469   6.384  0.1595  2.1603  0.2678
27963SOL    HW286428   4.585   5.411   6.479  1.1164 -0.8995 -0.5038
27964SOL     OW86429   4.654   1.279   4.008  0.0406  0.0803 -0.1926
27964SOL    HW186430   4.699   1.348   3.959  1.3484  0.2545  1.2048
27964SOL    HW286431   4.628   1.321   4.090 -2.2686 -0.1615 -0.7804
27965SOL     OW86432   9.149   8.844   8.076  0.1281 -0.1670  0.1796
27965SOL    HW186433   9.057   8.822   8.090 -0.0682 -1.1229 -2.4956
27965SOL    HW286434   9.187   8.765   8.038  1.4994  1.0276 -0.9770
27966SOL     OW86435   2.503   0.217   6.329  0.7466  0.2392  0.0698
27966SOL    HW186436   2.551   0.183   6.404 -0.3140  0.0047  0.6500
27966SOL    HW286437   2.425   0.162   6.323 -0.7387  2.2086  0.7010
27967SOL     OW86438   9.013   8.509   0.943 -0.2661  0.1791 -0.5422
27967SOL    HW186439   9.059   8.499   0.860  1.3617 -0.2500  0.3888
27967SOL    HW286440   9.035   8.429   0.992  0.5089  1.3844  1.1095
27968SOL     OW86441   9.693   3.999   4.879 -0.0063  0.2063  0.3324
27968SOL    HW186442   9.704   4.082   4.924 -0.0780 -0.4586  1.6062
27968SOL    HW286443   9.771   3.948   4.901  0.1754  0.0318 -0.6708
27969SOL     OW86444   3.606   6.112   8.547 -0.4414 -0.5828  0.0161
27969SOL    HW186445   3.696   6.120   8.580 -0.9086 -1.7880  1.6504
27969SOL    HW286446   3.558   6.179   8.593 -0.7080 -0.9976  0.3419
27970SOL     OW86447   4.084   8.921   5.600  0.3952  0.4375  0.9617
27970SOL    HW186448   4.002   8.946   5.642  1.0117  2.1259  1.2138
27970SOL    HW286449   4.145   8.906   5.673  0.4086 -0.5254  0.7662
27971SOL     OW86450   6.209   2.709   1.331  0.0158 -0.2430 -0.2103
27971SOL    HW186451   6.263   2.633   1.351  0.0946 -0.4374 -1.1097
27971SOL    HW286452   6.138   2.674   1.277 -1.1034 -0.0132  1.0993
27972SOL     OW86453   6.865   1.637   1.992  0.2555  0.3364 -0.0131
27972SOL    HW186454   6.895   1.549   2.013  1.3775  0.9687  1.0685
27972SOL    HW286455   6.820   1.627   1.908 -0.5745 -1.4511  0.6078
27973SOL     OW86456   9.815   6.398   6.191  0.2448  0.0526  0.0282
27973SOL    HW186457   9.797   6.305   6.204 -0.3145  0.1696  0.0927
27973SOL    HW286458   9.859   6.402   6.106  0.1549 -0.2568 -0.0340
27974SOL     OW86459   5.021   4.333   4.188  0.0198 -0.1836  0.0096
27974SOL    HW186460   5.073   4.253   4.195  0.0182 -0.1125  1.0080
27974SOL    HW286461   4.958   4.326   4.260  0.1285  0.7858  0.2117
27975SOL     OW86462   2.955   7.433  10.002 -0.3811 -0.1531 -0.5113
27975SOL    HW186463   3.032   7.487  10.018 -0.4134 -0.0939 -0.5566
27975SOL    HW286464   2.989   7.343   9.998 -0.4579 -0.2414  0.5617
27976SOL     OW86465   9.307   8.845   1.294  0.2119 -0.6618  0.3713
27976SOL    HW186466   9.381   8.850   1.354  0.6861  3.1689 -0.3939
27976SOL    HW286467   9.269   8.933   1.296 -0.3463 -0.6835 -4.1835
27977SOL     OW86468   2.666   3.896   6.441  0.3781  0.4864 -0.6340
27977SOL    HW186469   2.573   3.912   6.423  0.0210 -0.7791  0.0166
27977SOL    HW286470   2.708   3.980   6.425 -1.1502  1.5921  0.9052
27978SOL     OW86471   1.534   9.807   6.922  0.4187  0.4653  0.1547
27978SOL    HW186472   1.539   9.861   6.842 -0.9010 -0.6264 -0.6989
27978SOL    HW286473   1.623   9.775   6.935  0.7526  1.0579 -0.6097
27979SOL     OW86474   6.792   5.548   1.643 -0.1045  0.0506 -0.4907
27979SOL    HW186475   6.885   5.527   1.637  0.0629  1.3555 -3.1955
27979SOL    HW286476   6.754   5.475   1.692  2.4814  0.0656  1.6680
27980SOL     OW86477   3.794   6.720   3.155  0.0765 -0.8028 -0.8146
27980SOL    HW186478   3.785   6.816   3.159  2.5292 -0.5669 -0.1987
27980SOL    HW286479   3.733   6.694   3.086 -0.5247  1.2229 -1.1019
27981SOL     OW86480   0.103   3.601   1.804  0.3185 -0.1658  0.5432
27981SOL    HW186481   0.008   3.589   1.809  0.3020  0.1540  1.0836
27981SOL    HW286482   0.119   3.627   1.713 -0.1571  0.1285  0.5409
27982SOL     OW86483   8.996   7.468   6.767  0.1726 -0.2038 -0.3798
27982SOL    HW186484   8.967   7.482   6.857  1.4507 -0.6378  0.1157
27982SOL    HW286485   8.951   7.535   6.716  0.8725  1.2432  0.8696
27983SOL     OW86486   2.845   5.372   7.332 -0.0825 -0.1775 -0.5264
27983SOL    HW186487   2.905   5.437   7.293  1.2717 -2.0535 -1.6804
27983SOL    HW286488   2.877   5.361   7.421 -1.0210  1.5536  0.0452
27984SOL     OW86489   6.350   9.182   2.194  0.0506 -0.5125 -0.0979
27984SOL    HW186490   6.257   9.194   2.214 -0.1635 -0.2996 -1.1958
27984SOL    HW286491   6.364   9.234   2.115  1.8635  2.2084  1.9322
27985SOL     OW86492   5.887   6.580   0.889  0.0228 -0.6295  0.4831
27985SOL    HW186493   5.845   6.620   0.813 -1.4690  0.4674  1.8257
27985SOL    HW286494   5.830   6.506   0.911 -0.1590 -0.3097  1.1318
27986SOL     OW86495   7.770   1.306   2.610 -0.2279 -0.7953 -0.0194
27986SOL    HW186496   7.735   1.381   2.659 -2.1949 -0.4699 -1.8919
27986SOL    HW286497   7.708   1.235   2.627 -1.6929 -0.2999 -3.1211
27987SOL     OW86498  10.203   0.433   5.137 -0.8156  0.4948  0.0672
27987SOL    HW186499  10.226   0.523   5.114 -0.0283  0.6546  1.4447
27987SOL    HW286500  10.168   0.439   5.226  1.0501 -0.7910  0.9271
27988SOL     OW86501   6.247   1.850   9.107  0.1961 -0.1188 -0.3445
27988SOL    HW186502   6.290   1.924   9.149  1.4007 -1.3585  0.6286
27988SOL    HW286503   6.185   1.818   9.173 -0.0021 -0.2615 -0.5985
27989SOL     OW86504   4.835   0.117   2.363  0.5439  0.2616 -0.1975
27989SOL    HW186505   4.829   0.102   2.269  0.3869 -0.9300 -0.0054
27989SOL    HW286506   4.878   0.038   2.397  0.4880  0.6290  0.7327
27990SOL     OW86507   0.780   5.549   5.367  0.2918  0.5356  0.1542
27990SOL    HW186508   0.775   5.494   5.445 -1.9735 -1.8166 -1.5502
27990SOL    HW286509   0.809   5.489   5.298 -0.9240  1.7940 -1.4663
27991SOL     OW86510   3.763   8.919   0.636 -0.0847  0.7028 -0.7839
27991SOL    HW186511   3.803   8.927   0.549  0.5465  2.6549 -0.3500
27991SOL    HW286512   3.787   9.001   0.680 -2.0300  0.5715  0.5530
27992SOL     OW86513   2.700   1.878   9.280  0.4304  0.4984  0.0059
27992SOL    HW186514   2.618   1.909   9.318 -1.0613 -1.2452 -1.6853
27992SOL    HW286515   2.686   1.880   9.185  2.0669 -0.5044 -0.2893
27993SOL     OW86516   9.214   3.491   6.641 -0.1120 -0.3181 -0.3589
27993SOL    HW186517   9.134   3.542   6.628 -0.3284 -0.6626 -0.3659
27993SOL    HW286518   9.210   3.423   6.574  0.3633 -0.1143 -0.5924
27994SOL     OW86519   3.680   0.367   5.685 -0.3233  0.4398 -0.1513
27994SOL    HW186520   3.594   0.401   5.709 -0.5006 -0.4287  0.4515
27994SOL    HW286521   3.697   0.296   5.747 -0.3765 -1.2423 -1.9965
27995SOL     OW86522   5.851   5.683   2.530  0.1649 -0.5990 -0.0610
27995SOL    HW186523   5.799   5.757   2.562  0.3259 -0.9585  1.0504
27995SOL    HW286524   5.799   5.606   2.554  0.5013 -0.8958 -0.2857
27996SOL     OW86525   4.880   6.756  10.010 -0.1852  0.3855  0.4084
27996SOL    HW186526   4.936   6.767  10.087  0.2606  0.1213  0.1227
27996SOL    HW286527   4.908   6.673   9.971  0.8590  1.4039 -1.0870
27997SOL     OW86528   7.278   0.247   7.142 -0.2409  0.4170  0.0715
27997SOL    HW186529   7.370   0.236   7.167  0.3316  1.9414 -1.2229
27997SOL    HW286530   7.235   0.166   7.170  1.6658 -0.6701 -0.0699
27998SOL     OW86531   9.679   4.302   9.581  0.0630  0.1280 -0.5861
27998SOL    HW186532   9.658   4.244   9.655 -0.4486 -0.6664 -1.3327
27998SOL    HW286533   9.615   4.372   9.587 -0.1546 -0.0817 -0.4284
27999SOL     OW86534   5.236   8.064   8.148  0.5723 -0.0842 -0.2902
27999SOL    HW186535   5.174   8.062   8.221 -0.0596 -1.2504 -0.8433
27999SOL    HW286536   5.301   7.998   8.169  0.5237 -0.2546 -0.6588
28000SOL     OW86537   4.104   9.875   0.638  0.1433 -0.0168  0.3171
28000SOL    HW186538   4.158   9.811   0.684 -1.5038 -1.3841  0.3658
28000SOL    HW286539   4.142   9.880   0.550  1.5759  0.5303  0.9542
28001SOL     OW86540   4.542   2.111   0.962  0.2589  0.7384 -0.2424
28001SOL    HW186541   4.453   2.140   0.943  0.2520  1.4138  0.8308
28001SOL    HW286542   4.546   2.023   0.924 -0.6217  0.9926 -0.9521
28002SOL     OW86543   4.007   9.082   7.772  0.2277 -0.0133  0.2063
28002SOL    HW186544   3.996   8.996   7.812  0.4726  1.0283  2.6082
28002SOL    HW286545   4.071   9.127   7.829  0.6169  1.5087 -1.3836
28003SOL     OW86546   9.690   2.158   5.843 -0.1561 -0.1147 -0.2565
28003SOL    HW186547   9.755   2.206   5.893 -1.1895  0.8242  0.2062
28003SOL    HW286548   9.614   2.216   5.840 -0.5309 -0.6551 -1.8871
28004SOL     OW86549   5.845   7.878   0.218  0.0832  0.1874 -0.3359
28004SOL    HW186550   5.931   7.846   0.247  0.5099 -0.1807 -1.9235
28004SOL    HW286551   5.860   7.970   0.195 -0.5786  0.8770  1.9101
28005SOL     OW86552   2.078   4.328   2.444  0.0940  0.4966  0.2510
28005SOL    HW186553   2.016   4.357   2.510 -2.0354 -0.3208 -1.3307
28005SOL    HW286554   2.043   4.361   2.361  1.7213 -0.0634 -0.6989
28006SOL     OW86555   1.299   4.987   7.828  0.4267 -0.2009 -0.2156
28006SOL    HW186556   1.247   5.061   7.797 -0.1373 -0.3333  0.3930
28006SOL    HW286557   1.364   4.972   7.759 -0.5003 -0.1917 -1.0949
28007SOL     OW86558   7.219   3.616   5.923 -0.2137 -0.8700 -0.2577
28007SOL    HW186559   7.297   3.661   5.893 -1.1503 -0.1904 -1.7370
28007SOL    HW286560   7.239   3.589   6.012  2.2664 -2.0209 -1.1314
28008SOL     OW86561   0.838   1.060   5.326 -0.4109 -0.5497  0.1336
28008SOL    HW186562   0.886   1.016   5.256 -0.6534 -1.0298  0.2714
28008SOL    HW286563   0.781   1.122   5.280  0.0089 -0.3037 -0.0539
28009SOL     OW86564   2.163   0.933   6.636 -0.2251 -0.3495  0.1835
28009SOL    HW186565   2.176   1.028   6.638  0.7183 -0.4415 -0.9619
28009SOL    HW286566   2.090   0.921   6.575  0.9400 -0.4733 -1.2102
28010SOL     OW86567   2.364   3.354   9.649  0.0344 -0.1670 -0.2410
28010SOL    HW186568   2.459   3.363   9.655 -0.1996  2.2026  0.2769
28010SOL    HW286569   2.334   3.352   9.740 -0.5229  0.4823 -0.4051
28011SOL     OW86570   0.216   0.804   4.893  0.4330  0.2980  0.2033
28011SOL    HW186571   0.307   0.806   4.864  0.4720  0.2091  0.3216
28011SOL    HW286572   0.185   0.717   4.869 -0.1187  0.9069 -1.3770
28012SOL     OW86573   6.362  10.042   2.872 -0.5186 -0.7109 -0.2981
28012SOL    HW186574   6.367  10.080   2.784 -1.8898 -0.8328 -0.4470
28012SOL    HW286575   6.277   9.998   2.874 -0.5146 -0.6821  1.1049
28013SOL     OW86576   5.965   0.823   5.208 -0.6149  0.8684  0.4373
28013SOL    HW186577   5.964   0.727   5.214  0.1650  1.0100  4.0609
28013SOL    HW286578   5.995   0.841   5.119 -2.0874 -2.2247 -0.7688
28014SOL     OW86579   5.891   2.355   1.634 -0.2103  0.2370 -0.3467
28014SOL    HW186580   5.897   2.260   1.638  0.4184  0.3309  1.2657
28014SOL    HW286581   5.802   2.372   1.602 -1.4262 -0.8810  2.2391
28015SOL     OW86582   2.484   5.569   1.468  0.1770 -0.5668  0.1731
28015SOL    HW186583   2.465   5.550   1.560  1.0783 -0.5222  0.3699
28015SOL    HW286584   2.408   5.620   1.438  0.4742  0.5312  1.2401
28016SOL     OW86585   1.834   5.996   6.536 -0.2827 -0.2123 -0.2360
28016SOL    HW186586   1.762   5.977   6.596  0.3453 -0.1227  0.5413
28016SOL    HW286587   1.870   5.910   6.513 -0.6134 -0.2553 -0.6050
28017SOL     OW86588   5.241   7.007   7.981 -0.6562 -0.0765 -0.0733
28017SOL    HW186589   5.145   7.010   7.971 -0.6107  1.1381 -0.2601
28017SOL    HW286590   5.269   6.942   7.917 -1.5407 -2.0728  1.5121
28018SOL     OW86591   5.735   4.824   6.113  0.0317 -0.1536  0.0011
28018SOL    HW186592   5.766   4.914   6.120  0.6391 -0.4279  0.8087
28018SOL    HW286593   5.646   4.827   6.147 -0.3016  0.3219 -0.8718
28019SOL     OW86594   6.720   8.479   8.849  0.6834 -0.3051  0.4597
28019SOL    HW186595   6.783   8.548   8.828 -0.8451  0.9735  0.0096
28019SOL    HW286596   6.746   8.449   8.936  1.6698  0.4824  0.4460
28020SOL     OW86597   3.226   5.893   9.504  0.2168 -0.1600 -0.7339
28020SOL    HW186598   3.296   5.838   9.538  2.3659  0.8439 -3.3527
28020SOL    HW286599   3.213   5.863   9.415 -1.9930  0.3692 -0.6128
28021SOL     OW86600  10.172   7.904   4.443  0.3294  0.8557 -0.1147
28021SOL    HW186601  10.131   7.863   4.519 -0.7369  3.1669  0.6135
28021SOL    HW286602  10.099   7.925   4.385  1.0758 -0.2738 -1.5025
28022SOL     OW86603   8.542   2.980   8.756 -0.0434  0.4984 -0.7457
28022SOL    HW186604   8.572   3.051   8.700  1.1877  0.4133 -0.2052
28022SOL    HW286605   8.526   2.907   8.696 -1.0928  1.1593 -1.2720
28023SOL     OW86606   2.970   9.065   5.701 -0.1937 -0.0554  0.0542
28023SOL    HW186607   2.988   9.073   5.607 -0.8839  1.8715  0.0643
28023SOL    HW286608   2.877   9.085   5.710 -0.2243 -0.6139  1.1126
28024SOL     OW86609   0.005   4.837   4.237  0.0050  0.0974 -0.1419
28024SOL    HW186610   0.006   4.772   4.166 -0.8503  0.9870 -0.9830
28024SOL    HW286611   0.089   4.881   4.229  0.0165  0.0268 -0.4435
28025SOL     OW86612   7.978   4.614   5.712  0.0777  0.3259  0.5950
28025SOL    HW186613   7.888   4.587   5.693 -0.1993  0.5074  1.6054
28025SOL    HW286614   8.007   4.554   5.781  1.4960 -1.1316 -1.2275
28026SOL     OW86615   7.684   9.627   2.723 -0.0808 -0.3635 -0.1436
28026SOL    HW186616   7.649   9.631   2.812  0.5369 -1.3496  0.1480
28026SOL    HW286617   7.766   9.676   2.727 -0.5467  0.4474 -0.4126
28027SOL     OW86618   6.116   9.260   1.998  0.2372 -0.4536 -0.2861
28027SOL    HW186619   6.054   9.299   1.935 -0.4484 -0.6095  0.2827
28027SOL    HW286620   6.064   9.195   2.045  1.1215 -1.3459 -0.5335
28028SOL     OW86621   3.478   9.329   0.563 -0.1810 -0.0356 -0.2182
28028SOL    HW186622   3.438   9.275   0.632 -0.5685 -1.7446 -1.7312
28028SOL    HW286623   3.508   9.265   0.498 -0.6142  1.6054 -2.0554
28029SOL     OW86624   9.000   9.905   6.279 -0.2703  0.3424 -0.0239
28029SOL    HW186625   9.061   9.978   6.272 -2.2107  1.9597 -0.6614
28029SOL    HW286626   9.007   9.860   6.195  0.7531 -0.0965  0.2826
28030SOL     OW86627   4.585   8.217   6.473  0.2365 -0.7029  0.1077
28030SOL    HW186628   4.506   8.257   6.509 -1.0849 -2.0770 -1.1886
28030SOL    HW286629   4.652   8.286   6.480 -0.9609  0.3605  1.5370
28031SOL     OW86630  10.007   9.509   6.149  0.2655  0.5101 -0.1917
28031SOL    HW186631  10.037   9.476   6.234 -1.6767  0.5474  0.5275
28031SOL    HW286632   9.933   9.453   6.126  1.2156  0.0499 -2.2233
28032SOL     OW86633   2.820   9.196   6.412 -0.3708 -0.4347  0.1583
28032SOL    HW186634   2.799   9.284   6.443 -1.3858 -0.0155 -1.6605
28032SOL    HW286635   2.757   9.179   6.343 -0.9673 -3.0905  1.2866
28033SOL     OW86636   6.780   5.876   8.616  0.2662 -0.4636  0.0363
28033SOL    HW186637   6.763   5.941   8.548  2.9167 -1.0034 -1.1734
28033SOL    HW286638   6.804   5.928   8.693  2.7776  0.0303 -1.0338
28034SOL     OW86639   6.362   9.225   6.302  0.5163  0.1368  0.0832
28034SOL    HW186640   6.420   9.290   6.342  0.3154 -0.0559  0.6912
28034SOL    HW286641   6.283   9.226   6.356 -0.6269  1.3961 -1.5628
28035SOL     OW86642   0.425   5.042   1.724  0.1517  0.4277  0.2381
28035SOL    HW186643   0.391   5.122   1.682  2.7617  1.4179 -0.0732
28035SOL    HW286644   0.484   5.075   1.792 -0.0491 -1.2468  1.2340
28036SOL     OW86645  10.174   6.075   2.582  0.0831  0.1422 -0.0543
28036SOL    HW186646  10.079   6.091   2.582  0.1863  0.7761  1.4143
28036SOL    HW286647  10.205   6.118   2.502 -1.0333 -1.2178 -1.2720
28037SOL     OW86648   5.454   2.517   4.486  0.6824  0.8901 -0.2162
28037SOL    HW186649   5.484   2.444   4.541  1.1504  0.5997 -0.8510
28037SOL    HW286650   5.403   2.572   4.545 -1.9960 -1.3515 -0.3764
28038SOL     OW86651   1.033   9.466   7.838  0.2641 -0.4336  0.9220
28038SOL    HW186652   0.999   9.531   7.777 -1.0058 -0.6063  1.4466
28038SOL    HW286653   1.125   9.454   7.811 -0.3923 -0.8332 -1.2267
28039SOL     OW86654   6.715   6.344   0.589 -0.0062  0.3519  0.3737
28039SOL    HW186655   6.645   6.404   0.560  0.0779  0.4198  0.3126
28039SOL    HW286656   6.729   6.287   0.514 -1.2607 -0.8329  0.9997
28040SOL     OW86657   3.376   9.989   4.623 -0.2719  0.4292  0.4644
28040SOL    HW186658   3.295  10.034   4.648 -0.5353 -0.0526  0.4700
28040SOL    HW286659   3.398   9.935   4.699  0.5553  1.2494  0.8283
28041SOL     OW86660   3.126   3.778   7.741 -0.0147 -0.3366 -0.1193
28041SOL    HW186661   3.167   3.722   7.675  0.8500  0.1571 -0.0082
28041SOL    HW286662   3.075   3.841   7.690  1.7721  0.9252 -0.3957
28042SOL     OW86663   0.794   2.052   7.097 -0.2022  0.0843 -0.0079
28042SOL    HW186664   0.774   2.011   7.013 -0.4937 -0.9935  0.5803
28042SOL    HW286665   0.753   2.138   7.092 -0.1422  0.0656 -1.0023
28043SOL     OW86666   8.406   3.292   9.555 -0.5071 -0.2235  0.3326
28043SOL    HW186667   8.419   3.200   9.532  0.0772 -0.2908  0.9029
28043SOL    HW286668   8.421   3.339   9.474 -0.4404 -0.6052  0.1197
28044SOL     OW86669   6.050   1.925   4.810  0.0383  0.2592  0.2726
28044SOL    HW186670   6.048   1.846   4.864 -0.6556  0.4956  0.5954
28044SOL    HW286671   6.060   1.996   4.873  0.2485  0.4613  0.0102
28045SOL     OW86672   3.893   0.712   9.256 -0.2429  0.3701  0.4279
28045SOL    HW186673   3.889   0.804   9.280  1.6036  0.4627  0.4213
28045SOL    HW286674   3.811   0.696   9.207  0.0827  2.3517 -0.7990
28046SOL     OW86675   1.068   4.838   3.178 -0.2604 -0.3807 -0.0093
28046SOL    HW186676   1.054   4.932   3.190  1.2235  0.1071 -1.8584
28046SOL    HW286677   1.038   4.821   3.088  0.1422 -1.5492  0.0654
28047SOL     OW86678   1.719   0.759   0.497 -0.3495 -1.1426  1.0705
28047SOL    HW186679   1.637   0.716   0.522 -0.3773 -0.1990  2.6787
28047SOL    HW286680   1.694   0.849   0.479  0.0646 -1.2565 -0.0912
28048SOL     OW86681   1.026   1.846   1.805  0.2906  0.6248  0.2333
28048SOL    HW186682   1.037   1.927   1.854 -1.1479  0.7702  0.3308
28048SOL    HW286683   0.980   1.872   1.725  1.1384  0.1315 -0.4213
28049SOL     OW86684   0.770   0.955   1.487  0.3278  0.1265 -0.1181
28049SOL    HW186685   0.724   0.877   1.519 -1.0870  1.6893  1.7551
28049SOL    HW286686   0.705   1.002   1.436  1.1025  0.2456 -1.0132
28050SOL     OW86687   1.857   9.414   1.248 -0.0724 -0.3818 -0.4336
28050SOL    HW186688   1.844   9.508   1.237  1.2572 -0.4073 -2.4196
28050SOL    HW286689   1.789   9.373   1.194  0.1451 -0.5677 -0.5664
28051SOL     OW86690   8.296   8.987   3.991 -0.5472  0.2629  0.1419
28051SOL    HW186691   8.267   8.996   3.900 -0.5180 -0.2710  0.0774
28051SOL    HW286692   8.216   8.996   4.043 -0.6625 -0.0902  0.0272
28052SOL     OW86693   0.770   2.729   6.446  0.0896  0.3335  0.4893
28052SOL    HW186694   0.701   2.792   6.465 -0.3971 -0.3843  1.1661
28052SOL    HW286695   0.776   2.675   6.525 -0.6557 -1.5214 -0.6901
28053SOL     OW86696   5.851   5.031   5.328 -0.4532  0.2703  0.1597
28053SOL    HW186697   5.810   4.952   5.363 -0.5239  0.3916  0.3524
28053SOL    HW286698   5.821   5.036   5.237 -0.2747 -0.0422  0.0866
28054SOL     OW86699   8.340   5.424  10.121  0.0612 -0.5346  0.6925
28054SOL    HW186700   8.280   5.434  10.047  1.8291 -1.6269 -0.9124
28054SOL    HW286701   8.289   5.455  10.196 -1.8623  0.3428 -0.9076
28055SOL     OW86702   6.712   6.817   8.190  0.4889  0.0886  0.2233
28055SOL    HW186703   6.668   6.899   8.165  0.5847  0.3156  0.7928
28055SOL    HW286704   6.641   6.757   8.211  0.4494  0.8224  2.3086
28056SOL     OW86705   3.119  10.098   0.279 -0.4951  0.2709 -0.3905
28056SOL    HW186706   3.075  10.125   0.360 -0.4175 -0.0120 -0.2568
28056SOL    HW286707   3.050  10.057   0.227 -0.4719  0.1582 -0.3327
28057SOL     OW86708   6.030   9.219   9.702 -0.0412  0.1992  0.2197
28057SOL    HW186709   6.037   9.302   9.654  1.5359  0.2875  0.5570
28057SOL    HW286710   6.115   9.176   9.686  0.2481 -0.0563  2.3857
28058SOL     OW86711   0.105   2.382   3.492 -0.3337 -0.2774  0.4230
28058SOL    HW186712   0.143   2.294   3.500 -0.7496 -0.5936 -0.9315
28058SOL    HW286713   0.016   2.367   3.460 -0.5212  0.6300  0.5050
28059SOL     OW86714   9.237   0.755   8.473 -0.3137 -0.1551 -0.4060
28059SOL    HW186715   9.198   0.667   8.469  2.7699 -1.4942 -2.7856
28059SOL    HW286716   9.327   0.740   8.502 -0.0047  2.3576  0.0383
28060SOL     OW86717   7.457   7.866   9.028  0.1553  0.4931  0.5832
28060SOL    HW186718   7.423   7.792   9.079  1.3403  0.2302  1.0087
28060SOL    HW286719   7.543   7.837   8.998  0.5242  1.6080  0.5440
28061SOL     OW86720   8.956   2.348   1.303  0.2646 -0.8539 -0.2882
28061SOL    HW186721   8.924   2.371   1.390  1.6240 -0.6437  0.1696
28061SOL    HW286722   9.003   2.266   1.316  0.8060 -0.6209 -0.7521
28062SOL     OW86723   9.376   6.919   0.297 -0.1631 -0.2969 -0.6150
28062SOL    HW186724   9.286   6.912   0.329  0.6065  0.5774  1.8969
28062SOL    HW286725   9.404   7.007   0.323  1.0958 -0.1815 -2.2601
28063SOL     OW86726   9.175   8.474   0.604 -0.4407 -0.0839  0.2856
28063SOL    HW186727   9.092   8.425   0.605 -1.1600  1.0804 -0.3867
28063SOL    HW286728   9.151   8.558   0.565  1.1772  0.0761 -0.3745
28064SOL     OW86729   9.951   1.019   6.583 -0.2599 -0.0065 -0.0222
28064SOL    HW186730   9.946   1.008   6.488  0.1054 -5.4313  0.3931
28064SOL    HW286731  10.044   1.029   6.601 -0.3308  1.0390 -0.2216
28065SOL     OW86732   0.047   6.381   4.169 -0.5523  0.0754  0.1420
28065SOL    HW186733   0.017   6.291   4.156  2.4087 -0.9845  0.4282
28065SOL    HW286734   0.029   6.400   4.261 -1.3940 -0.1166  0.0215
28066SOL     OW86735   0.461   8.862   7.489  0.0655 -0.0450 -0.0980
28066SOL    HW186736   0.531   8.867   7.554 -0.9187 -0.3599  1.0133
28066SOL    HW286737   0.478   8.780   7.442  1.5608  0.8627 -1.1645
28067SOL     OW86738   2.037   2.488   0.407  0.4426 -0.1261 -0.1129
28067SOL    HW186739   2.050   2.439   0.488 -1.6441  1.9357  1.5417
28067SOL    HW286740   2.108   2.552   0.406 -0.0215  0.4192  0.5836
28068SOL     OW86741   2.383   7.653   3.131 -0.6002 -0.0992  0.2960
28068SOL    HW186742   2.381   7.602   3.212 -0.1366 -0.6973 -0.0556
28068SOL    HW286743   2.372   7.744   3.158 -1.7987 -0.4246  0.9007
28069SOL     OW86744   2.317   4.965   6.737  0.1218  0.1239  0.2666
28069SOL    HW186745   2.389   4.966   6.801  0.3257  2.4899  0.0417
28069SOL    HW286746   2.258   5.033   6.768 -0.1769  0.7397 -1.6408
28070SOL     OW86747   1.544   6.177   3.945  0.2041  1.0306  0.1281
28070SOL    HW186748   1.592   6.255   3.970  0.0176  0.7244  1.4874
28070SOL    HW286749   1.611   6.117   3.912  0.5671  1.1253  0.6925
28071SOL     OW86750   1.212   5.736   6.863  0.2452  0.2192  1.0852
28071SOL    HW186751   1.155   5.812   6.856  1.9705  1.6398  2.2149
28071SOL    HW286752   1.239   5.734   6.955 -0.4777 -2.2833  1.2782
28072SOL     OW86753   0.818   5.721   5.992  0.0273  0.7649 -0.4934
28072SOL    HW186754   0.767   5.662   5.936 -1.3264 -0.3152  1.8098
28072SOL    HW286755   0.771   5.804   5.989 -0.3301  0.5585 -0.5533
28073SOL     OW86756   4.990   6.463   4.011 -0.4838 -0.4909 -0.1638
28073SOL    HW186757   4.998   6.506   3.926 -1.5932  0.5092  0.2240
28073SOL    HW286758   4.973   6.371   3.989  2.1267 -0.8223 -0.9914
28074SOL     OW86759   1.022   7.049   3.025  0.4697 -0.2414 -0.3471
28074SOL    HW186760   0.956   6.986   2.999  0.4770 -0.4443  0.1253
28074SOL    HW286761   1.098   7.027   2.971  0.6821 -1.0482  0.2666
28075SOL     OW86762   7.152   4.297   5.602 -0.1517 -0.1737 -0.3863
28075SOL    HW186763   7.233   4.253   5.576 -1.6089 -2.6279 -0.9531
28075SOL    HW286764   7.106   4.312   5.519 -2.2222 -2.7852  0.2225
28076SOL     OW86765   7.967   6.397   8.141 -0.0250  0.4642  0.4071
28076SOL    HW186766   7.916   6.316   8.148  2.0402 -1.1334 -2.3598
28076SOL    HW286767   8.001   6.410   8.230  0.4046 -2.2224  0.6926
28077SOL     OW86768   7.936   6.083   9.683  0.0703  0.2798 -0.1326
28077SOL    HW186769   7.976   6.120   9.604 -0.2943 -2.5494 -1.7198
28077SOL    HW286770   7.945   5.988   9.672 -2.9856 -0.2804  1.6619
28078SOL     OW86771   7.227   2.083   3.928 -0.4897  0.4974  0.0300
28078SOL    HW186772   7.208   1.996   3.963  0.4954  0.2609 -0.0099
28078SOL    HW286773   7.319   2.097   3.948 -1.0911  2.3235  1.7343
28079SOL     OW86774   0.545   5.717   2.098 -0.1539  0.3717 -0.0729
28079SOL    HW186775   0.629   5.673   2.085  0.5791  1.7284  0.0623
28079SOL    HW286776   0.550   5.753   2.186 -1.5389 -0.9631  0.5708
28080SOL     OW86777   8.466   4.698   4.357  0.4129  0.3635  0.6891
28080SOL    HW186778   8.532   4.670   4.293 -1.5250 -2.8679 -0.0461
28080SOL    HW286779   8.471   4.632   4.426  0.2055  1.9861  2.2954
28081SOL     OW86780   4.502   8.570   5.685 -0.4458 -0.1216  0.1553
28081SOL    HW186781   4.540   8.655   5.663  0.8991 -0.7215  0.1084
28081SOL    HW286782   4.443   8.550   5.612  1.8756 -0.8147 -1.5829
28082SOL     OW86783   3.649   1.898   0.754  0.1844 -0.3492 -0.0889
28082SOL    HW186784   3.579   1.940   0.702  0.0554 -1.4752 -0.8354
28082SOL    HW286785   3.602   1.843   0.816  0.3884 -0.2055  0.1915
28083SOL     OW86786   7.944   3.936   9.561 -0.0565  0.3108 -0.1613
28083SOL    HW186787   7.962   4.014   9.614  0.9448 -0.7635  1.1143
28083SOL    HW286788   7.917   3.870   9.624  0.7603 -0.8730 -1.0314
28084SOL     OW86789   3.825   9.556   7.853  0.4344  0.1208  0.2492
28084SOL    HW186790   3.772   9.576   7.931  0.0293 -1.1857  0.3123
28084SOL    HW286791   3.855   9.466   7.867 -0.6149 -0.5470 -1.6713
28085SOL     OW86792   9.938   2.985   7.072 -0.0541  0.3326 -0.1304
28085SOL    HW186793  10.012   2.944   7.026 -1.4283 -3.9405  1.2282
28085SOL    HW286794   9.958   2.972   7.165 -2.5422 -0.9673  0.2554
28086SOL     OW86795   4.024   2.949   1.425  0.2494 -0.1856 -0.9451
28086SOL    HW186796   4.103   2.998   1.406  0.5222 -0.1712  0.2086
28086SOL    HW286797   4.032   2.925   1.517 -0.9729 -0.3827 -0.8823
28087SOL     OW86798   9.718   2.757   3.183  0.3679 -0.0631 -0.5207
28087SOL    HW186799   9.802   2.800   3.201 -0.1295  1.8913 -2.5966
28087SOL    HW286800   9.719   2.678   3.237  3.0424  0.5219  0.3572
28088SOL     OW86801   2.567   1.626   9.128  0.2124  0.4141 -0.4490
28088SOL    HW186802   2.481   1.655   9.098  0.0068 -0.6088 -0.8763
28088SOL    HW286803   2.624   1.701   9.114 -0.5666  1.0308 -0.3642
28089SOL     OW86804   8.897   1.635   8.684  0.1268 -0.4808 -0.4308
28089SOL    HW186805   8.912   1.587   8.766  0.7984  0.4467  0.0077
28089SOL    HW286806   8.931   1.577   8.616 -2.5705 -2.2899 -0.3046
28090SOL     OW86807   6.144   0.606   1.249 -0.1091  0.2901 -0.6510
28090SOL    HW186808   6.181   0.689   1.279 -1.0530  0.0277  1.3129
28090SOL    HW286809   6.063   0.632   1.204  0.5815  0.5593 -1.7855
28091SOL     OW86810   3.503   1.507   1.263 -0.1981 -0.0524 -0.1037
28091SOL    HW186811   3.485   1.568   1.335  1.1973  0.6071 -0.2990
28091SOL    HW286812   3.440   1.530   1.196 -1.7738 -0.9194  1.0343
28092SOL     OW86813   1.453   7.881   6.119 -0.0354  0.0562  0.2108
28092SOL    HW186814   1.492   7.860   6.204 -1.7510  2.0368  1.5484
28092SOL    HW286815   1.367   7.917   6.140  0.2246  2.2853 -2.2551
28093SOL     OW86816   5.587   1.026   8.989  0.2601 -0.6951 -1.1188
28093SOL    HW186817   5.615   0.959   8.927  1.7984 -1.1682  0.0641
28093SOL    HW286818   5.659   1.089   8.993 -0.4857  0.1789 -0.9877
28094SOL     OW86819   1.747   5.620   3.851  0.2091 -0.0425 -0.9664
28094SOL    HW186820   1.830   5.575   3.861 -1.3444 -2.7508  0.4644
28094SOL    HW286821   1.691   5.558   3.803 -1.9951  0.2817  1.0737
28095SOL     OW86822   4.936   3.359   1.961 -0.9897  0.4421  0.2208
28095SOL    HW186823   4.892   3.275   1.950 -1.4690  0.5415  1.3117
28095SOL    HW286824   5.025   3.337   1.989 -0.3562  0.2461 -1.8273
28096SOL     OW86825   7.409   4.880   4.358 -0.0696  0.4523 -0.0996
28096SOL    HW186826   7.479   4.847   4.302 -0.5851  0.0505 -0.5096
28096SOL    HW286827   7.376   4.803   4.404 -0.2932  0.6290  0.0394
28097SOL     OW86828   1.930   6.512   0.800  0.1768  0.0105  0.4962
28097SOL    HW186829   2.006   6.519   0.742 -0.6630  1.7468 -0.4466
28097SOL    HW286830   1.866   6.462   0.749 -0.6098  1.6488 -0.1649
28098SOL     OW86831   8.749   6.434   5.466 -0.2519 -0.1579  0.0149
28098SOL    HW186832   8.769   6.462   5.377  2.9414  0.3942  0.8295
28098SOL    HW286833   8.767   6.512   5.520  0.2077 -1.1975  1.3880
28099SOL     OW86834   2.674   5.492   1.805 -0.3736  0.3845  0.3940
28099SOL    HW186835   2.643   5.583   1.804  0.2820  0.6239  1.4535
28099SOL    HW286836   2.763   5.497   1.839  0.1436 -0.5182 -0.7943
28100SOL     OW86837   9.666   3.764   8.918 -0.8620 -0.0638 -0.2198
28100SOL    HW186838   9.660   3.859   8.928  0.2965  0.0716 -0.7730
28100SOL    HW286839   9.596   3.743   8.856 -1.3857  0.3706  0.2148
28101SOL     OW86840   6.007   6.100   1.071  0.3060 -0.0452 -0.4882
28101SOL    HW186841   6.071   6.059   1.129  0.1916  1.3781  0.6691
28101SOL    HW286842   5.928   6.107   1.125  0.1577  1.1617 -0.8623
28102SOL     OW86843   8.547   2.969   1.996  0.2919  0.2332  0.0786
28102SOL    HW186844   8.530   2.879   1.968 -0.1382  0.0532  0.9068
28102SOL    HW286845   8.593   2.961   2.080 -0.2646  0.7822  0.4479
28103SOL     OW86846   3.146   2.223   8.752  0.7613 -0.6288 -0.0528
28103SOL    HW186847   3.135   2.312   8.718  2.8093 -0.8456 -1.3902
28103SOL    HW286848   3.112   2.166   8.683  1.8441 -0.9542 -0.3334
28104SOL     OW86849   8.311   0.806   0.906 -0.0958 -0.3107  0.2902
28104SOL    HW186850   8.272   0.893   0.900 -1.0826 -0.6471  1.5653
28104SOL    HW286851   8.284   0.762   0.825 -0.0108  0.4060 -0.1263
28105SOL     OW86852   8.476   4.798   4.698  0.7184 -0.6920 -0.8058
28105SOL    HW186853   8.546   4.851   4.737 -1.0313  0.9728  0.1962
28105SOL    HW286854   8.512   4.768   4.615  2.6142  0.1547 -0.3192
28106SOL     OW86855   6.527   4.900   2.702 -0.6583  0.4034  0.0653
28106SOL    HW186856   6.599   4.958   2.727 -2.1037  1.7351  1.2420
28106SOL    HW286857   6.570   4.827   2.658  1.5388  0.4749  1.9927
28107SOL     OW86858   7.084   6.503   5.663  0.3403  0.6286 -0.3432
28107SOL    HW186859   7.137   6.429   5.635  1.5299  1.5046 -0.4848
28107SOL    HW286860   7.131   6.538   5.739  0.8003  2.3567 -1.4069
28108SOL     OW86861   8.046   9.522   7.456  0.2449 -0.3138 -0.3185
28108SOL    HW186862   8.035   9.453   7.391  0.8291 -0.6016 -0.1148
28108SOL    HW286863   8.029   9.479   7.540 -5.3002  1.1106 -0.5353
28109SOL     OW86864   7.269   7.151   8.946  0.9779 -0.2511  0.5247
28109SOL    HW186865   7.348   7.132   8.897  0.3757 -0.9575 -0.1827
28109SOL    HW286866   7.234   7.065   8.970  1.1782  0.0821  2.0536
28110SOL     OW86867   8.332   6.272   3.290 -0.3743 -0.2520  0.0054
28110SOL    HW186868   8.280   6.342   3.329  0.8136 -0.8839  2.8099
28110SOL    HW286869   8.370   6.312   3.211 -0.1661  2.1147  1.2524
28111SOL     OW86870   5.018   3.517   2.839  0.1233 -0.2826  0.1319
28111SOL    HW186871   4.950   3.456   2.811 -0.1770 -0.1554  0.5852
28111SOL    HW286872   5.016   3.513   2.935 -0.8289  1.4661  0.2055
28112SOL     OW86873   7.868  10.091   0.334  0.7602  0.0021 -0.2111
28112SOL    HW186874   7.915  10.010   0.357  1.1208 -0.1778 -1.5430
28112SOL    HW286875   7.888  10.105   0.242 -1.5962  0.0774 -0.7351
28113SOL     OW86876   0.276   7.578   8.588 -0.4549  0.3855  0.2896
28113SOL    HW186877   0.336   7.561   8.515 -0.8682 -0.3205  0.1103
28113SOL    HW286878   0.190   7.555   8.555 -0.4963 -1.1407  1.3917
28114SOL     OW86879   9.865   6.572   2.995 -0.6082  0.7851 -0.3363
28114SOL    HW186880   9.930   6.506   3.017 -2.2432 -0.6850  0.1337
28114SOL    HW286881   9.781   6.535   3.022 -1.5954  2.9341 -0.2803
28115SOL     OW86882   5.756   9.370   2.493 -0.0920 -0.3909  1.3457
28115SOL    HW186883   5.726   9.434   2.429  0.3879 -1.3022  0.1719
28115SOL    HW286884   5.688   9.302   2.493 -0.5030  0.0148  2.4282
28116SOL     OW86885   9.724   3.075   8.730 -0.2011 -0.4394  0.1115
28116SOL    HW186886   9.755   3.166   8.721  0.3771 -0.5266  1.2001
28116SOL    HW286887   9.635   3.084   8.764 -1.0153 -0.2219 -1.9973
28117SOL     OW86888   5.240   1.860   0.662  0.0990  0.1395 -0.1133
28117SOL    HW186889   5.267   1.773   0.630  3.2269  0.9985 -0.0107
28117SOL    HW286890   5.313   1.917   0.638 -1.2167  2.4311  1.2427
28118SOL     OW86891   8.468   9.460   2.126  0.5432  0.4653  0.6179
28118SOL    HW186892   8.487   9.499   2.211  1.7926 -1.2555  1.1567
28118SOL    HW286893   8.488   9.367   2.137 -4.2214 -0.7814 -0.0244
28119SOL     OW86894   0.693   9.771   9.143  0.1126 -0.0342  0.5327
28119SOL    HW186895   0.751   9.709   9.187  0.2494 -0.4999 -0.2947
28119SOL    HW286896   0.748   9.847   9.125  0.0610  0.1487  1.1521
28120SOL     OW86897   7.134   7.198   5.671 -0.1204  0.4263 -0.7135
28120SOL    HW186898   7.110   7.109   5.700 -1.9647  1.4405  1.0317
28120SOL    HW286899   7.141   7.191   5.576 -0.4471 -1.5584 -0.6157
28121SOL     OW86900   7.797   8.702   9.561  0.2720  0.3370  0.2019
28121SOL    HW186901   7.813   8.730   9.471  0.2229 -0.7740 -0.1575
28121SOL    HW286902   7.760   8.614   9.553 -0.9571  0.7457  1.2581
28122SOL     OW86903   9.120   0.568   0.322  0.1248  0.0326 -0.2721
28122SOL    HW186904   9.153   0.565   0.412  1.6318 -1.6044 -0.8390
28122SOL    HW286905   9.059   0.495   0.317 -0.5538  0.6005 -0.3737
28123SOL     OW86906   9.533   9.178   2.058  0.9767 -0.4746 -0.6879
28123SOL    HW186907   9.514   9.101   2.005 -1.2204 -1.6254  1.6742
28123SOL    HW286908   9.513   9.152   2.148  3.0151  1.9422  0.5282
28124SOL     OW86909   7.816   1.350   1.549  0.5127  0.0193 -0.1993
28124SOL    HW186910   7.907   1.342   1.518  1.2722  2.1466  1.3226
28124SOL    HW286911   7.765   1.366   1.470  1.6620  0.2153 -0.9155
28125SOL     OW86912   1.145   5.476   7.860  0.3157 -0.5594 -0.0149
28125SOL    HW186913   1.206   5.410   7.895 -0.0156 -0.9283 -0.1305
28125SOL    HW286914   1.080   5.487   7.928 -0.6872 -1.7447 -0.7510
28126SOL     OW86915   8.357   9.945   1.269  0.1340  0.1760  0.0015
28126SOL    HW186916   8.329   9.961   1.179 -1.3346  1.3576  0.6352
28126SOL    HW286917   8.311   9.865   1.294 -0.7679  0.7605  0.2351
28127SOL     OW86918   7.761   0.015   7.870 -0.2331  0.2155  0.5170
28127SOL    HW186919   7.673   0.008   7.906 -1.3931 -0.7717 -2.3784
28127SOL    HW286920   7.780   0.109   7.870 -1.6218  0.4954  0.3985
28128SOL     OW86921   3.487   7.287   6.952 -0.5484  0.7713 -0.1386
28128SOL    HW186922   3.458   7.238   6.875  1.4494  0.2273 -0.5507
28128SOL    HW286923   3.574   7.319   6.930 -0.3100  1.3704  1.5722
28129SOL     OW86924   1.495   9.198   2.917  0.1254  0.1898  0.1132
28129SOL    HW186925   1.473   9.250   2.839  2.5291 -0.3525 -0.9604
28129SOL    HW286926   1.476   9.108   2.892  0.6933  0.0374  0.2276
28130SOL     OW86927   4.208   3.853   6.358 -0.2710 -0.1764 -0.5994
28130SOL    HW186928   4.174   3.782   6.412 -0.9715  0.5342 -0.1008
28130SOL    HW286929   4.131   3.894   6.320 -0.1629  2.6087  1.9961
28131SOL     OW86930   8.323   4.398   9.036  0.0662  0.0753  0.1586
28131SOL    HW186931   8.299   4.310   9.067  2.8325 -0.8976 -0.3317
28131SOL    HW286932   8.361   4.440   9.113 -1.4634  0.9496  0.4539
28132SOL     OW86933   3.577   0.900   8.526 -0.1848  0.1596  0.2516
28132SOL    HW186934   3.671   0.885   8.517  0.0804  1.7272  0.3708
28132SOL    HW286935   3.546   0.826   8.578  1.0424 -0.1437  0.5695
28133SOL     OW86936   5.435   2.530   4.757  0.0259 -0.0779  0.3895
28133SOL    HW186937   5.399   2.447   4.790  0.6045  0.0572  1.3836
28133SOL    HW286938   5.529   2.520   4.765  0.1665  0.0731 -0.9933
28134SOL     OW86939   4.609   6.706   8.363  0.7957 -0.0705  0.1850
28134SOL    HW186940   4.612   6.646   8.289  0.5430  0.5626 -0.3345
28134SOL    HW286941   4.638   6.790   8.328 -0.6186  0.5531  0.4798
28135SOL     OW86942   2.153   6.218   1.342 -0.3223  0.5228  0.0420
28135SOL    HW186943   2.090   6.253   1.278  0.5574  0.6466 -0.7619
28135SOL    HW286944   2.142   6.274   1.419 -0.8274  0.8699 -0.2792
28136SOL     OW86945   3.407   0.340   6.256 -0.2893  0.1526  0.4752
28136SOL    HW186946   3.344   0.402   6.220  0.0246  0.0021 -0.3268
28136SOL    HW286947   3.396   0.261   6.203  1.1369  0.3865 -0.1762
28137SOL     OW86948   2.736   4.913   0.727 -0.1790  0.2569 -0.2806
28137SOL    HW186949   2.763   4.853   0.797 -0.5307  0.8569  0.3758
28137SOL    HW286950   2.817   4.929   0.678  0.4383  1.1359  0.9854
28138SOL     OW86951   2.271   0.516   1.359  0.3188  0.0597  0.1382
28138SOL    HW186952   2.357   0.558   1.359 -0.3776  1.5522  2.8052
28138SOL    HW286953   2.230   0.544   1.440 -2.6397 -0.7875 -0.9993
28139SOL     OW86954   8.198   5.032   6.303  0.2316  0.1600  0.2105
28139SOL    HW186955   8.140   5.061   6.233 -0.1783 -1.8222 -0.3142
28139SOL    HW286956   8.218   4.940   6.281  0.3802 -0.3824  2.4919
28140SOL     OW86957   5.009   3.641   1.656 -0.0773 -0.0336 -0.4446
28140SOL    HW186958   5.032   3.646   1.749 -0.3809 -1.5807 -0.2749
28140SOL    HW286959   4.956   3.719   1.641  2.4903  1.8630 -0.0561
28141SOL     OW86960  10.202   3.162   2.449 -0.2324  0.4149 -0.2364
28141SOL    HW186961  10.210   3.114   2.532  1.1667  0.8404 -0.1028
28141SOL    HW286962  10.127   3.220   2.462 -1.7358 -1.4825 -0.2843
28142SOL     OW86963   2.896   5.196   1.545  0.5412 -0.3449  0.5302
28142SOL    HW186964   2.814   5.184   1.593  0.4957 -2.8546 -0.0980
28142SOL    HW286965   2.885   5.279   1.499 -1.2752 -0.1981  1.1857
28143SOL     OW86966   2.595   0.139   8.088  0.4479  0.1175  0.2255
28143SOL    HW186967   2.507   0.166   8.062  1.2366  1.1960 -1.4532
28143SOL    HW286968   2.610   0.056   8.044  0.9506  0.8664 -1.0726
28144SOL     OW86969   4.721   6.067   8.034 -0.6724 -0.8859 -0.0607
28144SOL    HW186970   4.791   6.029   8.088 -0.9653 -1.4099 -0.0425
28144SOL    HW286971   4.643   6.061   8.089 -0.1935  2.3392  1.0516
28145SOL     OW86972   2.872   0.846   0.894 -0.2605  0.2861 -0.3227
28145SOL    HW186973   2.951   0.851   0.948 -0.2157 -0.7500 -0.2873
28145SOL    HW286974   2.857   0.753   0.882 -0.9235  0.4966 -1.1599
28146SOL     OW86975   0.016   9.779   9.321  0.1159 -0.0272  0.4049
28146SOL    HW186976  -0.025   9.850   9.370 -0.9438 -1.1551  1.1550
28146SOL    HW286977   0.057   9.724   9.387  1.5625  0.2701 -0.2279
28147SOL     OW86978   4.325   9.943  10.203  0.1536  0.0687 -0.3266
28147SOL    HW186979   4.403   9.964  10.153  0.4221  0.1352  0.1198
28147SOL    HW286980   4.342   9.855  10.238 -0.7461 -0.7057 -1.7641
28148SOL     OW86981   9.013   8.622   5.950 -0.0370 -0.1977 -0.0164
28148SOL    HW186982   9.080   8.598   6.014  1.0923 -4.3791 -2.5754
28148SOL    HW286983   9.060   8.674   5.885  0.3019 -1.5579 -0.8576
28149SOL     OW86984   5.620   2.501   7.731 -0.8365  0.2245 -0.0000
28149SOL    HW186985   5.707   2.532   7.755 -1.6687  1.2358  1.8637
28149SOL    HW286986   5.617   2.410   7.761  0.3730 -0.5713 -2.2205
28150SOL     OW86987   5.772   8.673   4.724 -0.1885  0.0221 -0.6670
28150SOL    HW186988   5.747   8.597   4.671  0.4449 -0.2449 -0.5877
28150SOL    HW286989   5.802   8.636   4.807  0.4112  0.3375 -0.7373
28151SOL     OW86990   3.870   7.461   7.562  0.0503  0.3745  0.4937
28151SOL    HW186991   3.884   7.383   7.617  0.0801  1.4856  2.0853
28151SOL    HW286992   3.898   7.434   7.474 -0.9197 -1.7302  0.8021
28152SOL     OW86993   8.394   1.977   5.368  0.5716 -0.6756  0.0570
28152SOL    HW186994   8.302   1.971   5.341  0.1053 -1.5275  1.7872
28152SOL    HW286995   8.441   1.923   5.304 -0.1828 -0.5988 -0.5686
28153SOL     OW86996   5.783   1.160   1.168  0.1706  0.1692  0.5406
28153SOL    HW186997   5.693   1.152   1.135  0.4548 -3.6892  0.4678
28153SOL    HW286998   5.837   1.164   1.089  0.2524 -0.2245  0.5780
28154SOL     OW86999   9.138   2.917   1.614  0.2924 -0.0736 -0.0427
28154SOL    HW187000   9.046   2.941   1.625  0.4534 -0.0080  1.2967
28154SOL    HW287001   9.160   2.945   1.526 -1.3836 -1.4348 -0.9342
28155SOL     OW87002   1.063   8.532   3.082  0.2028  0.2370 -0.3152
28155SOL    HW187003   1.119   8.606   3.059  0.0947  0.5285  0.3476
28155SOL    HW287004   1.122   8.466   3.116  0.1516  0.5159  0.3137
28156SOL     OW87005   4.725   0.539   2.002  0.0046 -0.3643 -0.4299
28156SOL    HW187006   4.817   0.513   1.998 -0.2376 -1.1550 -1.1386
28156SOL    HW287007   4.679   0.457   2.021 -0.5488  0.0250 -0.1096
28157SOL     OW87008   7.905   7.844   9.555  0.2260  0.4159  0.0875
28157SOL    HW187009   7.833   7.826   9.615  0.7913  0.9877  0.9560
28157SOL    HW287010   7.903   7.772   9.492  0.8517 -1.2969  1.9654
28158SOL     OW87011   2.358   7.833   7.191  0.3500  0.1835  0.2778
28158SOL    HW187012   2.448   7.822   7.161  0.4463  1.7119 -0.0046
28158SOL    HW287013   2.335   7.923   7.167 -1.7459 -0.6424 -0.9307
28159SOL     OW87014   1.612   5.863   2.555 -0.3223  0.5095 -0.3571
28159SOL    HW187015   1.691   5.908   2.525 -0.6901  0.8808 -0.7656
28159SOL    HW287016   1.567   5.836   2.475 -1.4789  1.8043 -0.1473
28160SOL     OW87017   7.555   2.405   2.672 -0.2803  0.5430  0.2310
28160SOL    HW187018   7.618   2.456   2.622  0.1873 -0.1901  0.0705
28160SOL    HW287019   7.603   2.327   2.699 -0.7089  0.6447  1.2984
28161SOL     OW87020   3.279  10.119   3.630 -0.3856 -0.1843 -0.4114
28161SOL    HW187021   3.206  10.181   3.635 -0.0107  0.4927 -2.9703
28161SOL    HW287022   3.313  10.128   3.541 -0.1554 -3.8500 -0.7858
28162SOL     OW87023   2.633   4.537   7.356 -0.6193  0.5347  0.1387
28162SOL    HW187024   2.623   4.588   7.436 -0.1566 -0.9561  1.1696
28162SOL    HW287025   2.647   4.447   7.386  1.3525  0.2394 -1.5582
28163SOL     OW87026   9.670   7.004   9.468 -0.3723 -0.2207 -0.3614
28163SOL    HW187027   9.666   6.927   9.524  0.9012 -1.2125 -1.5882
28163SOL    HW287028   9.656   7.078   9.527 -2.1217 -1.4076  0.7467
28164SOL     OW87029   4.409   8.443   0.199 -0.4709 -0.2495 -0.0398
28164SOL    HW187030   4.441   8.500   0.268 -0.7278  0.5014 -0.5353
28164SOL    HW287031   4.461   8.363   0.208  0.2638  0.2619  0.3180
28165SOL     OW87032  10.008   7.198   0.238 -0.1426 -0.1931  0.0169
28165SOL    HW187033  10.079   7.134   0.235 -0.2123 -0.2056 -2.1660
28165SOL    HW287034  10.042   7.274   0.190 -0.9106  0.5319  0.6003
28166SOL     OW87035   7.930   3.081   1.256  0.0419 -0.3961 -0.4626
28166SOL    HW187036   7.948   3.087   1.162  2.6837  0.3399  0.0406
28166SOL    HW287037   7.855   3.139   1.270 -0.3490 -0.4855 -2.1114
28167SOL     OW87038   5.354   0.679   9.269 -0.6835  0.4455 -0.2031
28167SOL    HW187039   5.325   0.616   9.335 -1.3811  0.5577 -0.3982
28167SOL    HW287040   5.275   0.701   9.220  0.0805 -0.8362 -2.1003
28168SOL     OW87041   8.175  10.201   3.180  0.0781 -0.6266 -0.1022
28168SOL    HW187042   8.268  10.206   3.201  0.3563 -0.5848 -1.3034
28168SOL    HW287043   8.132  10.191   3.265  1.0930  0.4177  0.5479
28169SOL     OW87044   7.497   0.239   2.931  0.1920 -0.0813 -0.2699
28169SOL    HW187045   7.406   0.251   2.903 -0.4280 -1.5743  1.0545
28169SOL    HW287046   7.530   0.168   2.877  0.5351  0.3638 -0.6493
28170SOL     OW87047   4.930   1.069   9.587  0.3560  0.2658  0.0389
28170SOL    HW187048   4.888   0.992   9.624 -0.2577 -0.1425 -1.4609
28170SOL    HW287049   4.858   1.122   9.552  0.9805  0.0103 -1.7026
28171SOL     OW87050   1.750   8.115   6.423 -0.0067  0.4674 -0.3744
28171SOL    HW187051   1.841   8.142   6.434 -0.4648  1.9390 -0.0723
28171SOL    HW287052   1.747   8.074   6.337  0.5142  2.3410 -1.3157
28172SOL     OW87053   5.172   2.372   9.619 -0.1264  0.0755 -0.1582
28172SOL    HW187054   5.181   2.296   9.677  1.1275  0.5290  0.2563
28172SOL    HW287055   5.258   2.381   9.579 -0.2613  1.3145 -0.1727
28173SOL     OW87056   6.365   7.284   0.731 -0.4997 -0.1124 -0.0570
28173SOL    HW187057   6.378   7.189   0.727  0.6995  0.0399  0.0637
28173SOL    HW287058   6.427   7.320   0.667 -0.2914  0.6478  0.5622
28174SOL     OW87059   0.317   6.442   4.058  0.3130 -0.1046 -0.0119
28174SOL    HW187060   0.234   6.458   4.104 -0.1501 -0.8587 -0.5730
28174SOL    HW287061   0.340   6.527   4.021  0.3581  0.3623  1.0748
28175SOL     OW87062   8.608   5.287   7.524  0.1512 -0.1656  0.3583
28175SOL    HW187063   8.692   5.327   7.502 -0.0469 -0.1038 -0.2946
28175SOL    HW287064   8.554   5.360   7.554  0.1916 -0.1384  0.3666
28176SOL     OW87065   6.400   6.881   9.283  0.2186 -0.2257  0.2089
28176SOL    HW187066   6.491   6.903   9.265  0.1043 -0.0019 -0.0955
28176SOL    HW287067   6.369   6.837   9.203  0.6825 -2.2476  1.1146
28177SOL     OW87068   8.572   2.997   6.215 -0.1172 -0.1842  0.1062
28177SOL    HW187069   8.600   3.009   6.306  0.0254  0.0178  0.0370
28177SOL    HW287070   8.498   2.937   6.221  0.2120 -0.5706  0.3132
28178SOL     OW87071   9.202   4.142   9.835 -0.7730  0.3811  0.1320
28178SOL    HW187072   9.191   4.083   9.910 -0.7392 -0.3150 -0.3985
28178SOL    HW287073   9.158   4.097   9.763 -0.4671  0.8611 -0.3557
28179SOL     OW87074   4.811   3.020   3.413 -0.2706 -0.1839  0.2271
28179SOL    HW187075   4.830   2.971   3.493  0.9876  1.4914  0.9976
28179SOL    HW287076   4.796   3.110   3.444 -0.2476  0.3743 -1.3758
28180SOL     OW87077   7.437   4.087   2.381 -0.0560  0.7334  0.2231
28180SOL    HW187078   7.525   4.117   2.405  0.0234  0.5419  0.1659
28180SOL    HW287079   7.379   4.142   2.434  0.1574 -0.5344  1.8094
28181SOL     OW87080   2.956   1.951   6.700 -0.3723 -0.2745 -0.5093
28181SOL    HW187081   2.935   1.875   6.754  3.7536 -1.9539 -1.1073
28181SOL    HW287082   3.034   1.988   6.741 -0.4930  1.7845 -2.0683
28182SOL     OW87083   6.094   0.500   1.563  0.3044 -0.4783 -0.6119
28182SOL    HW187084   6.091   0.468   1.473  0.7806  1.2016 -1.2582
28182SOL    HW287085   6.005   0.528   1.581 -0.3910 -3.1691  0.3728
28183SOL     OW87086   0.491   0.451   0.226  0.3281 -0.4988 -0.0690
28183SOL    HW187087   0.416   0.430   0.282  0.5618  1.5734  1.0335
28183SOL    HW287088   0.453   0.465   0.140 -0.5913  0.8443  0.5507
28184SOL     OW87089   2.293   5.795   0.782  0.2311  0.5983 -0.2682
28184SOL    HW187090   2.270   5.789   0.875  2.1849 -0.1380  0.1852
28184SOL    HW287091   2.258   5.715   0.743  0.3908  0.3636  0.0636
28185SOL     OW87092   8.646   2.272   0.342 -0.1354 -0.3008  0.6201
28185SOL    HW187093   8.623   2.285   0.250  1.4959  0.1217  0.2667
28185SOL    HW287094   8.670   2.180   0.349 -1.4656 -0.6359  0.8976
28186SOL     OW87095   8.757   8.691   5.985  0.1010 -0.2249 -0.2908
28186SOL    HW187096   8.787   8.741   5.909  0.1493 -0.5544 -0.4882
28186SOL    HW287097   8.831   8.634   6.006  0.0668 -0.1714 -0.0278
28187SOL     OW87098   5.338   9.264   8.112  0.2335  0.3490  0.4310
28187SOL    HW187099   5.275   9.197   8.088 -0.7314  1.3665  0.1146
28187SOL    HW287100   5.308   9.297   8.196  1.4054 -0.4619  1.1909
28188SOL     OW87101   0.370   3.783   8.447  0.1873 -0.5030  0.2924
28188SOL    HW187102   0.341   3.706   8.495  0.9810 -1.1662 -0.2758
28188SOL    HW287103   0.450   3.755   8.403  0.0126  0.3801 -0.6170
28189SOL     OW87104   7.688   7.485   5.594 -0.5790  0.4486 -0.3702
28189SOL    HW187105   7.627   7.486   5.520  0.2952 -0.4648 -1.1096
28189SOL    HW287106   7.733   7.401   5.588  0.6119  1.0192  0.2941
28190SOL     OW87107   7.849   0.406   9.808 -0.3126  0.1120 -0.3734
28190SOL    HW187108   7.826   0.482   9.754  1.8442  2.1420  1.4267
28190SOL    HW287109   7.945   0.410   9.815 -0.0692 -3.2526 -0.8581
28191SOL     OW87110   0.717   8.827  10.054 -0.4071  0.0997  0.4848
28191SOL    HW187111   0.753   8.845   9.967 -1.0697 -1.4924 -0.1387
28191SOL    HW287112   0.793   8.803  10.107  0.0512  1.4534  0.4768
28192SOL     OW87113   0.930   3.893   9.757 -0.6761 -0.7324  0.3127
28192SOL    HW187114   0.874   3.819   9.781 -0.9394 -1.3501 -2.0357
28192SOL    HW287115   0.950   3.879   9.665  1.7298  0.5572  0.5898
28193SOL     OW87116   2.271   6.163   4.164 -0.3658 -0.3475  0.2098
28193SOL    HW187117   2.177   6.167   4.176 -0.4577 -1.9034  0.1594
28193SOL    HW287118   2.283   6.107   4.087  0.6056 -0.2591  0.2845
28194SOL     OW87119   1.804   7.543   4.171  0.3915  0.1216 -0.3755
28194SOL    HW187120   1.834   7.474   4.229  1.1068  1.0014  0.3000
28194SOL    HW287121   1.873   7.552   4.106 -0.3939 -0.8441 -1.3821
28195SOL     OW87122   1.082   3.339   1.023  0.3858 -0.7847  0.2188
28195SOL    HW187123   1.172   3.320   0.997  0.6274  0.9994 -0.3022
28195SOL    HW287124   1.040   3.253   1.028  1.9803 -1.5893 -0.0254
28196SOL     OW87125   0.396   2.199   4.531 -0.2620  0.6201  0.1813
28196SOL    HW187126   0.492   2.193   4.535 -0.3872 -1.3523  0.6544
28196SOL    HW287127   0.380   2.277   4.478  1.5938  2.5631  2.3098
28197SOL     OW87128   4.215   5.558   2.098 -0.4202 -0.0276 -0.5783
28197SOL    HW187129   4.256   5.484   2.052 -0.2525  0.5774 -1.4370
28197SOL    HW287130   4.232   5.633   2.040 -1.0803  0.5739  0.0059
28198SOL     OW87131   8.340   6.712   8.697 -1.2525  0.2749 -0.2238
28198SOL    HW187132   8.431   6.705   8.727 -0.7482 -0.4515 -1.9019
28198SOL    HW287133   8.297   6.764   8.765  0.4348  0.6896  0.5558
28199SOL     OW87134   1.993   1.103   4.556 -0.4945 -0.4718  0.4453
28199SOL    HW187135   2.077   1.100   4.601 -1.1603  2.0379  1.9660
28199SOL    HW287136   1.928   1.104   4.627 -1.7701 -0.9703 -0.6830
28200SOL     OW87137   3.507   1.228   9.612  0.0395  0.1039 -0.2688
28200SOL    HW187138   3.519   1.313   9.570 -0.6324  0.1907 -0.2864
28200SOL    HW287139   3.592   1.209   9.652 -0.1863  1.4316  0.9052
28201SOL     OW87140  10.112   4.600   5.415 -0.3080  0.0120  0.6854
28201SOL    HW187141  10.072   4.669   5.362 -3.0933 -0.9976  1.3369
28201SOL    HW287142  10.180   4.644   5.466  0.1385  1.6192 -1.2465
28202SOL     OW87143   4.541   7.084   4.784 -0.4727  0.7895  0.1988
28202SOL    HW187144   4.455   7.045   4.768  0.0364 -1.0547  1.7601
28202SOL    HW287145   4.583   7.025   4.847  2.9950  0.1760 -2.5507
28203SOL     OW87146   5.205   8.286   0.089  0.0688 -0.4312 -0.1949
28203SOL    HW187147   5.235   8.372   0.061  0.4889 -0.2923  0.6638
28203SOL    HW287148   5.161   8.301   0.173 -0.3810 -0.9692 -0.3255
28204SOL     OW87149   7.291   3.843   9.915  0.0643 -0.1413 -0.3570
28204SOL    HW187150   7.232   3.767   9.915 -0.8989  0.5937  0.7848
28204SOL    HW287151   7.233   3.918   9.904  1.0269  0.4414 -1.5804
28205SOL     OW87152   3.106   9.214   8.442  0.3768  0.2441 -0.0118
28205SOL    HW187153   3.165   9.251   8.376 -0.0589  0.2075 -0.4314
28205SOL    HW287154   3.027   9.268   8.435  0.0138 -0.3025 -0.1137
28206SOL     OW87155   0.531   7.617  10.164 -0.0772  0.0405 -0.5377
28206SOL    HW187156   0.495   7.548  10.220 -0.0825 -0.1051 -0.7175
28206SOL    HW287157   0.493   7.599  10.078 -2.2820  1.9161 -0.0073
28207SOL     OW87158   2.377   1.477   5.456  0.5854  0.2285 -0.3036
28207SOL    HW187159   2.370   1.522   5.540  1.0888 -1.7702  0.8540
28207SOL    HW287160   2.452   1.518   5.412  0.3197  1.2739  0.2021
28208SOL     OW87161   5.533   5.790   5.563 -0.4136  0.0646 -0.5565
28208SOL    HW187162   5.469   5.861   5.561 -0.8046 -0.2801 -0.5473
28208SOL    HW287163   5.568   5.786   5.474 -0.4156  0.2513 -0.5639
28209SOL     OW87164   9.743   9.666   4.966 -0.5410 -0.3618  0.4968
28209SOL    HW187165   9.797   9.715   4.904 -0.1068 -0.8925  0.4567
28209SOL    HW287166   9.724   9.728   5.036 -1.2622  0.3267 -0.2978
28210SOL     OW87167   3.576   5.822   4.220  0.2968  0.2474  0.3174
28210SOL    HW187168   3.669   5.840   4.237  1.0917 -2.1184 -1.3113
28210SOL    HW287169   3.560   5.737   4.260 -0.7942 -0.0150 -0.6528
28211SOL     OW87170   4.110   7.566   2.303  0.6224 -0.5110 -0.2697
28211SOL    HW187171   4.034   7.538   2.356  0.2586 -0.4908 -0.7794
28211SOL    HW287172   4.083   7.552   2.213  1.6653 -1.5850 -0.4211
28212SOL     OW87173   5.353   6.762   1.162  0.3756 -1.0167 -0.9267
28212SOL    HW187174   5.371   6.758   1.068  1.4850  0.2201 -0.7779
28212SOL    HW287175   5.400   6.840   1.192  0.1353 -1.4791  0.6773
28213SOL     OW87176   2.341   2.748   4.709  0.3153 -0.3043  0.1268
28213SOL    HW187177   2.302   2.667   4.675  0.0246 -0.3036  0.4567
28213SOL    HW287178   2.408   2.771   4.644  0.9772 -1.2631  0.4679
28214SOL     OW87179   0.003   7.502   7.481  0.1084  0.1432  0.2739
28214SOL    HW187180  -0.011   7.521   7.388  1.6112 -0.3565 -0.0581
28214SOL    HW287181  -0.050   7.423   7.497 -0.8992  0.7624  0.0871
28215SOL     OW87182   6.581   7.212   3.551  0.2168  0.7516  0.1911
28215SOL    HW187183   6.599   7.178   3.638  3.1927  1.9917  0.1251
28215SOL    HW287184   6.543   7.299   3.566  1.2890  1.2169  0.2795
28216SOL     OW87185   3.399  10.139   0.287  0.2547  0.0875 -0.5167
28216SOL    HW187186   3.390  10.195   0.364  1.5342 -0.0923 -0.2355
28216SOL    HW287187   3.309  10.120   0.261 -0.2219  2.4094 -0.7110
28217SOL     OW87188   5.730   8.052   9.421  0.6324  0.0609 -0.7379
28217SOL    HW187189   5.807   7.996   9.411 -0.0133 -1.0262  0.1745
28217SOL    HW287190   5.657   7.999   9.388  0.0996  0.5940 -0.4441
28218SOL     OW87191   8.463   6.140   4.108 -0.0002  0.5193 -0.2353
28218SOL    HW187192   8.482   6.096   4.025 -1.3687 -0.7888  0.1248
28218SOL    HW287193   8.502   6.227   4.098  1.6996 -0.3587 -1.4226
28219SOL     OW87194   6.188   5.674   0.172 -0.4055 -0.1395 -0.4455
28219SOL    HW187195   6.223   5.679   0.083  1.9749  0.4760  0.4970
28219SOL    HW287196   6.196   5.764   0.205 -2.6715 -0.0345 -0.0957
28220SOL     OW87197   1.058   9.988   1.944 -0.1257  0.2153  0.6072
28220SOL    HW187198   1.128   9.993   1.879 -0.3854 -0.0495  0.2978
28220SOL    HW287199   0.983  10.028   1.900 -0.2898  0.0756  0.7604
28221SOL     OW87200   3.843   2.466   0.090 -0.1154 -0.3634  0.4432
28221SOL    HW187201   3.809   2.437   0.175  0.5170 -1.6173  0.2841
28221SOL    HW287202   3.872   2.556   0.105  0.0243 -0.5898  1.5662
28222SOL     OW87203   2.032   6.490   1.386  0.1460  0.2756 -0.4272
28222SOL    HW187204   1.976   6.467   1.311  0.1265  0.2783 -0.4133
28222SOL    HW287205   1.971   6.516   1.454  0.0713 -1.4067  0.1727
28223SOL     OW87206   1.227   0.801   1.463 -0.8268 -0.3094  0.1585
28223SOL    HW187207   1.182   0.737   1.517  1.3018 -0.1025  2.2504
28223SOL    HW287208   1.232   0.879   1.518  2.4499 -0.4782  0.1691
28224SOL     OW87209   1.342   2.050   2.334  0.4485 -0.3869  0.7940
28224SOL    HW187210   1.419   2.076   2.385 -0.3504  1.0837  1.2841
28224SOL    HW287211   1.354   2.096   2.250  1.1735 -1.8732  0.0644
28225SOL     OW87212   6.313   1.485   4.121 -0.4478  0.1396  0.2909
28225SOL    HW187213   6.298   1.537   4.042  1.6253 -1.2101 -1.0406
28225SOL    HW287214   6.235   1.431   4.129 -1.5501  1.6974  0.3161
28226SOL     OW87215   7.036   5.421   0.306 -0.0656 -0.0167 -0.6384
28226SOL    HW187216   7.070   5.337   0.335  0.3991 -0.0945 -1.3910
28226SOL    HW287217   7.035   5.414   0.210  3.9594  2.3562 -0.9693
28227SOL     OW87218   3.205   5.882   6.027 -0.4608 -0.8009 -0.0101
28227SOL    HW187219   3.289   5.914   6.061 -1.0109  0.6239  0.0520
28227SOL    HW287220   3.160   5.849   6.105  0.1857 -1.9616 -0.1030
28228SOL     OW87221   5.892   9.664   9.452 -0.3815 -0.8044 -0.4321
28228SOL    HW187222   5.924   9.741   9.500  0.5334 -0.2561 -1.9087
28228SOL    HW287223   5.960   9.646   9.388 -1.6485 -1.4876 -1.5904
28229SOL     OW87224   7.550   0.564   5.054  0.3049  0.0964 -0.4188
28229SOL    HW187225   7.583   0.476   5.033  1.8256  1.2366 -3.0918
28229SOL    HW287226   7.627   0.609   5.090 -0.0976  0.7710 -0.4108
28230SOL     OW87227   7.295   8.817   8.746 -0.7524 -0.0977  0.2502
28230SOL    HW187228   7.362   8.885   8.755  0.7479 -1.0167 -3.0851
28230SOL    HW287229   7.296   8.771   8.830  1.6494  0.9519  0.8365
28231SOL     OW87230   3.913   0.488   8.968 -0.4415  0.5073  0.3360
28231SOL    HW187231   4.003   0.474   8.938  0.1702  1.9864  1.4562
28231SOL    HW287232   3.908   0.439   9.051 -0.9941 -0.4288 -0.2367
28232SOL     OW87233   3.529   4.411   5.823  0.6602 -0.3297  0.1086
28232SOL    HW187234   3.481   4.491   5.843 -2.5744 -2.2388  0.4186
28232SOL    HW287235   3.574   4.389   5.904  0.0861  0.2231  0.5810
28233SOL     OW87236   5.354   7.391  10.095 -0.0783  0.2874 -0.4386
28233SOL    HW187237   5.288   7.345  10.147  0.2881  0.2305 -0.0275
28233SOL    HW287238   5.404   7.442  10.159 -0.0702  0.7518 -0.8173
28234SOL     OW87239   2.933   6.114   7.993  0.4486  0.1312  0.1393
28234SOL    HW187240   2.995   6.071   8.053 -0.7631 -0.4762  0.9837
28234SOL    HW287241   2.951   6.075   7.908 -0.5284 -1.9730  0.8637
28235SOL     OW87242   0.777   8.515   1.659  0.1593  0.8611 -0.3769
28235SOL    HW187243   0.726   8.515   1.578 -0.1795 -0.3585 -0.1760
28235SOL    HW287244   0.714   8.542   1.726 -0.0159  0.1489 -0.2531
28236SOL     OW87245   1.333   4.880   7.367 -0.5995 -0.5320  0.2955
28236SOL    HW187246   1.262   4.944   7.366  0.2537  0.4525 -1.8380
28236SOL    HW287247   1.290   4.796   7.352 -1.3772 -0.0233 -0.3862
28237SOL     OW87248   4.167   6.306   1.010  0.0247 -0.6464 -0.4157
28237SOL    HW187249   4.151   6.232   1.069 -2.4547 -0.8749 -1.3309
28237SOL    HW287250   4.262   6.319   1.013  0.3809 -3.2024  0.5609
28238SOL     OW87251   3.386   1.447   2.851 -0.4206  0.1929  0.0019
28238SOL    HW187252   3.324   1.399   2.906 -1.6706  1.0113 -0.6424
28238SOL    HW287253   3.432   1.380   2.801  1.0425 -0.5814  2.3380
28239SOL     OW87254   2.466   4.851   3.797 -0.4806  0.1066  0.1672
28239SOL    HW187255   2.555   4.884   3.809 -1.1663  1.1393  2.8391
28239SOL    HW287256   2.417   4.926   3.763 -0.0241 -0.9115 -2.8530
28240SOL     OW87257   1.024   9.027   6.750  0.7572 -0.0003  1.1405
28240SOL    HW187258   0.995   9.095   6.812  2.0417  1.3349  0.3096
28240SOL    HW287259   1.065   9.076   6.678  1.0055 -1.6293  0.1512
28241SOL     OW87260   1.722   4.518   5.264  0.0366  0.0470  0.2410
28241SOL    HW187261   1.800   4.511   5.209  0.7698  1.0217  1.1395
28241SOL    HW287262   1.650   4.528   5.202  0.8806  1.3957 -0.5377
28242SOL     OW87263   3.610   7.002   8.516  0.2069  0.0664 -0.0316
28242SOL    HW187264   3.585   6.979   8.606 -0.2187  1.1698  0.1361
28242SOL    HW287265   3.608   7.097   8.514 -1.9228  0.0411 -1.7829
28243SOL     OW87266   0.221   2.933   6.278  0.4486 -0.4921 -0.0780
28243SOL    HW187267   0.223   3.021   6.241  0.7550  0.2102  1.5680
28243SOL    HW287268   0.151   2.889   6.230 -1.3714  1.4164  0.7521
28244SOL     OW87269   2.566   1.874   6.023 -0.3577  0.1945 -0.2297
28244SOL    HW187270   2.536   1.949   6.074  0.9031  1.9902 -2.0650
28244SOL    HW287271   2.654   1.857   6.056  0.4218  1.2967 -1.7125
28245SOL     OW87272   3.615   1.660   5.093  0.1557 -0.2600 -0.2082
28245SOL    HW187273   3.689   1.659   5.153 -1.3255  0.2260  1.6694
28245SOL    HW287274   3.538   1.674   5.149 -1.2993 -0.1446 -2.1657
28246SOL     OW87275   3.926   2.311   9.838  0.2136 -0.0428 -0.2667
28246SOL    HW187276   3.934   2.216   9.840 -2.0812 -0.2367  0.6886
28246SOL    HW287277   3.896   2.331   9.749  0.7617 -0.1980 -0.4878
28247SOL     OW87278   3.709   6.874   1.209 -0.4452 -0.6685  0.5675
28247SOL    HW187279   3.762   6.847   1.284  0.4590  0.0420  0.1819
28247SOL    HW287280   3.629   6.820   1.217 -0.2432 -0.8093  1.8715
28248SOL     OW87281   1.991   0.227   9.041 -0.3614  0.4094  0.4016
28248SOL    HW187282   1.913   0.177   9.065  0.5916 -0.6314  1.3978
28248SOL    HW287283   1.966   0.318   9.054 -1.7904  0.1535 -0.4280
28249SOL     OW87284   9.134   4.301   3.749 -0.2778  0.4962  0.2127
28249SOL    HW187285   9.159   4.357   3.822 -0.6849  0.6051  0.2696
28249SOL    HW287286   9.150   4.355   3.671 -1.3056  0.9420  0.3006
28250SOL     OW87287   6.343   2.544   4.610 -0.3597 -0.2280 -0.4619
28250SOL    HW187288   6.355   2.619   4.668  0.2485 -1.6761  1.3502
28250SOL    HW287289   6.250   2.547   4.586 -0.3421  1.0850 -0.3994
28251SOL     OW87290   0.327   7.052   0.064  0.0506  0.0128  0.4747
28251SOL    HW187291   0.348   7.114  -0.005 -1.5939  0.3060  0.2237
28251SOL    HW287292   0.318   6.968   0.019  0.2917 -0.0464  0.5341
28252SOL     OW87293   0.860   5.932   0.998  0.0924 -0.3532 -0.8972
28252SOL    HW187294   0.935   5.970   1.044  0.2887 -0.8320 -0.8188
28252SOL    HW287295   0.800   6.006   0.985  0.3318 -0.0800 -0.4694
28253SOL     OW87296   7.512   8.713   4.077 -0.3171 -0.4197  0.4516
28253SOL    HW187297   7.585   8.682   4.131  0.4393 -0.6993 -0.7074
28253SOL    HW287298   7.478   8.789   4.124  0.5659 -0.4373  1.1382
28254SOL     OW87299   4.342   9.844   2.865  0.1600  0.4911  0.3241
28254SOL    HW187300   4.341   9.879   2.954 -1.2455 -2.8954  1.7266
28254SOL    HW287301   4.434   9.829   2.846  0.8633  4.9535 -0.4327
28255SOL     OW87302   7.569   7.074   6.868 -0.1446  0.5950  0.3944
28255SOL    HW187303   7.524   7.060   6.951 -1.0258  0.0418 -0.1630
28255SOL    HW287304   7.660   7.054   6.885 -0.2523  0.9000  1.3341
28256SOL     OW87305   8.856   4.463   5.082  0.0750 -0.3983  0.1138
28256SOL    HW187306   8.904   4.544   5.099  0.2431 -0.5221  0.2294
28256SOL    HW287307   8.777   4.470   5.135 -0.4625  0.2025 -0.7612
28257SOL     OW87308   6.087   1.540   5.375 -0.0857  0.3224  0.6799
28257SOL    HW187309   6.117   1.629   5.356  0.5566  0.0948  0.6287
28257SOL    HW287310   5.999   1.537   5.337  0.1637  0.7127  0.0540
28258SOL     OW87311   7.162   2.699   7.207 -0.0234  0.8095  0.3262
28258SOL    HW187312   7.175   2.671   7.297  2.0278 -0.6613 -0.3712
28258SOL    HW287313   7.243   2.745   7.184  0.0441 -0.0151 -1.1778
28259SOL     OW87314   3.889   7.827   3.456  0.2988  0.1913  0.0192
28259SOL    HW187315   3.921   7.916   3.445  2.3445 -0.3530  1.3769
28259SOL    HW287316   3.916   7.802   3.544  1.3903 -2.4169 -1.0069
28260SOL     OW87317   4.609   3.093   1.348 -0.8948 -0.1270 -0.0932
28260SOL    HW187318   4.703   3.075   1.342 -1.1308 -1.4363  0.1125
28260SOL    HW287319   4.599   3.179   1.307  0.6267  0.8002  1.4085
28261SOL     OW87320   4.379   1.445   5.386 -0.0200 -0.0818 -0.0394
28261SOL    HW187321   4.318   1.412   5.452  0.6994 -0.4436  0.4487
28261SOL    HW287322   4.349   1.534   5.369  0.2865  0.3068  1.3934
28262SOL     OW87323   5.663   6.778  10.070 -0.1496  0.0832 -0.2035
28262SOL    HW187324   5.573   6.745  10.066  0.0463 -0.4837  0.0195
28262SOL    HW287325   5.707   6.736   9.996  0.3561 -0.9242  0.6766
28263SOL     OW87326   8.815   5.752   6.582  0.3909 -0.4095 -0.3060
28263SOL    HW187327   8.726   5.766   6.616  0.3297 -1.9631  0.2132
28263SOL    HW287328   8.869   5.815   6.631 -0.5873  1.3671 -1.4639
28264SOL     OW87329   2.516   0.746   3.982  0.0203  0.2543  0.1965
28264SOL    HW187330   2.495   0.835   4.009  0.3763  0.7291 -1.0437
28264SOL    HW287331   2.603   0.752   3.942 -0.5381 -0.3763 -1.1690
28265SOL     OW87332   8.533   0.338   6.391  0.3043  0.6920 -0.1034
28265SOL    HW187333   8.440   0.343   6.413 -0.1729 -0.3005 -1.8063
28265SOL    HW287334   8.562   0.429   6.390 -0.6712  1.0127  0.3800
28266SOL     OW87335   3.703   9.269   0.897  0.9081 -0.1956  0.2772
28266SOL    HW187336   3.637   9.205   0.869 -0.2054  1.6775 -1.4511
28266SOL    HW287337   3.701   9.337   0.831  3.3519  0.7969  1.1593
28267SOL     OW87338   8.039   1.872   9.098  0.0204  0.1286 -0.5153
28267SOL    HW187339   7.953   1.865   9.056 -0.4356 -0.5265  0.4995
28267SOL    HW287340   8.020   1.909   9.184  0.7352 -0.2180 -0.2079
28268SOL     OW87341   0.771   0.378   0.671  0.6961 -0.1253  0.1782
28268SOL    HW187342   0.732   0.403   0.755  0.5160  0.0462  0.0449
28268SOL    HW287343   0.751   0.451   0.613 -1.7533 -1.5084 -0.8189
28269SOL     OW87344   3.780   9.994   5.128 -0.7052 -0.6776 -0.0296
28269SOL    HW187345   3.727  10.012   5.206  0.8601  3.5460  0.1993
28269SOL    HW287346   3.730  10.032   5.056  0.5894  0.7300 -0.2090
28270SOL     OW87347   8.336   9.276   8.036  0.2448 -0.2028 -0.0747
28270SOL    HW187348   8.298   9.334   7.970  3.2951  1.1129 -0.7317
28270SOL    HW287349   8.317   9.188   8.004  0.2152  0.4203 -1.8376
28271SOL     OW87350   5.056   5.837   5.847  0.4415 -0.2687 -0.7346
28271SOL    HW187351   5.098   5.832   5.933 -0.0721 -4.3810 -0.6063
28271SOL    HW287352   4.972   5.878   5.864  1.3965  1.3421  0.2457
28272SOL     OW87353   2.059   1.484   9.279  0.6528 -0.4181 -0.1274
28272SOL    HW187354   2.100   1.529   9.205  1.1046 -1.3964 -0.4906
28272SOL    HW287355   2.046   1.552   9.345  0.7983  0.3448 -0.8779
28273SOL     OW87356   4.026   0.519   8.434 -0.2149  0.0104 -0.0657
28273SOL    HW187357   3.963   0.447   8.439  0.3523 -0.7411 -2.8089
28273SOL    HW287358   4.014   0.567   8.516 -3.3235 -0.9638  0.1250
28274SOL     OW87359   4.994   4.028   4.990 -0.2097  0.3996  0.1447
28274SOL    HW187360   4.920   4.086   5.005 -0.0022  1.4374 -2.5241
28274SOL    HW287361   4.956   3.951   4.949 -0.1326 -0.1887  1.1669
28275SOL     OW87362   6.717   8.791   5.214 -0.1082  0.0423  0.0940
28275SOL    HW187363   6.788   8.736   5.247  1.6101  1.2254 -1.6258
28275SOL    HW287364   6.655   8.728   5.176  0.1713 -0.9578  1.2407
28276SOL     OW87365   4.950   6.166   6.715  0.2996  0.0338  0.5758
28276SOL    HW187366   4.906   6.134   6.636  1.0548  0.7910 -0.1756
28276SOL    HW287367   4.880   6.191   6.774 -0.2839  1.5021 -0.7184
28277SOL     OW87368   3.572   1.956   2.986  0.6912  0.0595  0.1794
28277SOL    HW187369   3.597   2.015   3.057  1.9208  0.2216 -0.3666
28277SOL    HW287370   3.608   1.997   2.907 -0.8026 -0.0409 -0.5565
28278SOL     OW87371   8.190   9.089  10.191 -0.2588  0.2727  0.2841
28278SOL    HW187372   8.156   9.103  10.279 -0.6570  1.8793 -0.1138
28278SOL    HW287373   8.282   9.066  10.205 -0.7467 -1.2560  1.1934
28279SOL     OW87374   3.363   0.209   4.347  0.0402  0.3755 -0.0395
28279SOL    HW187375   3.293   0.223   4.283 -0.9354 -0.5248  0.8130
28279SOL    HW287376   3.318   0.207   4.432  0.8668 -1.9002  0.3787
28280SOL     OW87377   2.214   2.663   8.035  0.4630 -0.5164  0.2813
28280SOL    HW187378   2.164   2.635   7.959  0.7912  0.9460 -0.4722
28280SOL    HW287379   2.153   2.716   8.086  0.9880  0.5818 -0.2252
28281SOL     OW87380   8.685   4.360   3.058  0.2103 -0.4251  0.1880
28281SOL    HW187381   8.716   4.366   2.968 -1.9494 -1.3686 -0.6726
28281SOL    HW287382   8.736   4.288   3.096  2.4119  1.1715  0.3012
28282SOL     OW87383   9.266   3.309   6.836 -0.2422 -0.0442 -0.1397
28282SOL    HW187384   9.185   3.299   6.886 -1.0450 -0.0443 -1.4063
28282SOL    HW287385   9.248   3.382   6.777  0.6258 -0.1488 -0.5335
28283SOL     OW87386   1.667   8.600   7.012  0.4459  0.1921 -0.3498
28283SOL    HW187387   1.584   8.560   6.985 -0.1101  0.0674  1.4805
28283SOL    HW287388   1.645   8.691   7.030  0.9861  0.4735 -1.0957
28284SOL     OW87389   7.180   8.268   0.794  0.1446  0.2398 -0.4999
28284SOL    HW187390   7.124   8.258   0.717 -0.9498 -1.7301  0.4992
28284SOL    HW287391   7.140   8.339   0.844 -0.6782 -0.2569 -0.4505
28285SOL     OW87392   9.330   2.709   3.384 -0.6983 -0.1234 -0.7698
28285SOL    HW187393   9.268   2.664   3.441 -0.7503 -1.7930 -2.0716
28285SOL    HW287394   9.376   2.770   3.441  2.4499 -4.9120  2.1392
28286SOL     OW87395   3.158   6.652   5.665  0.0269 -0.7523  0.0115
28286SOL    HW187396   3.166   6.638   5.571 -2.2990  0.0619 -0.3583
28286SOL    HW287397   3.218   6.588   5.704  0.9263 -1.1889 -2.0036
28287SOL     OW87398   0.673   3.873   7.875 -0.9757  0.0983 -0.3067
28287SOL    HW187399   0.652   3.936   7.806 -0.5564 -0.0882 -0.6073
28287SOL    HW287400   0.759   3.899   7.907 -0.7286 -0.4005 -0.5390
28288SOL     OW87401   0.061   5.690   9.788 -0.8051  0.2366 -0.3232
28288SOL    HW187402   0.127   5.723   9.850 -2.7126  0.7521  1.5095
28288SOL    HW287403   0.009   5.768   9.766 -0.6291 -0.1085 -1.9630
28289SOL     OW87404   7.289   2.639   3.017 -0.1820  0.2874  0.5725
28289SOL    HW187405   7.302   2.732   2.998 -0.4603  0.4127  0.9834
28289SOL    HW287406   7.309   2.595   2.935 -1.1969  0.7993  0.0435
28290SOL     OW87407   6.083   6.675   4.962 -0.2734  0.4405 -0.1833
28290SOL    HW187408   6.100   6.645   4.873 -0.4141  0.1642 -0.1164
28290SOL    HW287409   5.988   6.688   4.966 -0.5042 -1.3965  0.5017
28291SOL     OW87410   1.175  10.071   9.456 -0.1713  0.3367  0.2496
28291SOL    HW187411   1.084  10.070   9.426 -0.1580  1.7860  0.1301
28291SOL    HW287412   1.198  10.164   9.462  0.5236  0.0488  2.6466
28292SOL     OW87413   4.121   9.161   5.984  0.5530  0.4693  0.3754
28292SOL    HW187414   4.148   9.070   5.972 -1.3507  0.0375 -0.8330
28292SOL    HW287415   4.026   9.158   5.985  0.4748  2.3127  1.5761
28293SOL     OW87416   5.486   5.638   0.836  0.3033 -0.7572  0.6262
28293SOL    HW187417   5.563   5.638   0.894  0.5920 -1.5371  0.2529
28293SOL    HW287418   5.452   5.549   0.841  0.3275 -0.8333 -0.4008
28294SOL     OW87419   3.704   6.256   7.407  0.6232 -1.3007 -0.1443
28294SOL    HW187420   3.696   6.215   7.321 -2.0329  1.1477 -1.1638
28294SOL    HW287421   3.797   6.277   7.415  0.9806 -1.9821 -2.2029
28295SOL     OW87422   7.362   8.552   3.754  0.3836  0.0601  0.0038
28295SOL    HW187423   7.337   8.460   3.751 -0.1658  0.1228  1.9733
28295SOL    HW287424   7.356   8.576   3.847 -2.1821  2.8253 -0.7823
28296SOL     OW87425  10.088   6.470   0.716 -0.2654 -0.1932  0.4271
28296SOL    HW187426  10.162   6.411   0.705 -0.1136 -0.3881  2.3566
28296SOL    HW287427  10.030   6.425   0.778 -1.4164  0.5066 -0.1168
28297SOL     OW87428   5.709   5.248   6.588  0.1820 -0.3058 -0.1501
28297SOL    HW187429   5.775   5.268   6.655  0.9042 -0.8182 -0.6952
28297SOL    HW287430   5.715   5.154   6.575 -1.7624 -0.5966  0.8984
28298SOL     OW87431   1.647   1.292   2.648  0.8472  0.0766  0.1119
28298SOL    HW187432   1.730   1.304   2.694  0.6026 -0.0739  0.6026
28298SOL    HW287433   1.581   1.322   2.710  0.5057 -0.2210 -0.1060
28299SOL     OW87434   1.942   2.809   4.059 -0.0551 -0.7675  0.1552
28299SOL    HW187435   2.033   2.815   4.088 -0.3522 -0.8177  1.1062
28299SOL    HW287436   1.891   2.800   4.140 -1.2618  3.0872 -0.0322
28300SOL     OW87437   8.813   9.916  10.074  0.2914  0.2512  0.2105
28300SOL    HW187438   8.907   9.936  10.072 -0.1347  2.6271  1.1225
28300SOL    HW287439   8.773   9.999  10.101 -2.0573 -0.7788 -0.0687
28301SOL     OW87440   7.461   4.266   7.122  0.3321  0.0950  0.0552
28301SOL    HW187441   7.540   4.319   7.117 -0.0821  0.7265  0.0286
28301SOL    HW287442   7.470   4.215   7.202  1.0424 -0.2901 -0.2734
28302SOL     OW87443   4.317   4.853  10.154  0.5613 -0.0502  0.3362
28302SOL    HW187444   4.227   4.821  10.156  0.0905  1.2411  0.3084
28302SOL    HW287445   4.326   4.894  10.068  1.7681 -1.7997 -0.4122
28303SOL     OW87446   3.797   2.136   4.284 -0.4013  0.3592 -0.6699
28303SOL    HW187447   3.863   2.140   4.215 -0.7613 -1.9844 -1.1910
28303SOL    HW287448   3.836   2.079   4.351 -1.2910  0.1666 -0.3147
28304SOL     OW87449   7.487   3.670   5.826  0.2118  0.5538  0.0515
28304SOL    HW187450   7.481   3.576   5.845  3.1934  0.4300  0.7094
28304SOL    HW287451   7.507   3.675   5.733  0.3851  0.5008  0.0849
28305SOL     OW87452   5.991   0.659   3.443 -0.0812  0.5050 -0.2432
28305SOL    HW187453   5.965   0.567   3.443  0.3399  0.3826  0.6576
28305SOL    HW287454   6.024   0.674   3.354 -1.0353  0.0482 -0.6836
28306SOL     OW87455   6.110   9.702   0.946  0.2653  0.2146 -0.7117
28306SOL    HW187456   6.162   9.767   0.900  0.9562 -0.2562 -0.6074
28306SOL    HW287457   6.154   9.691   1.030  0.6068 -0.9482 -1.0270
28307SOL     OW87458   0.302   8.972   8.018 -0.0065  0.2566 -0.6218
28307SOL    HW187459   0.244   9.046   8.034  0.1100  0.3458 -0.6146
28307SOL    HW287460   0.382   8.994   8.064  0.4506  0.6648 -1.5884
28308SOL     OW87461   7.043   8.019   8.404 -0.1491  0.3007 -0.1744
28308SOL    HW187462   7.002   8.005   8.318  2.2291  0.4788 -1.3881
28308SOL    HW287463   6.974   7.998   8.467 -2.0241  0.3874 -2.1251
28309SOL     OW87464   9.202   6.568  10.146 -0.4365  0.1445  0.2428
28309SOL    HW187465   9.273   6.599  10.202  1.0101 -2.2751 -0.1348
28309SOL    HW287466   9.230   6.591  10.057 -0.1948 -0.6709  0.1055
28310SOL     OW87467   3.362  10.031   3.149  0.0583 -0.4641  0.3657
28310SOL    HW187468   3.394  10.082   3.075 -0.0282  0.1983  0.7843
28310SOL    HW287469   3.365   9.940   3.119 -1.1784 -0.0967 -0.9183
28311SOL     OW87470   6.514   7.653   6.569 -0.1243 -0.2250 -0.1473
28311SOL    HW187471   6.438   7.686   6.617 -0.6280  1.3004 -1.9395
28311SOL    HW287472   6.583   7.716   6.587 -0.2860  0.2961 -1.3367
28312SOL     OW87473   8.564   1.669   8.938  0.1666  0.2098  0.7513
28312SOL    HW187474   8.651   1.706   8.953  0.0914 -0.2556  2.4829
28312SOL    HW287475   8.563   1.647   8.845  1.4661  1.3176  0.4476
28313SOL     OW87476   7.082   5.899   7.513  0.0825 -0.6573  0.5992
28313SOL    HW187477   7.041   5.972   7.466  0.3354 -1.3960 -0.8080
28313SOL    HW287478   7.115   5.842   7.444 -0.6550 -2.4241  1.6742
28314SOL     OW87479   9.824   1.055   1.038 -0.1902 -0.3189 -0.0631
28314SOL    HW187480   9.861   0.995   1.103  0.0285 -1.7994 -1.5264
28314SOL    HW287481   9.796   0.998   0.966 -1.1142  1.2232 -0.9456
28315SOL     OW87482   7.310   6.465   3.523  0.1312 -0.3652 -0.1880
28315SOL    HW187483   7.297   6.371   3.508 -2.1243  0.0827 -1.3400
28315SOL    HW287484   7.262   6.483   3.604 -0.0193 -0.1018 -0.3342
28316SOL     OW87485   4.176   9.825   6.841  0.6291  0.7071 -0.5990
28316SOL    HW187486   4.226   9.904   6.862  0.4926  0.3390  1.1808
28316SOL    HW287487   4.241   9.763   6.808  1.1311  0.7290  0.3343
28317SOL     OW87488   9.093   2.749   0.796 -0.0204 -0.2848  0.1669
28317SOL    HW187489   9.169   2.778   0.745 -0.7939  0.8453 -0.3768
28317SOL    HW287490   9.094   2.654   0.789  0.0576 -0.1602 -1.7594
28318SOL     OW87491   8.259   3.709   0.649 -0.1513  0.3765 -0.0737
28318SOL    HW187492   8.292   3.782   0.598 -0.3744  0.1625 -0.5264
28318SOL    HW287493   8.267   3.737   0.740  1.0973  0.4002 -0.1865
28319SOL     OW87494   9.801   4.763   8.573 -0.2408  0.0888  0.3614
28319SOL    HW187495   9.757   4.687   8.535  2.6933 -2.2261  1.4295
28319SOL    HW287496   9.748   4.787   8.648 -1.5919 -0.4149 -0.4123
28320SOL     OW87497   3.258   3.702   8.594  0.1180  0.3972  0.4157
28320SOL    HW187498   3.308   3.739   8.521 -0.2326  0.3411  0.1451
28320SOL    HW287499   3.244   3.611   8.570 -2.3927  1.0510 -0.7756
28321SOL     OW87500   2.700   0.891   1.886  0.1555 -0.1253  0.2361
28321SOL    HW187501   2.753   0.841   1.948  0.6225 -0.2519 -0.2617
28321SOL    HW287502   2.715   0.983   1.909 -0.1365 -0.1881  0.6858
28322SOL     OW87503   3.853   7.599   2.452 -0.0414 -0.0648 -0.2513
28322SOL    HW187504   3.806   7.520   2.478  0.2993  0.0403  0.6820
28322SOL    HW287505   3.823   7.667   2.513  0.9298  0.1216  0.0281
28323SOL     OW87506   8.065   0.412   3.730 -0.3307  0.6344 -0.1305
28323SOL    HW187507   8.117   0.343   3.771 -2.2870 -0.7732  0.0274
28323SOL    HW287508   8.041   0.376   3.645  0.1249  1.8507 -0.7909
28324SOL     OW87509   7.446   6.863   3.983  0.0247 -0.1060  0.3372
28324SOL    HW187510   7.357   6.897   3.990 -0.0623 -0.5003  1.2091
28324SOL    HW287511   7.435   6.771   3.959  0.2098 -0.0501  0.0295
28325SOL     OW87512   6.572   6.031   0.694  0.6953  0.4069  0.3709
28325SOL    HW187513   6.494   5.977   0.681  1.4813 -0.3012 -1.5586
28325SOL    HW287514   6.550   6.114   0.652  0.2675  0.8874  1.5249
28326SOL     OW87515   0.570   9.660   6.324  0.2219 -0.2514  0.2120
28326SOL    HW187516   0.527   9.711   6.255  2.6054  0.4638 -0.7872
28326SOL    HW287517   0.522   9.683   6.404 -0.1414  1.8385 -0.5831
28327SOL     OW87518   7.093   0.982   9.324 -0.2111  0.1727 -0.0455
28327SOL    HW187519   7.036   1.050   9.360 -0.5061  1.1650 -2.3039
28327SOL    HW287520   7.181   1.019   9.331 -0.2056  0.1116  0.2130
28328SOL     OW87521   8.642   6.391   1.846 -0.2300  0.6555  0.4213
28328SOL    HW187522   8.622   6.442   1.767  0.3236 -0.0722 -0.2044
28328SOL    HW287523   8.738   6.391   1.851 -0.2576  0.5288  0.9769
28329SOL     OW87524   6.731   1.425   8.774 -0.4532  0.4474  0.0408
28329SOL    HW187525   6.782   1.449   8.697  2.3027 -2.1075  0.9509
28329SOL    HW287526   6.717   1.331   8.765 -0.4058  0.1817  2.4688
28330SOL     OW87527   6.640   1.251   0.315  0.2737  0.3083  0.4414
28330SOL    HW187528   6.615   1.326   0.370  1.5849  0.8648  0.2768
28330SOL    HW287529   6.717   1.214   0.357  0.4001 -0.1775 -0.2017
28331SOL     OW87530   3.432   1.888   6.467  0.0374  0.2685  0.7348
28331SOL    HW187531   3.444   1.975   6.429  2.6117 -0.4820 -0.2972
28331SOL    HW287532   3.472   1.893   6.553  1.2011 -0.1707  0.2361
28332SOL     OW87533   8.669   1.192   0.759 -0.2332  0.3500 -0.3709
28332SOL    HW187534   8.605   1.184   0.829  0.9397  1.1703  0.8202
28332SOL    HW287535   8.664   1.284   0.733 -0.5718  0.0818 -1.3088
28333SOL     OW87536   0.802   9.084   9.738  0.3465  0.4251  0.0094
28333SOL    HW187537   0.886   9.060   9.699 -0.8615  0.7861 -2.9154
28333SOL    HW287538   0.754   9.001   9.743  0.6410  0.3150  1.1441
28334SOL     OW87539   0.766   2.035   2.418  0.5112  0.1928 -0.0843
28334SOL    HW187540   0.734   2.068   2.502  1.0217 -0.1535  0.2509
28334SOL    HW287541   0.737   1.943   2.416  0.4834  0.2064 -0.2939
28335SOL     OW87542   2.260   6.543   6.524  0.3030  0.1338  0.2423
28335SOL    HW187543   2.174   6.553   6.485 -0.0869  0.0528  1.0637
28335SOL    HW287544   2.249   6.473   6.589  1.3941 -1.0685 -0.8182
28336SOL     OW87545   9.275   4.866   5.577  0.1152  0.2448  0.7493
28336SOL    HW187546   9.216   4.828   5.642 -0.7492  0.1473 -0.0768
28336SOL    HW287547   9.310   4.791   5.530 -0.9244  0.3986 -0.3082
28337SOL     OW87548   3.847   4.826   4.577 -0.3684  0.0835 -0.2584
28337SOL    HW187549   3.772   4.857   4.526 -0.6161  0.0179  0.0641
28337SOL    HW287550   3.811   4.756   4.632  0.6450 -2.3403 -2.5842
28338SOL     OW87551   6.612   2.926   0.541  0.0984  0.2546 -0.6254
28338SOL    HW187552   6.687   2.985   0.537 -0.4336  1.2355  2.2628
28338SOL    HW287553   6.645   2.849   0.588 -0.1142 -0.2522 -1.3120
28339SOL     OW87554   5.329   6.389   8.347  0.3138 -0.0443  0.3676
28339SOL    HW187555   5.336   6.422   8.258  0.3419 -2.0223 -0.3818
28339SOL    HW287556   5.409   6.420   8.391  1.4192 -0.9904 -0.9435
28340SOL     OW87557   4.784   2.625   2.844  0.1259 -0.3356  0.5892
28340SOL    HW187558   4.717   2.683   2.879  0.0541 -0.2099  0.2441
28340SOL    HW287559   4.736   2.560   2.794  0.1024 -1.4936  2.0964
28341SOL     OW87560   5.068   7.148   6.613 -0.0975 -0.5003 -0.4784
28341SOL    HW187561   5.067   7.242   6.600 -0.4659 -0.3983  0.2844
28341SOL    HW287562   5.050   7.111   6.526  0.8319  0.1099 -0.9324
28342SOL     OW87563   3.483   9.833   4.823  0.1330  0.0715 -0.1144
28342SOL    HW187564   3.546   9.888   4.871  1.0913 -0.1652 -1.0616
28342SOL    HW287565   3.436   9.785   4.891 -0.6873  2.0137  0.7320
28343SOL     OW87566   9.735   5.132   3.349  0.2203  0.1735 -0.1848
28343SOL    HW187567   9.813   5.088   3.383  0.7253  0.2196 -1.2630
28343SOL    HW287568   9.764   5.221   3.329 -0.2634  0.3695 -0.0208
28344SOL     OW87569   3.878   0.617   0.705 -0.2969 -0.0019 -0.2081
28344SOL    HW187570   3.807   0.629   0.769 -0.0240 -3.1109  0.7504
28344SOL    HW287571   3.856   0.537   0.659  2.9268 -1.4142  0.5755
28345SOL     OW87572   8.602  10.186   0.570  0.3869 -0.0181  0.1661
28345SOL    HW187573   8.671  10.191   0.503 -0.0616  0.4819 -0.2573
28345SOL    HW287574   8.526  10.228   0.530 -1.3502 -3.8380 -0.8458
28346SOL     OW87575  10.192   4.149   0.359  0.2260 -0.5596  0.1017
28346SOL    HW187576  10.131   4.219   0.382 -0.5056 -0.9639 -0.5803
28346SOL    HW287577  10.268   4.164   0.416  0.6685  1.6130 -0.9803
28347SOL     OW87578   2.151   3.478   6.837 -0.4143  0.2901 -0.4970
28347SOL    HW187579   2.205   3.502   6.761  0.8882  0.8940  0.5959
28347SOL    HW287580   2.063   3.465   6.801  0.6516 -1.6881 -2.4752
28348SOL     OW87581   1.731   9.727   6.193  0.2988  0.1934  0.1383
28348SOL    HW187582   1.694   9.712   6.280 -0.2409  0.3481 -0.0636
28348SOL    HW287583   1.696   9.656   6.139  0.9794 -0.1508  0.1512
28349SOL     OW87584   4.977   3.915   1.962  0.0618  0.6238 -0.3400
28349SOL    HW187585   5.068   3.884   1.963  0.2998  1.2905 -1.0512
28349SOL    HW287586   4.966   3.960   2.045  0.0183 -0.4845  0.2700
28350SOL     OW87587   7.674   6.212   4.789  0.3101  0.3185  0.1542
28350SOL    HW187588   7.701   6.174   4.873 -0.6928 -0.5393  0.1120
28350SOL    HW287589   7.625   6.291   4.813 -0.6171 -0.3252  0.4340
28351SOL     OW87590   0.529   7.194   5.415  0.4281  0.2009  0.2951
28351SOL    HW187591   0.560   7.155   5.496 -1.0093 -0.7187  0.4257
28351SOL    HW287592   0.594   7.260   5.393  1.1957 -0.0426  1.8115
28352SOL     OW87593   8.514   2.430   1.382 -0.2138  0.0193 -0.3229
28352SOL    HW187594   8.484   2.462   1.297 -1.7467  1.0200  0.5696
28352SOL    HW287595   8.559   2.505   1.421  4.2065 -1.6700 -1.9425
28353SOL     OW87596   1.675   2.822   0.147 -0.0194 -0.5208  0.9943
28353SOL    HW187597   1.642   2.912   0.147  0.0089 -0.5109  1.5215
28353SOL    HW287598   1.610   2.773   0.097  0.4665 -0.0279 -0.1533
28354SOL     OW87599   4.994   5.904   4.374 -0.1383 -0.1238  0.3243
28354SOL    HW187600   4.899   5.913   4.375 -0.1361 -0.1647  1.0494
28354SOL    HW287601   5.019   5.925   4.284 -0.6533  1.6175  0.5733
28355SOL     OW87602   1.188   8.951   5.950 -0.4292 -0.1921 -0.1200
28355SOL    HW187603   1.167   8.870   5.997  0.5371 -0.0659  0.5471
28355SOL    HW287604   1.262   8.987   5.998 -0.4521  0.7631 -0.8047
28356SOL     OW87605   3.828   8.915   9.244  0.3573 -0.0066 -0.3340
28356SOL    HW187606   3.863   8.964   9.169 -0.7517  0.8145 -0.3312
28356SOL    HW287607   3.822   8.980   9.314  0.2097 -0.4780  0.0900
28357SOL     OW87608   6.909   4.538   4.225  0.0889  0.3250  0.3086
28357SOL    HW187609   6.858   4.462   4.198  0.5503 -0.1773  0.8290
28357SOL    HW287610   6.868   4.567   4.307  0.8565 -0.2960  0.9142
28358SOL     OW87611   3.603   6.696   0.546 -0.4072 -0.2523  0.4930
28358SOL    HW187612   3.648   6.773   0.511 -0.5936  0.3533  1.5768
28358SOL    HW287613   3.519   6.729   0.576 -0.4268 -0.8567  1.0996
28359SOL     OW87614   6.394   2.277   1.653 -0.4289 -0.3304  0.0924
28359SOL    HW187615   6.315   2.233   1.684 -0.3121 -0.9185 -0.4276
28359SOL    HW287616   6.365   2.328   1.577 -0.7488  1.2368  1.2485
28360SOL     OW87617   9.644   3.130   6.337 -0.6133  1.0730 -0.0463
28360SOL    HW187618   9.624   3.221   6.359  0.1604  1.4842 -1.0221
28360SOL    HW287619   9.715   3.106   6.398 -0.6094  1.2152  0.0047
28361SOL     OW87620   7.276   2.060   2.352 -0.9253  0.0942  0.4103
28361SOL    HW187621   7.292   2.148   2.388  1.7410  0.2818 -1.0403
28361SOL    HW287622   7.295   2.000   2.424 -2.0460  0.6639  1.1943
28362SOL     OW87623   2.548   8.174  10.026  0.1716  0.0307 -0.2363
28362SOL    HW187624   2.534   8.239   9.957 -1.6938  1.4293  1.4043
28362SOL    HW287625   2.637   8.190  10.057  1.2863 -1.0808 -2.7710
28363SOL     OW87626   3.698   5.094   8.671 -0.0646  0.5092  0.5668
28363SOL    HW187627   3.641   5.151   8.722  1.6760  1.9524  0.9085
28363SOL    HW287628   3.725   5.026   8.732  0.9859  1.5184  1.2425
28364SOL     OW87629   8.374   3.917   4.681  0.0755 -0.0168  0.1302
28364SOL    HW187630   8.439   3.876   4.624  1.3522 -0.1820  1.6381
28364SOL    HW287631   8.398   4.009   4.683 -0.9634  0.2781 -0.8904
28365SOL     OW87632   9.817   7.133   8.186 -0.4949  0.5310  0.0639
28365SOL    HW187633   9.823   7.081   8.105 -1.0433 -0.2876  0.5372
28365SOL    HW287634   9.865   7.213   8.167  3.3978 -1.5698  0.4138
28366SOL     OW87635  10.131   6.486   0.389 -0.0041  0.0511 -0.0012
28366SOL    HW187636  10.057   6.497   0.449 -0.6319 -1.3310 -0.5041
28366SOL    HW287637  10.104   6.533   0.310 -0.6210 -0.9820 -0.4110
28367SOL     OW87638   2.950   0.484   2.018  0.3894  0.3561 -0.1303
28367SOL    HW187639   3.025   0.432   2.047  0.5009  0.0885 -0.8931
28367SOL    HW287640   2.917   0.437   1.942 -2.5526 -1.3447  2.0816
28368SOL     OW87641   6.863   2.144   8.277  0.1895 -0.6445 -0.5249
28368SOL    HW187642   6.780   2.127   8.321  0.5037  1.1719  0.8300
28368SOL    HW287643   6.891   2.059   8.243 -1.1085 -1.6736  0.9562
28369SOL     OW87644   3.210   9.010   1.051 -0.4961  0.0194 -0.4578
28369SOL    HW187645   3.167   9.082   1.005 -0.2891 -0.9034 -2.1367
28369SOL    HW287646   3.302   9.035   1.054 -0.3184 -0.4895 -1.6485
28370SOL     OW87647   2.521   6.546   3.883  0.3477 -1.0852 -0.5740
28370SOL    HW187648   2.530   6.453   3.863 -0.6112 -1.9351  2.6616
28370SOL    HW287649   2.608   6.582   3.869  1.3904 -3.0295  0.6192
28371SOL     OW87650   2.512   2.060   9.909  0.0040  0.0606  0.4596
28371SOL    HW187651   2.478   2.126   9.849 -0.4803 -2.1264 -1.7061
28371SOL    HW287652   2.434   2.016   9.943  0.3356  0.4670  1.7927
28372SOL     OW87653   4.192   2.493   5.602  0.0845  0.5581  0.6448
28372SOL    HW187654   4.119   2.478   5.542  1.9364  1.5488 -1.9416
28372SOL    HW287655   4.202   2.589   5.603  0.7304  0.4825  1.7162
28373SOL     OW87656   7.026   6.065   1.360  0.0592  0.2770 -0.1125
28373SOL    HW187657   7.062   6.101   1.279 -0.0578  1.4443  0.3378
28373SOL    HW287658   6.952   6.123   1.380 -0.6817 -0.7531  0.1636
28374SOL     OW87659   2.733   4.585   8.380 -0.2664 -0.1318  0.0307
28374SOL    HW187660   2.674   4.606   8.307  0.0705 -1.4385 -0.6206
28374SOL    HW287661   2.684   4.522   8.433  0.4255 -1.0284 -0.3741
28375SOL     OW87662   3.772   7.203   7.613 -0.2996 -0.0892  0.5702
28375SOL    HW187663   3.842   7.198   7.549 -0.4634  0.1487  0.3731
28375SOL    HW287664   3.788   7.129   7.672 -0.0972 -0.2519  0.3102
28376SOL     OW87665   5.269   6.947   5.915 -0.8123 -0.0956 -0.0880
28376SOL    HW187666   5.361   6.936   5.939 -1.4819 -2.8938  1.4678
28376SOL    HW287667   5.253   6.879   5.849 -2.4823 -1.7153  1.9074
28377SOL     OW87668   8.169   3.509   7.600  0.4225  0.0078 -0.0944
28377SOL    HW187669   8.087   3.509   7.649  1.3904  0.6337  1.5374
28377SOL    HW287670   8.180   3.418   7.571 -2.5095  0.5172 -3.2121
28378SOL     OW87671   6.111   5.751   7.647  0.2896  0.1282 -0.0023
28378SOL    HW187672   6.165   5.826   7.672  0.2370 -0.0023  0.5182
28378SOL    HW287673   6.025   5.771   7.683  0.9556 -1.4649  2.6134
28379SOL     OW87674   8.100   9.049   4.216 -0.7607  0.2804 -0.4046
28379SOL    HW187675   8.062   9.121   4.165  1.4447  0.3736 -1.9944
28379SOL    HW287676   8.157   9.092   4.279 -2.0307  0.0598  0.9252
28380SOL     OW87677   9.549   7.933   1.624  0.0091 -0.1093  0.3806
28380SOL    HW187678   9.617   7.961   1.564  1.7713 -1.1082  1.8565
28380SOL    HW287679   9.576   7.967   1.709 -1.3101 -0.5516  0.9923
28381SOL     OW87680   8.014   5.474   1.249 -0.5423 -0.3173  1.2710
28381SOL    HW187681   8.072   5.531   1.300 -1.1283  2.1475 -0.7257
28381SOL    HW287682   7.929   5.481   1.293 -0.7523  0.8223  0.6857
28382SOL     OW87683   5.860   6.689   0.655 -0.1429  0.1195 -0.3053
28382SOL    HW187684   5.854   6.705   0.561 -1.0830  0.0522 -0.2602
28382SOL    HW287685   5.867   6.777   0.693 -1.7469  0.2644 -0.3081
28383SOL     OW87686   3.903   2.719   7.665  0.1599  0.1548 -0.2101
28383SOL    HW187687   3.850   2.640   7.662  0.7675 -0.3132  1.2154
28383SOL    HW287688   3.963   2.706   7.738  1.5342  1.1309 -1.1282
28384SOL     OW87689   2.011   2.806   1.250  0.3287 -0.7131 -0.2892
28384SOL    HW187690   2.016   2.715   1.279 -0.9280 -0.5431  0.5008
28384SOL    HW287691   2.085   2.849   1.293 -1.0382 -0.6424  2.0326
28385SOL     OW87692   9.183   6.164   0.710  0.2789 -0.1414 -0.5819
28385SOL    HW187693   9.110   6.168   0.772 -0.0973 -0.1252 -1.0179
28385SOL    HW287694   9.141   6.145   0.626  0.8372 -0.7054 -0.7309
28386SOL     OW87695   9.885   1.712   5.222  0.0386  0.3403  0.1465
28386SOL    HW187696   9.952   1.716   5.153  0.8975  0.1994  0.9586
28386SOL    HW287697   9.854   1.802   5.231 -0.2276  0.3255 -0.5614
28387SOL     OW87698   4.636   6.670   2.196 -0.2324  0.5569  0.3055
28387SOL    HW187699   4.584   6.627   2.263 -0.9041  0.2266 -0.4178
28387SOL    HW287700   4.573   6.688   2.125  0.7811 -0.5865 -0.9224
28388SOL     OW87701   3.859   9.244   2.952  0.1143 -0.3839 -0.1392
28388SOL    HW187702   3.869   9.337   2.971  1.6693 -0.3981 -0.8696
28388SOL    HW287703   3.896   9.233   2.865 -0.0338 -1.6956 -0.0410
28389SOL     OW87704   8.194   9.705   1.258 -0.0385  0.1233 -0.1120
28389SOL    HW187705   8.177   9.655   1.338 -0.9173 -1.0819 -1.0241
28389SOL    HW287706   8.114   9.756   1.244  0.5982  1.2701  0.4526
28390SOL     OW87707   3.827   2.782   6.652 -0.0705  0.1543 -0.6422
28390SOL    HW187708   3.863   2.863   6.688 -0.2355 -0.3997  0.8094
28390SOL    HW287709   3.894   2.751   6.591  0.7812  0.4716  0.1136
28391SOL     OW87710   5.401   0.010   6.583  0.2236 -0.1774  0.2276
28391SOL    HW187711   5.349   0.088   6.560  1.6724  0.9711  0.7682
28391SOL    HW287712   5.354  -0.063   6.543 -1.1574  0.9817 -0.2980
28392SOL     OW87713   2.317   9.340   7.315 -0.2401  0.5784  0.4732
28392SOL    HW187714   2.398   9.289   7.315 -0.4894  0.1743  1.0271
28392SOL    HW287715   2.346   9.431   7.306  0.1607  0.2831 -1.2594
28393SOL     OW87716   3.695   8.063   2.613  0.1811  0.0489 -0.1329
28393SOL    HW187717   3.638   8.007   2.560 -0.7665  0.3065  0.6066
28393SOL    HW287718   3.657   8.060   2.700  2.5990 -1.5786  0.9104
28394SOL     OW87719   1.065   5.467   4.134 -0.2063 -0.1238  0.1528
28394SOL    HW187720   1.060   5.371   4.129 -1.9290 -0.0637  0.6261
28394SOL    HW287721   1.143   5.489   4.083  0.5702 -1.8217  0.5699
28395SOL     OW87722   1.631   4.474   8.017 -0.1482 -0.2381 -0.5289
28395SOL    HW187723   1.598   4.559   7.990  0.0871  0.4621  1.3568
28395SOL    HW287724   1.553   4.419   8.026 -0.2341 -0.5064 -2.6144
28396SOL     OW87725   3.574  10.170   2.329  0.8610 -0.0332  0.0452
28396SOL    HW187726   3.509  10.205   2.268 -0.5907  0.4433  1.8249
28396SOL    HW287727   3.644  10.235   2.330  0.7609  0.1022 -0.8566
28397SOL     OW87728   9.148   3.019   9.719 -0.4858 -0.0642 -0.0138
28397SOL    HW187729   9.198   3.003   9.639  0.2694 -3.0395  0.9948
28397SOL    HW287730   9.212   3.010   9.789 -1.4974  0.7816  1.0349
28398SOL     OW87731   3.277   7.985   0.422  0.1890 -0.1659 -0.1377
28398SOL    HW187732   3.372   7.969   0.421  0.0407 -1.1104 -0.4100
28398SOL    HW287733   3.260   8.023   0.508  1.1087  1.9913 -0.8677
28399SOL     OW87734   9.096   4.021   5.486  0.5376  0.2804  0.0326
28399SOL    HW187735   9.074   4.038   5.578  1.3919 -0.0853  0.3089
28399SOL    HW287736   9.153   3.944   5.489 -0.2565 -0.3433 -0.8891
28400SOL     OW87737   4.094   2.811   2.185 -0.1027  1.1743  0.2417
28400SOL    HW187738   4.172   2.862   2.206  1.6939 -1.7343  0.8675
28400SOL    HW287739   4.123   2.748   2.120 -2.2777  0.8462 -0.4747
28401SOL     OW87740   1.807   8.761   4.424  0.1902  0.1455 -0.2538
28401SOL    HW187741   1.804   8.688   4.486  1.2947 -0.3802 -0.8021
28401SOL    HW287742   1.725   8.755   4.376  0.0745 -0.4576  0.0119
28402SOL     OW87743   7.273   5.921   1.424  0.4231  0.8913 -0.7073
28402SOL    HW187744   7.194   5.975   1.413  0.2240  0.9595  0.8158
28402SOL    HW287745   7.328   5.973   1.482  0.5858 -0.1773  0.1055
28403SOL     OW87746   4.504   2.685   5.329  0.2810 -0.6982 -0.2969
28403SOL    HW187747   4.577   2.625   5.314  1.6899  0.9756 -0.3804
28403SOL    HW287748   4.447   2.672   5.253  0.9946 -1.3081 -0.7402
28404SOL     OW87749   9.923   0.188   2.226 -0.3302  0.3134 -0.3784
28404SOL    HW187750   9.902   0.259   2.287  1.3309  1.1222 -0.7273
28404SOL    HW287751  10.018   0.191   2.216 -0.4928 -0.2417 -2.4630
28405SOL     OW87752   8.119   9.830   8.569 -0.0538 -0.0299  0.3575
28405SOL    HW187753   8.145   9.782   8.648 -1.0498 -0.2588  0.5549
28405SOL    HW287754   8.195   9.825   8.511  0.1482 -1.1042  0.7173
28406SOL     OW87755   2.460   3.297   7.340 -0.1228  0.0363 -0.2639
28406SOL    HW187756   2.384   3.273   7.393  1.0425  1.2812  2.0594
28406SOL    HW287757   2.460   3.393   7.341  0.5796  0.0594 -1.5876
28407SOL     OW87758  10.149   6.310   7.121  0.2860 -0.0575 -0.1698
28407SOL    HW187759  10.163   6.223   7.083  0.3382 -0.1317  0.0195
28407SOL    HW287760  10.237   6.342   7.140  0.4462  1.1648 -2.7587
28408SOL     OW87761   7.250   7.153   6.705  0.0215  0.1343 -0.1879
28408SOL    HW187762   7.251   7.236   6.752  0.9138  0.1363 -0.1949
28408SOL    HW287763   7.237   7.087   6.772 -1.0084  0.2991 -0.2194
28409SOL     OW87764   0.337   0.196  10.043 -0.1988  0.8461 -0.2242
28409SOL    HW187765   0.311   0.130   9.979  0.9553  0.2976 -0.1370
28409SOL    HW287766   0.255   0.240  10.066 -1.1890 -1.3613  0.6477
28410SOL     OW87767   1.529   3.887   9.028 -0.0671 -0.4811 -0.7731
28410SOL    HW187768   1.594   3.921   8.966  1.1669 -1.8945 -0.2881
28410SOL    HW287769   1.488   3.814   8.982 -0.4556 -0.3736 -0.6029
28411SOL     OW87770   6.873   7.709   6.285  0.8769 -0.2537 -0.5747
28411SOL    HW187771   6.852   7.725   6.193 -1.8572 -0.4203 -0.0292
28411SOL    HW287772   6.803   7.753   6.333  0.4952 -2.8304  1.3417
28412SOL     OW87773   5.079   0.221   8.702 -0.2665  0.3574  0.5103
28412SOL    HW187774   5.056   0.183   8.617 -0.7987  3.1009 -0.6092
28412SOL    HW287775   4.997   0.255   8.736 -0.3156 -1.8669  2.7896
28413SOL     OW87776   7.426   7.540   5.803  0.0154 -0.4682 -0.5615
28413SOL    HW187777   7.470   7.455   5.796 -0.9001 -0.9264 -0.8544
28413SOL    HW287778   7.335   7.522   5.777 -0.1181  0.6551 -0.8824
28414SOL     OW87779   9.090   2.764   6.683  0.1181 -0.0949 -0.3834
28414SOL    HW187780   9.077   2.697   6.749 -0.7273 -0.3087 -0.7504
28414SOL    HW287781   9.085   2.717   6.600 -1.1640  0.5040 -0.6698
28415SOL     OW87782   2.353   0.862   2.600  0.3370  0.2185  0.1834
28415SOL    HW187783   2.267   0.821   2.588  0.4066 -0.0843  0.7114
28415SOL    HW287784   2.358   0.927   2.530  0.0039 -0.3072 -0.3370
28416SOL     OW87785   8.191   3.206   5.274  0.0372 -0.3007 -0.4477
28416SOL    HW187786   8.165   3.194   5.365 -0.1575  1.5343 -0.2433
28416SOL    HW287787   8.277   3.164   5.268 -0.3116 -1.1472  0.3708
28417SOL     OW87788   9.089   4.546   5.293  0.0379  0.0753 -0.0300
28417SOL    HW187789   9.009   4.596   5.308  0.7499  1.1843  0.1174
28417SOL    HW287790   9.110   4.508   5.379 -0.7445 -0.8483 -0.2411
28418SOL     OW87791   9.443   7.117   2.986  0.1144 -0.0189 -0.1944
28418SOL    HW187792   9.515   7.155   2.934  0.3677  0.6690  0.6463
28418SOL    HW287793   9.447   7.023   2.967  1.2688  0.0053 -0.1331
28419SOL     OW87794   9.857   8.066   2.309  0.2299 -0.1403  0.0039
28419SOL    HW187795   9.797   8.078   2.236 -0.9841  0.7193  1.1197
28419SOL    HW287796   9.887   8.155   2.330 -0.7348 -0.1684  1.6159
28420SOL     OW87797   7.753   2.522   3.456  0.4839 -0.1764 -0.4289
28420SOL    HW187798   7.788   2.508   3.544 -1.8903 -0.3894  0.5110
28420SOL    HW287799   7.796   2.456   3.403  0.1847 -1.6113  1.0580
28421SOL     OW87800   5.369   5.992   0.391 -0.2233 -0.1185 -0.1675
28421SOL    HW187801   5.397   6.042   0.314 -0.6562 -0.4934 -0.5719
28421SOL    HW287802   5.383   6.051   0.464  2.5140 -0.5980 -0.2435
28422SOL     OW87803   5.414   2.060   3.897  0.9227  0.2091  0.4217
28422SOL    HW187804   5.387   2.105   3.977 -1.1823  0.1316 -0.2085
28422SOL    HW287805   5.360   1.981   3.894 -0.2914  1.0723 -1.9320
28423SOL     OW87806   7.479   3.203   3.214  0.5813  0.1210  0.4695
28423SOL    HW187807   7.437   3.184   3.298  0.5927 -3.3727 -0.2357
28423SOL    HW287808   7.408   3.238   3.159 -0.6707 -2.4265  0.3771
28424SOL     OW87809   2.724   3.855   3.913  0.4292 -0.3821  0.2162
28424SOL    HW187810   2.648   3.911   3.894  0.6861  0.2294  0.9612
28424SOL    HW287811   2.686   3.768   3.926 -0.1780 -0.0355  0.8224
28425SOL     OW87812   8.408   0.204   7.295  0.0021 -0.2362  0.6910
28425SOL    HW187813   8.475   0.209   7.227 -0.8628  0.4619 -0.1068
28425SOL    HW287814   8.395   0.110   7.309 -1.1760 -0.4180 -1.4520
28426SOL     OW87815   8.427   7.365   1.377  0.7540 -0.3174  0.2086
28426SOL    HW187816   8.508   7.416   1.385  1.3079 -1.2184  0.5133
28426SOL    HW287817   8.395   7.385   1.289  0.2111  1.6129  0.8221
28427SOL     OW87818   5.701   0.475   7.435  0.1678  0.4205 -0.2220
28427SOL    HW187819   5.725   0.502   7.346 -0.2840  1.3857 -0.0595
28427SOL    HW287820   5.784   0.449   7.475  0.7464  2.3008 -0.1515
28428SOL     OW87821   5.057   7.223   3.169  1.1312  0.0712 -0.4908
28428SOL    HW187822   4.964   7.200   3.162  0.6821  1.2677  1.3438
28428SOL    HW287823   5.098   7.143   3.202  0.2394  0.4963  1.7268
28429SOL     OW87824   4.501   2.922   9.582 -0.2528  0.2698  0.1992
28429SOL    HW187825   4.409   2.895   9.582  0.0165 -0.6416  0.1262
28429SOL    HW287826   4.507   2.987   9.651 -1.0058  0.5014  0.0491
28430SOL     OW87827   0.268   3.904   3.704 -0.2053  0.0484 -0.1260
28430SOL    HW187828   0.210   3.827   3.708  0.1748 -0.2722 -0.7894
28430SOL    HW287829   0.353   3.871   3.732 -0.1666  0.3588  0.1248
28431SOL     OW87830   3.020   9.198   6.895 -0.0639  0.1564  0.5773
28431SOL    HW187831   3.037   9.141   6.970 -0.1898  0.1341  0.5879
28431SOL    HW287832   3.018   9.139   6.820 -0.5086  0.1099  0.6293
28432SOL     OW87833   2.435   8.261   4.829  0.1791 -0.0894 -0.0167
28432SOL    HW187834   2.515   8.221   4.862  0.8217 -0.0182 -1.4595
28432SOL    HW287835   2.367   8.231   4.889  1.1761 -0.7064  0.8174
28433SOL     OW87836   1.172   5.809   3.100  0.0482 -0.4663  0.1546
28433SOL    HW187837   1.202   5.754   3.028  2.7043  1.7662 -0.5240
28433SOL    HW287838   1.249   5.822   3.154 -0.8031  1.6299  0.9059
28434SOL     OW87839   7.722   4.955   9.100  0.8440  0.1538  0.1929
28434SOL    HW187840   7.658   4.962   9.170 -1.2369  1.3789 -1.7340
28434SOL    HW287841   7.788   5.021   9.120 -0.3091  1.2430  0.4298
28435SOL     OW87842   7.892   4.558   1.922 -0.5760  0.1788  0.5098
28435SOL    HW187843   7.961   4.493   1.912 -1.1720 -0.0644 -2.6015
28435SOL    HW287844   7.934   4.641   1.900 -0.2968  0.6189  2.6061
28436SOL     OW87845   1.718   3.107   2.351  0.6875 -0.1048 -0.3739
28436SOL    HW187846   1.663   3.029   2.360 -1.1604  0.8326 -2.8770
28436SOL    HW287847   1.673   3.174   2.402 -0.2014  0.5112 -1.9521
28437SOL     OW87848   4.610   1.153   2.168 -0.1732 -0.4424  0.1870
28437SOL    HW187849   4.557   1.164   2.247 -0.2989 -0.8192  0.1608
28437SOL    HW287850   4.548   1.120   2.103  0.0832 -0.8495  0.1444
28438SOL     OW87851   2.062   4.170   1.386  0.2672  0.0086  0.5855
28438SOL    HW187852   2.122   4.234   1.349 -0.6131  0.7578  0.4252
28438SOL    HW287853   2.049   4.198   1.477 -1.3207  0.9725  0.0818
28439SOL     OW87854   0.667   3.736   4.537  0.3926 -0.5273 -0.0424
28439SOL    HW187855   0.674   3.690   4.620  1.4249  0.3101  0.3391
28439SOL    HW287856   0.740   3.798   4.537 -0.9409  1.0800 -0.5623
28440SOL     OW87857   5.562   4.624   2.633 -0.1858  0.2490  0.1087
28440SOL    HW187858   5.579   4.566   2.706 -1.1127  0.2025  0.2987
28440SOL    HW287859   5.592   4.577   2.556  1.0864  0.4301  0.4920
28441SOL     OW87860   0.564   8.665   8.004  0.4554 -0.0658  0.2309
28441SOL    HW187861   0.526   8.599   8.061 -0.3453 -0.1310 -0.3733
28441SOL    HW287862   0.635   8.619   7.959 -0.3058 -0.6102 -0.4282
28442SOL     OW87863   2.863   1.093   1.705 -0.0737  0.0033 -0.0613
28442SOL    HW187864   2.910   1.173   1.682  0.2290  0.4101  1.8734
28442SOL    HW287865   2.837   1.105   1.797 -2.7396 -0.7998 -0.6405
28443SOL     OW87866   4.897   4.868   1.685  0.4752 -0.4312 -0.5880
28443SOL    HW187867   4.809   4.906   1.675  1.6673  1.9771 -2.6468
28443SOL    HW287868   4.910   4.862   1.780 -1.4562  0.3546 -0.2526
28444SOL     OW87869   4.257   4.911   6.448  0.2119 -0.3395 -0.5182
28444SOL    HW187870   4.351   4.914   6.466 -0.0670  1.9512  0.8447
28444SOL    HW287871   4.241   4.985   6.390 -1.1159  1.0122  1.4712
28445SOL     OW87872   5.449   2.636   6.275 -0.2681  0.2783 -0.1676
28445SOL    HW187873   5.460   2.541   6.281 -0.4396  0.3893  3.2050
28445SOL    HW287874   5.362   2.653   6.311  0.0375  1.7688 -0.0802
28446SOL     OW87875   6.118   2.294   4.560 -0.2913 -0.2197  0.1832
28446SOL    HW187876   6.053   2.313   4.492  0.8093  0.2216 -0.7781
28446SOL    HW287877   6.202   2.313   4.518  0.4028  0.2749  1.7495
28447SOL     OW87878   8.340   9.980   0.121  0.2507  0.2540 -0.5544
28447SOL    HW187879   8.388   9.932   0.053  0.1436  0.2805 -0.6498
28447SOL    HW287880   8.249   9.952   0.110  0.3057 -0.1051 -0.1134
28448SOL     OW87881   5.016   2.620   2.958 -0.2184 -0.6907  0.4528
28448SOL    HW187882   5.012   2.619   3.053 -2.2272 -1.4357  0.3758
28448SOL    HW287883   4.926   2.606   2.929  0.3020 -0.1734 -1.5622
28449SOL     OW87884   0.057   9.122   3.681  0.5265  0.3325  0.6091
28449SOL    HW187885   0.029   9.131   3.590  2.0266  0.6375  0.1602
28449SOL    HW287886   0.094   9.207   3.703  0.9646 -0.0187  1.2303
28450SOL     OW87887   9.295   2.776   7.395 -0.1100 -0.0044  0.1099
28450SOL    HW187888   9.223   2.720   7.422 -0.1646  0.0937  0.1695
28450SOL    HW287889   9.374   2.727   7.418 -0.1514  0.3210  0.9639
28451SOL     OW87890   7.250   5.380   9.634  0.0160  0.5315  0.5268
28451SOL    HW187891   7.193   5.426   9.696 -2.2531 -1.2925 -0.1719
28451SOL    HW287892   7.229   5.419   9.549  0.2319  0.2219  0.3326
28452SOL     OW87893   9.350   3.832   6.618  0.1535 -0.0363 -0.0020
28452SOL    HW187894   9.433   3.867   6.652 -0.8193  0.7266  1.6250
28452SOL    HW287895   9.328   3.760   6.677 -0.9145  0.4851  0.2342
28453SOL     OW87896   4.277   8.879   2.247  0.4847  0.6808 -0.2695
28453SOL    HW187897   4.348   8.837   2.295  0.1645  0.7817  0.3089
28453SOL    HW287898   4.265   8.826   2.169  1.3308  0.7886 -0.4687
28454SOL     OW87899   7.218   7.314   7.419  0.6939 -0.2842  0.5682
28454SOL    HW187900   7.221   7.221   7.395  1.5884 -0.2383  0.5177
28454SOL    HW287901   7.179   7.315   7.506  1.1071 -0.7402  0.7565
28455SOL     OW87902   8.991   9.360   7.537  0.2958 -0.2134  0.1163
28455SOL    HW187903   9.059   9.306   7.579  0.3967 -1.0936 -1.1380
28455SOL    HW287904   8.958   9.305   7.466 -1.0524  0.5997  0.1017
28456SOL     OW87905   5.218   8.572   4.824 -0.2679 -0.0386 -0.2139
28456SOL    HW187906   5.137   8.599   4.780 -0.2444  0.0985 -0.1732
28456SOL    HW287907   5.287   8.623   4.781 -0.0054 -1.2744 -1.2859
28457SOL     OW87908   0.550   9.711   4.582  0.3012 -0.3457 -0.3319
28457SOL    HW187909   0.469   9.661   4.580  0.0833 -0.0414  0.4302
28457SOL    HW287910   0.521   9.803   4.583  0.6336 -0.2486  0.5816
28458SOL     OW87911   2.127   9.598   6.049  0.3298 -0.2350 -0.0165
28458SOL    HW187912   2.061   9.531   6.069  1.7082 -0.8300  2.7897
28458SOL    HW287913   2.205   9.570   6.096  2.6536  0.4788 -3.2815
28459SOL     OW87914   6.860   1.371   1.364  0.6504 -0.0065  0.0766
28459SOL    HW187915   6.924   1.405   1.426 -0.2320 -0.2137  1.1099
28459SOL    HW287916   6.911   1.314   1.306  1.4263 -0.0544  0.7913
28460SOL     OW87917   6.596   7.525   4.131  0.4343 -0.0181 -0.3614
28460SOL    HW187918   6.540   7.588   4.177  1.3653  0.5916 -0.0606
28460SOL    HW287919   6.536   7.479   4.072 -0.4001  0.5867  0.0048
28461SOL     OW87920   1.700   7.574   5.925  0.3811  0.5437  0.0703
28461SOL    HW187921   1.755   7.570   5.846 -0.8445  1.4501 -0.8397
28461SOL    HW287922   1.670   7.484   5.937 -1.3846  0.8142 -1.9412
28462SOL     OW87923   7.869   2.679   0.564 -0.2606 -0.0223  0.6403
28462SOL    HW187924   7.892   2.725   0.645 -0.4347 -1.3092  1.4313
28462SOL    HW287925   7.774   2.665   0.572 -0.2904 -0.0724  0.1658
28463SOL     OW87926   3.935   8.653   9.272  0.0173 -0.3256 -0.4253
28463SOL    HW187927   4.015   8.672   9.321  0.4714 -0.9740 -0.9087
28463SOL    HW287928   3.899   8.739   9.251  0.6092 -0.0307 -0.2484
28464SOL     OW87929   2.436   2.546   0.216  0.7462 -0.2408  0.3977
28464SOL    HW187930   2.487   2.598   0.153 -0.0608 -1.6070 -1.4175
28464SOL    HW287931   2.363   2.604   0.241  1.1435  0.3530  0.2006
28465SOL     OW87932   9.270   3.591   3.364  0.9821  0.0885 -0.2123
28465SOL    HW187933   9.320   3.652   3.418  1.8417 -0.7540 -0.0503
28465SOL    HW287934   9.268   3.632   3.277 -0.5090  1.4988  0.4520
28466SOL     OW87935   3.111   6.184   9.532 -0.2113 -0.0645  0.2794
28466SOL    HW187936   3.067   6.237   9.600  0.3126  0.5261  0.1622
28466SOL    HW287937   3.110   6.095   9.566 -0.9778  0.0426  0.5486
28467SOL     OW87938   1.341   1.252   5.267 -0.1468  0.2090 -0.1334
28467SOL    HW187939   1.325   1.338   5.306  0.2858 -0.0578  0.6301
28467SOL    HW287940   1.255   1.225   5.234 -0.1012  1.3506 -1.2468
28468SOL     OW87941   4.372   7.903   0.062 -0.4560 -0.0558  0.3435
28468SOL    HW187942   4.420   7.850  -0.002 -0.9384  0.2075 -0.2349
28468SOL    HW287943   4.435   7.917   0.133 -0.1075 -0.8313  0.1917
28469SOL     OW87944  10.142   8.013   9.044  0.0805  0.4215 -0.4684
28469SOL    HW187945  10.109   7.923   9.052 -1.7648  1.0631 -0.7646
28469SOL    HW287946  10.234   8.002   9.021 -0.0401 -1.3982 -0.1997
28470SOL     OW87947   7.600   8.509   6.982  0.9157  0.0431  0.1082
28470SOL    HW187948   7.688   8.474   6.993  1.1638  0.3372 -0.8443
28470SOL    HW287949   7.543   8.431   6.982  1.1198 -0.1110  1.1807
28471SOL     OW87950   9.491   6.825   8.436  0.2582  0.0155 -0.2129
28471SOL    HW187951   9.547   6.751   8.462  0.5604  1.0678  2.3085
28471SOL    HW287952   9.403   6.797   8.460  0.1761 -0.1175 -0.6625
28472SOL     OW87953   8.278   7.290   6.507 -0.4681  0.1767  0.4978
28472SOL    HW187954   8.281   7.350   6.432 -0.1248 -0.8531 -0.3127
28472SOL    HW287955   8.369   7.264   6.521 -0.6057 -0.1010  0.9033
28473SOL     OW87956   6.034   1.639   3.728 -0.7663  0.0193 -0.3013
28473SOL    HW187957   6.047   1.588   3.808  0.3713 -1.8595 -1.6396
28473SOL    HW287958   5.940   1.634   3.711 -0.7480 -1.1904 -0.1038
28474SOL     OW87959   9.591   9.520   2.513  0.4943 -0.2346  0.6802
28474SOL    HW187960   9.658   9.573   2.471  0.6191 -0.6157  0.3927
28474SOL    HW287961   9.511   9.541   2.465 -0.0490  1.8582  2.4147
28475SOL     OW87962   0.090   7.553   5.297  0.0826  0.2831 -0.9314
28475SOL    HW187963   0.132   7.639   5.302 -2.5915  1.7734 -3.0547
28475SOL    HW287964   0.117   7.519   5.211 -1.9504  0.6986 -1.7533
28476SOL     OW87965   3.162   7.649   3.412 -0.6442 -0.3334 -0.0830
28476SOL    HW187966   3.107   7.665   3.489 -0.6859  1.9150 -0.5660
28476SOL    HW287967   3.148   7.724   3.355  1.4545 -0.6463 -1.0876
28477SOL     OW87968   7.583   3.731   6.715  0.1323 -0.3146 -0.1656
28477SOL    HW187969   7.610   3.683   6.637 -0.0356 -0.6367 -0.0280
28477SOL    HW287970   7.554   3.816   6.683  1.4384  0.0938 -0.3142
28478SOL     OW87971   0.241   7.348   5.735  0.4235 -0.2344  0.6369
28478SOL    HW187972   0.262   7.433   5.774  0.3232  0.3530 -0.5476
28478SOL    HW287973   0.243   7.286   5.808  1.6612  0.5873  1.3180
28479SOL     OW87974   1.220   5.619   4.324  0.7245  0.3930  0.9475
28479SOL    HW187975   1.176   5.548   4.279  0.5103  0.1774  1.4896
28479SOL    HW287976   1.186   5.699   4.283  1.9409  0.1488 -0.5401
28480SOL     OW87977   9.249   9.379   2.801  0.0236 -0.0347  0.2745
28480SOL    HW187978   9.199   9.391   2.721 -0.4166 -1.4972  0.3143
28480SOL    HW287979   9.213   9.300   2.841 -0.3548  1.1429  2.3563
28481SOL     OW87980   5.152   9.283   9.601 -0.1594  0.0608  0.5683
28481SOL    HW187981   5.180   9.195   9.624 -2.1818 -1.2963 -1.9447
28481SOL    HW287982   5.079   9.301   9.660 -1.2030 -0.8638 -0.4250
28482SOL     OW87983   5.213   0.182   5.659  0.0323 -0.7304  0.1723
28482SOL    HW187984   5.305   0.166   5.642 -0.0121  0.0692 -0.8877
28482SOL    HW287985   5.172   0.183   5.572 -1.0104 -1.2857  0.6366
28483SOL     OW87986   0.318   4.003   8.889  0.1543  0.1071  0.1950
28483SOL    HW187987   0.227   3.997   8.858  0.5028 -1.3819 -0.5755
28483SOL    HW287988   0.310   4.022   8.983 -0.9489  0.1708  0.0924
28484SOL     OW87989   8.920   9.451   2.236 -0.2996  0.6567 -0.3162
28484SOL    HW187990   8.924   9.545   2.256 -1.1934  0.3811  1.2761
28484SOL    HW287991   8.917   9.447   2.140  0.2748  2.2261 -0.4198
28485SOL     OW87992   5.930   7.870   3.093 -0.3814  0.5529  0.1505
28485SOL    HW187993   5.897   7.952   3.056 -0.8477  0.0610 -0.5361
28485SOL    HW287994   6.014   7.856   3.049 -0.5980  0.3354 -0.1898
28486SOL     OW87995   1.503   8.519   0.810  0.0656  0.0497 -0.5296
28486SOL    HW187996   1.439   8.479   0.868  0.2886  1.3753  0.6505
28486SOL    HW287997   1.520   8.605   0.848 -1.6033  1.9726 -3.8900
28487SOL     OW87998   4.815   6.069   1.256 -0.5332  0.0103  0.4425
28487SOL    HW187999   4.787   5.978   1.252  0.5007 -0.3020  0.2004
28487SOL    HW288000   4.811   6.100   1.166 -1.1638  0.2958  0.5650
28488SOL     OW88001   0.531   3.808   2.625  0.2665 -1.1034  0.4150
28488SOL    HW188002   0.468   3.873   2.656  2.2158  0.0514  2.1532
28488SOL    HW288003   0.538   3.746   2.698  0.5844 -1.6349 -0.0673
28489SOL     OW88004   8.490   9.907   9.393  0.0449  0.1285  0.7404
28489SOL    HW188005   8.537   9.978   9.438  1.0562 -0.6401  0.9060
28489SOL    HW288006   8.397   9.931   9.401  0.3608  1.2602  1.0924
28490SOL     OW88007   3.441   0.498   7.612 -0.2481 -0.2573 -0.5269
28490SOL    HW188008   3.531   0.531   7.614  0.1269 -1.0912 -2.7169
28490SOL    HW288009   3.396   0.553   7.548 -0.1662 -2.5336 -2.6325
28491SOL     OW88010   7.856   9.201   0.026  0.5087 -0.3287  0.3386
28491SOL    HW188011   7.815   9.283  -0.001  0.1118 -1.3284 -2.2020
28491SOL    HW288012   7.784   9.148   0.061  0.1621 -0.9242 -1.2773
28492SOL     OW88013   9.615   2.419   4.413  0.8213 -0.3848 -0.4966
28492SOL    HW188014   9.535   2.453   4.375  1.6817  0.3434 -1.6900
28492SOL    HW288015   9.586   2.354   4.477 -0.6440 -2.5840 -3.2953
28493SOL     OW88016   1.105   9.567   8.121  0.1074 -0.3694  0.6530
28493SOL    HW188017   1.087   9.499   8.055 -1.1652 -0.2222  0.8331
28493SOL    HW288018   1.025   9.570   8.174  0.3281  0.9618  0.9227
28494SOL     OW88019   4.828   6.171   2.718  0.5965  0.2259  0.1000
28494SOL    HW188020   4.806   6.228   2.792 -2.8319  0.6223 -1.1648
28494SOL    HW288021   4.871   6.229   2.655 -0.8561  0.9598 -0.2339
28495SOL     OW88022   3.871   2.797   0.686  0.3272 -0.0324 -0.2739
28495SOL    HW188023   3.873   2.702   0.694 -1.0511 -0.1674 -1.3055
28495SOL    HW288024   3.783   2.822   0.715  1.6188  1.2368  2.8165
28496SOL     OW88025  10.105   7.425   9.386 -0.0541 -0.1916 -0.0371
28496SOL    HW188026  10.095   7.344   9.436 -1.4497 -0.4338 -0.6912
28496SOL    HW288027  10.113   7.493   9.452 -0.5718 -0.6619  0.5121
28497SOL     OW88028   0.805   9.636   1.071  0.0647  0.6417 -0.2828
28497SOL    HW188029   0.899   9.617   1.070  0.2225  1.3979  0.0006
28497SOL    HW288030   0.789   9.682   0.989  0.1271  1.3735  0.1092
28498SOL     OW88031   9.639   7.035   3.185  0.2092 -0.0627  0.2132
28498SOL    HW188032   9.634   7.084   3.267  1.1315 -0.1154  0.3086
28498SOL    HW288033   9.572   7.075   3.129 -0.6558 -0.2557  1.1052
28499SOL     OW88034   3.711   0.028   9.337  0.1417  0.0433  0.0587
28499SOL    HW188035   3.678   0.034   9.426  0.8303 -1.2806  0.4192
28499SOL    HW288036   3.760   0.109   9.324 -1.5598  1.1183  0.1911
28500SOL     OW88037   5.202   4.401   5.751  0.0915 -0.4970 -0.6078
28500SOL    HW188038   5.297   4.405   5.768 -0.2158  0.2433  1.0659
28500SOL    HW288039   5.179   4.310   5.767 -0.2036  0.1734  3.4590
28501SOL     OW88040   6.307  10.184   8.854  0.5803 -0.1837  0.1311
28501SOL    HW188041   6.369  10.119   8.820 -0.1891 -2.1569  2.3417
28501SOL    HW288042   6.361  10.244   8.905  1.3661  1.2750 -2.3287
28502SOL     OW88043  10.045   4.721   0.322 -0.6742 -0.0717 -0.1932
28502SOL    HW188044  10.004   4.678   0.247  0.5497 -1.6902  0.0519
28502SOL    HW288045  10.114   4.661   0.349 -0.2748  1.1090  1.4343
28503SOL     OW88046   2.863   9.601   8.640  0.0189  0.0423  0.1914
28503SOL    HW188047   2.803   9.665   8.678 -0.6616 -1.8227  2.4147
28503SOL    HW288048   2.927   9.584   8.710  0.8697 -0.8182 -0.7785
28504SOL     OW88049  10.192   8.855   2.535  1.0008 -0.4548  0.0139
28504SOL    HW188050  10.152   8.914   2.599  3.3701  0.6159  0.5638
28504SOL    HW288051  10.172   8.767   2.568 -0.1350  0.0598  0.7299
28505SOL     OW88052   0.011   9.319   1.329 -0.0198  0.7603  0.0471
28505SOL    HW188053   0.021   9.331   1.234 -1.3105 -1.1361 -0.3624
28505SOL    HW288054   0.017   9.224   1.341  0.6703  1.0416  1.9327
28506SOL     OW88055   5.430   1.305   5.910 -0.3240  0.4985 -0.4257
28506SOL    HW188056   5.517   1.289   5.874 -0.5046 -0.4187 -0.4856
28506SOL    HW288057   5.372   1.250   5.858 -0.5244 -1.2663  1.5649
28507SOL     OW88058   8.034   2.473  10.040  0.2249  0.3587  0.9012
28507SOL    HW188059   8.036   2.478   9.945  1.0008  0.6490  0.9326
28507SOL    HW288060   7.958   2.526  10.065 -1.4864 -1.7321  0.3268
28508SOL     OW88061   1.542   3.802   7.580  0.5267  0.3163  0.2437
28508SOL    HW188062   1.622   3.834   7.538  0.6589  0.5188  0.6425
28508SOL    HW288063   1.530   3.860   7.655 -0.0581  0.3542  0.1214
28509SOL     OW88064   8.352  10.169   9.135 -0.6845  0.5586  0.4627
28509SOL    HW188065   8.256  10.173   9.137 -0.6291  1.9729  0.8952
28509SOL    HW288066   8.372  10.077   9.122 -2.1385  0.5656 -2.2522
28510SOL     OW88067   9.669   7.776   9.158  0.3052  0.0957 -0.7557
28510SOL    HW188068   9.589   7.824   9.135  0.1888  0.3436  0.1379
28510SOL    HW288069   9.638   7.690   9.185  0.4746 -0.3283 -1.8748
28511SOL     OW88070   4.833   4.615   0.830  0.2527  0.9871  0.2262
28511SOL    HW188071   4.856   4.569   0.910  1.8683 -1.2835 -1.4667
28511SOL    HW288072   4.909   4.670   0.811  0.8593 -0.2335 -0.9511
28512SOL     OW88073   5.286   4.972   2.937 -0.3795 -0.4636  0.0673
28512SOL    HW188074   5.262   4.889   2.896 -1.1664 -0.5059  0.6039
28512SOL    HW288075   5.263   4.961   3.029  1.4369 -0.3965  0.5609
28513SOL     OW88076   5.130   0.996   7.461  0.0320 -0.4430  0.0640
28513SOL    HW188077   5.221   0.979   7.485 -0.0121 -1.9550 -0.7890
28513SOL    HW288078   5.097   1.051   7.531  1.3511 -0.5996  0.8335
28514SOL     OW88079   3.468   6.266   7.695  0.2438 -0.8916 -0.1566
28514SOL    HW188080   3.419   6.349   7.698  0.2536 -0.9311  2.2990
28514SOL    HW288081   3.403   6.200   7.671 -0.1060 -0.3985 -0.5692
28515SOL     OW88082   9.460   3.030   9.293 -0.3034  0.5930  0.0526
28515SOL    HW188083   9.497   3.117   9.279  0.2503  0.5005  0.8902
28515SOL    HW288084   9.446   2.996   9.205  1.1784  0.8348 -0.2954
28516SOL     OW88085   9.741   8.238   2.615 -0.3401 -0.2200 -0.0965
28516SOL    HW188086   9.700   8.180   2.551 -0.5942  0.1146 -0.2359
28516SOL    HW288087   9.669   8.266   2.672  0.0238 -1.2047  0.8682
28517SOL     OW88088   8.148   4.225   5.449 -0.5665 -0.5103 -0.1722
28517SOL    HW188089   8.210   4.226   5.521 -0.3062  0.3305 -0.4017
28517SOL    HW288090   8.187   4.281   5.382 -1.1924 -0.6166 -0.6359
28518SOL     OW88091   8.482   4.576   3.039  0.4171 -0.1034 -0.4086
28518SOL    HW188092   8.547   4.523   2.993  0.9320  0.2975 -0.1500
28518SOL    HW288093   8.531   4.650   3.073 -0.7341  1.8145 -2.7749
28519SOL     OW88094   4.913   7.514   7.136 -0.0133 -0.6144  0.0754
28519SOL    HW188095   4.820   7.514   7.159 -0.2274  1.1875 -0.6867
28519SOL    HW288096   4.947   7.596   7.171  0.7574 -0.1751 -1.6343
28520SOL     OW88097   0.571   3.231   2.549  0.3778  0.1368 -0.4113
28520SOL    HW188098   0.539   3.197   2.633  2.2238  1.0814  0.7131
28520SOL    HW288099   0.523   3.313   2.537  2.1355  1.4894  1.2158
28521SOL     OW88100   6.141   5.695   4.247  0.1551  0.1847  0.0820
28521SOL    HW188101   6.053   5.715   4.216  0.5674  0.9594 -0.5986
28521SOL    HW288102   6.155   5.756   4.320 -0.0802 -0.3273  0.5627
28522SOL     OW88103   2.377   6.218   2.065 -0.1351  0.2084  0.0254
28522SOL    HW188104   2.305   6.263   2.021 -0.0128  1.0176  0.6378
28522SOL    HW288105   2.380   6.132   2.024 -0.5160  0.6756 -1.0167
28523SOL     OW88106   0.163   6.186   9.853 -0.7350 -0.2021  0.1440
28523SOL    HW188107   0.208   6.159   9.933  0.7110 -0.5644 -0.7791
28523SOL    HW288108   0.196   6.126   9.786 -1.2223  0.7077 -0.9189
28524SOL     OW88109   0.867  10.011   1.417 -0.1574 -0.1704  0.7703
28524SOL    HW188110   0.926   9.938   1.436 -0.6028 -0.7118  0.1403
28524SOL    HW288111   0.820   9.983   1.338  1.0509  1.6371 -0.6265
28525SOL     OW88112   1.338   4.681   0.364 -0.2136 -0.4254 -0.3993
28525SOL    HW188113   1.294   4.739   0.426 -0.0017 -0.5020 -0.1785
28525SOL    HW288114   1.266   4.643   0.313 -0.5068 -1.5889  0.8612
28526SOL     OW88115   3.768   0.199   6.984  0.2901  0.8247 -0.4274
28526SOL    HW188116   3.764   0.193   6.889  1.4201  1.0488 -0.4961
28526SOL    HW288117   3.825   0.127   7.011  0.8806  1.4361 -0.0118
28527SOL     OW88118   3.121   8.769   0.649 -0.2761 -0.0082  0.2530
28527SOL    HW188119   3.115   8.680   0.615  1.3865 -1.1754  2.8567
28527SOL    HW288120   3.170   8.817   0.583 -0.1269 -1.3161 -0.6071
28528SOL     OW88121   9.446   4.481   8.437 -0.0376  0.2111 -0.4619
28528SOL    HW188122   9.372   4.422   8.424  0.2479 -0.2149 -0.1798
28528SOL    HW288123   9.406   4.568   8.444 -0.7102 -0.2414  1.7563
28529SOL     OW88124   3.024   4.812   5.598  0.0432 -0.3283  0.1365
28529SOL    HW188125   2.989   4.735   5.553 -0.2577 -0.8265  1.1921
28529SOL    HW288126   2.946   4.860   5.626  0.1895 -0.9371  1.6501
28530SOL     OW88127   3.059   2.311   4.338 -0.0048  1.0178  0.0027
28530SOL    HW188128   3.019   2.382   4.286  1.6461  0.5371 -1.9859
28530SOL    HW288129   3.055   2.235   4.281  1.1592  0.2839  0.8865
28531SOL     OW88130   0.865   8.384   2.150 -0.3861  0.2753  0.2346
28531SOL    HW188131   0.957   8.387   2.122 -0.1999 -1.1927  0.6169
28531SOL    HW288132   0.864   8.430   2.234  0.1480 -0.3370  0.5830
28532SOL     OW88133   9.953   9.193   2.711 -0.3091 -0.2569  0.2448
28532SOL    HW188134   9.919   9.278   2.683  0.6469  0.2135  0.4786
28532SOL    HW288135   9.898   9.129   2.666 -0.8916  0.4865 -0.1159
28533SOL     OW88136   2.989   2.894   0.402 -0.2262 -0.6289 -0.4129
28533SOL    HW188137   2.957   2.917   0.490  2.4938 -1.2398  0.7852
28533SOL    HW288138   2.937   2.818   0.377 -1.5174 -0.0172  0.3398
28534SOL     OW88139   7.238   0.242   0.442 -0.4731 -0.2642  0.0092
28534SOL    HW188140   7.188   0.275   0.367  0.5873 -0.3980 -0.7738
28534SOL    HW288141   7.249   0.149   0.424  0.5088 -0.1323 -0.0940
28535SOL     OW88142   5.709   1.266   1.553  0.3662 -0.5309 -0.4095
28535SOL    HW188143   5.804   1.259   1.543  0.5542  1.6374 -0.5102
28535SOL    HW288144   5.674   1.248   1.466  0.5643 -2.9027 -0.0183
28536SOL     OW88145   7.795   4.960   0.446 -0.0131 -0.1933  0.2084
28536SOL    HW188146   7.847   4.883   0.422  0.1211 -0.0430  0.0161
28536SOL    HW288147   7.718   4.924   0.490  0.6884 -0.3749  1.3011
28537SOL     OW88148   2.700   7.873   7.620  0.0674 -0.0547 -0.2401
28537SOL    HW188149   2.661   7.823   7.549  1.0638 -1.4601  0.1774
28537SOL    HW288150   2.669   7.830   7.700 -0.8874  1.3934  0.1899
28538SOL     OW88151   2.067   0.161   4.084  0.0529  0.7117  0.1106
28538SOL    HW188152   2.091   0.086   4.138 -0.2948 -0.0194 -0.7354
28538SOL    HW288153   2.150   0.194   4.050 -0.0000 -0.9416 -1.6708
28539SOL     OW88154  10.079   0.991   5.606  0.1246  0.1084  0.3843
28539SOL    HW188155  10.034   0.983   5.522  1.8002  3.1863 -0.9214
28539SOL    HW288156  10.169   0.962   5.588  0.3473  0.2553  1.2322
28540SOL     OW88157   8.232   2.184   7.216 -0.1367 -0.5768 -0.1829
28540SOL    HW188158   8.203   2.275   7.221 -1.3352 -1.0043  1.0753
28540SOL    HW288159   8.313   2.181   7.267 -0.6038 -0.4027  0.5744
28541SOL     OW88160   9.631   3.082   6.040  0.9237 -0.1260 -0.0331
28541SOL    HW188161   9.630   3.085   6.136  0.7794 -2.0014  0.0320
28541SOL    HW288162   9.697   3.147   6.015  1.5237 -0.1802  1.3712
28542SOL     OW88163   5.989   2.258   7.357 -0.0316  0.6280  0.1984
28542SOL    HW188164   6.058   2.277   7.293  0.2571 -0.9940  0.0174
28542SOL    HW288165   5.911   2.302   7.321  0.5312  1.1605 -0.3921
28543SOL     OW88166   5.042   7.762   5.828 -0.0625 -0.0078  0.1672
28543SOL    HW188167   5.039   7.668   5.848 -1.0743  0.3968  2.0374
28543SOL    HW288168   4.951   7.786   5.813  0.2281  0.6167 -0.6185
28544SOL     OW88169   6.614   8.822   7.902 -0.2427 -0.2732  0.0331
28544SOL    HW188170   6.662   8.746   7.934  0.9122 -0.1989 -1.4302
28544SOL    HW288171   6.677   8.868   7.847 -1.2347  1.2148  0.1081
28545SOL     OW88172  10.134   7.653   3.993 -0.2285  0.4065  0.6279
28545SOL    HW188173  10.097   7.741   3.996 -1.7396 -0.2320  1.5741
28545SOL    HW288174  10.141   7.627   4.084 -0.3463 -0.6671  0.3351
28546SOL     OW88175   6.755   7.778   4.474 -0.1777  0.1879  0.5499
28546SOL    HW188176   6.804   7.841   4.527 -0.4243  0.7370  0.1189
28546SOL    HW288177   6.822   7.728   4.428 -0.0519  1.6097 -0.8213
28547SOL     OW88178   4.099   4.953   1.752  0.2748 -0.8059  0.2229
28547SOL    HW188179   4.047   4.893   1.806 -0.3311 -0.3702  0.1193
28547SOL    HW288180   4.037   4.988   1.688  0.2359  1.2466  1.3489
28548SOL     OW88181   8.231   2.792   0.276  0.0374 -0.7872 -0.5740
28548SOL    HW188182   8.221   2.738   0.354 -0.3094 -0.5818 -0.4752
28548SOL    HW288183   8.155   2.771   0.221 -1.8858  1.9736  0.9143
28549SOL     OW88184   3.321   2.924   2.849  0.4707 -0.5719  0.4611
28549SOL    HW188185   3.289   2.957   2.765 -1.9361 -0.4928  1.3626
28549SOL    HW288186   3.402   2.972   2.864  0.5932 -0.1216 -1.5101
28550SOL     OW88187   8.914   2.045   3.433 -0.0964  0.0180 -0.3668
28550SOL    HW188188   8.827   2.084   3.426  0.3892  1.9879  3.3271
28550SOL    HW288189   8.899   1.958   3.471 -0.4486  0.4329  0.4508
28551SOL     OW88190   0.136  10.104   6.295  0.5573 -0.3480  0.0756
28551SOL    HW188191   0.073  10.138   6.232  0.2324 -1.7882 -0.4037
28551SOL    HW288192   0.218  10.148   6.275  0.5068 -0.9697 -1.5008
28552SOL     OW88193   6.272   8.871   7.700  0.1005  0.0150  0.0969
28552SOL    HW188194   6.265   8.936   7.770  0.7056 -0.6461  0.7654
28552SOL    HW288195   6.181   8.854   7.675 -0.0306  1.9634 -0.8757
28553SOL     OW88196   4.189   4.338   6.404  0.2049  0.2180 -0.4614
28553SOL    HW188197   4.118   4.281   6.374  0.1512  0.7572 -1.3828
28553SOL    HW288198   4.264   4.279   6.412  0.4475  0.1971 -2.5091
28554SOL     OW88199   0.623   3.864   9.063  0.4581 -0.1078 -0.2942
28554SOL    HW188200   0.682   3.900   8.996  0.0045 -0.3659 -0.8402
28554SOL    HW288201   0.656   3.775   9.078  0.2400 -0.2375 -0.5694
28555SOL     OW88202   3.903   0.058  10.203 -0.2634 -0.1057 -0.1673
28555SOL    HW188203   3.865   0.003  10.272 -1.4620  1.0686  0.1379
28555SOL    HW288204   3.995   0.069  10.229 -0.3117 -0.9769  0.3931
28556SOL     OW88205   3.093   2.097   3.053 -0.3843  0.3737  0.7531
28556SOL    HW188206   3.117   2.187   3.071 -0.3744  0.6872 -0.7776
28556SOL    HW288207   3.121   2.048   3.131  0.1480  1.5860  1.3285
28557SOL     OW88208   4.948   4.948   3.540  0.4563 -0.4119 -0.1309
28557SOL    HW188209   4.991   5.031   3.558 -0.9590  0.4017 -0.4567
28557SOL    HW288210   4.991   4.886   3.599  0.4573  0.8571  1.2389
28558SOL     OW88211   0.485   1.814   1.108  0.2967 -0.0327  0.0849
28558SOL    HW188212   0.482   1.850   1.196 -0.0942  0.4609 -0.1284
28558SOL    HW288213   0.453   1.885   1.052  2.5421  0.4175 -0.6880
28559SOL     OW88214   3.045   2.107   1.707 -0.8242  0.7410  0.4653
28559SOL    HW188215   3.010   2.019   1.695  0.1790  0.3531  0.3573
28559SOL    HW288216   3.052   2.117   1.802 -0.0745  0.3628  0.4488
28560SOL     OW88217   0.942   9.609   4.799 -0.0603  0.0673 -0.2556
28560SOL    HW188218   0.883   9.607   4.724 -0.7326  0.4179  0.2567
28560SOL    HW288219   0.891   9.652   4.868  0.6284 -0.0545  0.3310
28561SOL     OW88220   8.169   1.297   3.369  0.2936 -0.0646 -0.5659
28561SOL    HW188221   8.102   1.264   3.310 -2.2196  2.0241  0.9947
28561SOL    HW288222   8.247   1.306   3.314 -0.2433 -3.8483 -2.0906
28562SOL     OW88223   2.737   9.143   8.505 -0.6698  0.3001  0.6190
28562SOL    HW188224   2.767   9.101   8.585 -0.0199 -0.0706  0.1886
28562SOL    HW288225   2.796   9.218   8.493  0.9425 -1.1708 -0.9166
28563SOL     OW88226   8.204   1.280   7.771 -0.1759 -0.1690  0.0937
28563SOL    HW188227   8.252   1.362   7.758 -0.2143 -0.1170  0.2840
28563SOL    HW288228   8.140   1.300   7.840 -0.2176 -0.3451  0.1069
28564SOL     OW88229   1.888   7.093   6.733 -0.2112  0.4160  0.2635
28564SOL    HW188230   1.951   7.160   6.706  1.1131 -0.9926 -0.1981
28564SOL    HW288231   1.940   7.027   6.777 -1.4755 -0.4354  0.5070
28565SOL     OW88232   9.571   5.524  10.007 -0.2383  0.0058  0.3521
28565SOL    HW188233   9.544   5.584   9.939  0.9975 -0.4437 -0.5522
28565SOL    HW288234   9.510   5.450  10.000 -0.5863  0.3007  0.2503
28566SOL     OW88235   3.262   7.359   5.812 -0.1957  0.1381 -0.5000
28566SOL    HW188236   3.348   7.367   5.852 -1.2109  1.5718  1.5282
28566SOL    HW288237   3.261   7.272   5.772  2.2297  0.1854 -0.7230
28567SOL     OW88238   5.061   1.534   4.598  0.2995 -0.0051  0.0647
28567SOL    HW188239   5.121   1.557   4.528  1.9349 -0.1436  1.3835
28567SOL    HW288240   5.037   1.617   4.639 -0.2252  0.0296 -0.3067
28568SOL     OW88241   2.311   2.406   9.513  0.1823 -0.0226  0.2276
28568SOL    HW188242   2.315   2.460   9.592 -0.7056  0.8739 -0.3220
28568SOL    HW288243   2.253   2.333   9.536  0.0619  0.1455  0.4589
28569SOL     OW88244   0.626   5.486   6.153  0.4923  0.1165  0.0285
28569SOL    HW188245   0.709   5.523   6.182  0.6407  0.2574 -0.5536
28569SOL    HW288246   0.618   5.404   6.202  1.8388 -0.7698 -1.1838
28570SOL     OW88247   1.890   9.300   4.350 -0.3486 -0.7602  0.6370
28570SOL    HW188248   1.974   9.340   4.329  0.3631 -1.8959  1.3092
28570SOL    HW288249   1.838   9.373   4.385  0.3103 -0.0353  0.1343
28571SOL     OW88250   5.060   8.680   3.544  0.3250 -0.0461  0.2868
28571SOL    HW188251   5.113   8.757   3.524 -0.8016  0.6487 -0.0475
28571SOL    HW288252   5.093   8.612   3.485 -0.1472  0.8015 -0.9645
28572SOL     OW88253   2.049   8.029   9.075 -0.1982  0.3834 -0.5251
28572SOL    HW188254   2.059   8.124   9.070 -0.4283  0.4249 -0.1463
28572SOL    HW288255   2.128   7.995   9.033 -0.2087  0.7418 -0.8405
28573SOL     OW88256   1.619   9.852   1.330  0.4282  0.1364  0.0007
28573SOL    HW188257   1.562   9.879   1.258  0.0167  1.0256  0.6389
28573SOL    HW288258   1.665   9.932   1.355 -0.0609  0.0350  1.2716
28574SOL     OW88259   2.499   2.159   0.083  0.0712 -0.5878  0.0273
28574SOL    HW188260   2.454   2.186   0.164  0.4629 -3.0256  1.0992
28574SOL    HW288261   2.533   2.072   0.102 -0.2179 -1.4148 -2.9391
28575SOL     OW88262   5.242  10.005   6.521 -1.6298  0.3095 -0.2675
28575SOL    HW188263   5.235   9.948   6.597  0.2633 -0.0712 -0.3587
28575SOL    HW288264   5.215   9.950   6.447 -1.5037  0.0766 -0.1397
28576SOL     OW88265   6.261   6.579   3.946 -0.0308  0.2781 -0.2707
28576SOL    HW188266   6.323   6.525   3.898  0.8431  1.7141 -0.8053
28576SOL    HW288267   6.263   6.664   3.901 -2.2986  0.3858 -0.2310
28577SOL     OW88268   4.483   8.960   9.556 -0.3126 -0.2265  0.3088
28577SOL    HW188269   4.496   9.031   9.493  0.3286 -1.7352 -1.3111
28577SOL    HW288270   4.481   9.003   9.641  3.0716  1.4432 -0.3733
28578SOL     OW88271   7.823   3.199   2.387  0.0217 -0.3934 -0.1170
28578SOL    HW188272   7.731   3.224   2.394  0.0730 -0.3508  0.4900
28578SOL    HW288273   7.831   3.157   2.301 -0.8217 -1.4763  0.3144
28579SOL     OW88274   5.756   3.989   6.925 -0.3197  0.5717  0.0958
28579SOL    HW188275   5.832   3.936   6.950 -0.6457  0.9098  1.8912
28579SOL    HW288276   5.735   3.961   6.836 -0.8031 -2.7447  1.1802
28580SOL     OW88277   3.091   0.719   2.895  0.5881 -0.0595 -0.2019
28580SOL    HW188278   3.004   0.687   2.872  0.3347  1.0166 -0.7684
28580SOL    HW288279   3.084   0.744   2.987  0.6195 -1.0126  0.0723
28581SOL     OW88280   1.213   5.645   2.391 -0.1126 -0.2854 -0.3222
28581SOL    HW188281   1.159   5.571   2.364 -0.7427 -0.1432  0.5268
28581SOL    HW288282   1.160   5.691   2.456  0.5437  0.5382 -0.3602
28582SOL     OW88283   1.941   1.390   0.909 -0.0132  0.2041  0.0615
28582SOL    HW188284   1.988   1.328   0.853  0.1352 -0.0850  0.5096
28582SOL    HW288285   1.871   1.338   0.949  0.5579  0.1562  1.0011
28583SOL     OW88286   9.711   9.841   2.652  0.3652  0.3685 -0.3450
28583SOL    HW188287   9.779   9.776   2.669  0.2850  0.0265 -1.3023
28583SOL    HW288288   9.687   9.827   2.561  0.5324  1.9149 -0.6395
28584SOL     OW88289   9.955   2.110   0.396  0.6409 -0.4395  0.3465
28584SOL    HW188290   9.943   2.168   0.472 -0.1216 -0.3277  0.1509
28584SOL    HW288291   9.903   2.150   0.327  0.5492 -1.0565  0.0476
28585SOL     OW88292   3.738   9.627   5.321 -0.6399  0.1450 -0.5636
28585SOL    HW188293   3.734   9.701   5.382 -1.2071 -0.6361  0.3703
28585SOL    HW288294   3.822   9.636   5.277 -0.0373  0.5036  0.6356
28586SOL     OW88295   0.250   4.368   8.666 -0.1401 -0.3965  0.1351
28586SOL    HW188296   0.178   4.401   8.720 -0.4997 -1.9984  0.6630
28586SOL    HW288297   0.208   4.309   8.604  0.5452 -0.1754 -0.5553
28587SOL     OW88298   3.710   4.000   4.394 -0.6573 -0.0298 -0.1424
28587SOL    HW188299   3.769   4.075   4.401  1.5325 -1.8421  1.5746
28587SOL    HW288300   3.634   4.034   4.347  2.1071  2.1780 -3.3159
28588SOL     OW88301   2.662   7.563   5.829 -0.0346  0.3384 -0.3042
28588SOL    HW188302   2.670   7.499   5.758  0.3691  0.1893 -0.1288
28588SOL    HW288303   2.580   7.609   5.811 -1.0857 -1.2279  0.3655
28589SOL     OW88304   3.449   5.898   5.150  0.0199 -0.3021  0.4393
28589SOL    HW188305   3.446   5.807   5.180  0.1454  0.0404  1.4843
28589SOL    HW288306   3.542   5.917   5.137 -0.0675 -0.6644 -0.8673
28590SOL     OW88307   0.963   3.705   5.702  0.1689  0.1053 -0.0223
28590SOL    HW188308   0.880   3.733   5.741 -0.3717 -1.8664  0.2887
28590SOL    HW288309   1.013   3.668   5.775  1.3179  1.2158 -0.2218
28591SOL     OW88310   5.939   3.688   9.280 -0.1442 -0.8731  0.1387
28591SOL    HW188311   6.010   3.649   9.332  0.5026 -0.8545 -0.7075
28591SOL    HW288312   5.905   3.759   9.334  2.7164  1.2965 -0.7701
28592SOL     OW88313   8.387   8.618   1.607 -0.1484 -0.0539 -0.0571
28592SOL    HW188314   8.298   8.652   1.599  0.0727  0.8292  1.0973
28592SOL    HW288315   8.395   8.594   1.699  1.3510  1.4077  0.2240
28593SOL     OW88316   3.698   4.214   0.845  0.1662 -0.0268 -0.2798
28593SOL    HW188317   3.651   4.271   0.905  0.6361 -0.4274  0.4924
28593SOL    HW288318   3.656   4.129   0.855 -1.6942  0.5548 -2.7493
28594SOL     OW88319   0.154   5.162   6.320 -0.7057  0.0510  0.0284
28594SOL    HW188320   0.138   5.103   6.246  0.3028 -0.1314 -0.0597
28594SOL    HW288321   0.067   5.191   6.348 -1.1304 -0.4315 -0.7828
28595SOL     OW88322   2.047   9.847   6.563 -0.2978  0.0991  0.0196
28595SOL    HW188323   2.032   9.813   6.475  0.2874 -0.3756  0.1087
28595SOL    HW288324   1.992   9.926   6.567  2.3523  2.1656 -2.0062
28596SOL     OW88325   8.905   4.905   1.008  0.4811 -0.7881 -0.2182
28596SOL    HW188326   8.977   4.911   1.071 -0.6915  1.1908  0.9878
28596SOL    HW288327   8.847   4.838   1.045  0.3393 -0.4149  0.2364
28597SOL     OW88328   5.057   6.191   5.866  0.2528  0.4695 -0.3682
28597SOL    HW188329   5.021   6.196   5.777  1.8978  1.1434 -1.0128
28597SOL    HW288330   5.027   6.106   5.898 -0.7590  0.4161 -1.3849
28598SOL     OW88331   6.385   0.803   4.735 -0.0666  0.2562  0.2899
28598SOL    HW188332   6.299   0.773   4.764 -0.3464  1.1278  0.3652
28598SOL    HW288333   6.387   0.783   4.641 -0.6455  0.9230  0.1363
28599SOL     OW88334   9.667   3.210   2.438  0.2465  0.3314  0.5651
28599SOL    HW188335   9.598   3.150   2.408  1.3960 -0.8562  0.2578
28599SOL    HW288336   9.672   3.195   2.533  0.5821 -0.1052  0.4778
28600SOL     OW88337   7.928   5.902   5.820  0.0140 -0.0582 -0.3473
28600SOL    HW188338   7.969   5.988   5.831  0.4215 -0.1783 -0.8908
28600SOL    HW288339   7.927   5.865   5.908 -0.1221  0.4808 -0.1152
28601SOL     OW88340   5.518   8.152   8.948  0.0238 -0.0376 -0.0596
28601SOL    HW188341   5.446   8.161   8.886 -2.3833 -2.7066  2.1977
28601SOL    HW288342   5.521   8.058   8.966  2.0140  0.4473  2.3170
28602SOL     OW88343   6.650   9.685   5.450  0.0075  0.0496 -0.2038
28602SOL    HW188344   6.560   9.683   5.416  0.4935 -1.3471 -1.4324
28602SOL    HW288345   6.704   9.705   5.373  0.9189 -0.9498  0.1777
28603SOL     OW88346   5.733   0.743   9.676 -0.2594 -0.1884  0.1410
28603SOL    HW188347   5.703   0.653   9.657  2.1813 -1.4199  1.8927
28603SOL    HW288348   5.804   0.758   9.613 -1.2020  0.8479 -0.6930
28604SOL     OW88349   7.129   1.153   8.425 -0.0625 -0.8696  0.2968
28604SOL    HW188350   7.192   1.216   8.460 -1.0621  1.6880 -2.2017
28604SOL    HW288351   7.174   1.114   8.350  0.1767 -2.4118  1.2300
28605SOL     OW88352   0.496   8.448   3.752  0.1559  0.5861  0.0929
28605SOL    HW188353   0.466   8.358   3.744 -0.4119  0.6763  1.0673
28605SOL    HW288354   0.544   8.465   3.671 -2.4381  0.4456 -1.5109
28606SOL     OW88355   7.956   3.554   1.135  0.5412 -0.2772 -0.5447
28606SOL    HW188356   8.036   3.543   1.186  0.4331  0.3463 -0.2356
28606SOL    HW288357   7.904   3.617   1.185 -0.1779 -0.7430 -0.7000
28607SOL     OW88358   4.695   3.194   7.288 -0.3207 -0.9775 -0.5719
28607SOL    HW188359   4.704   3.162   7.198  0.2052 -1.3943 -0.3700
28607SOL    HW288360   4.739   3.279   7.287  2.4728 -2.3505  0.0463
28608SOL     OW88361   1.740   3.170   4.720  0.2289 -0.0671  0.4965
28608SOL    HW188362   1.645   3.185   4.718  0.5054  1.9660 -4.3787
28608SOL    HW288363   1.775   3.246   4.767 -0.4292  0.4555  0.1585
28609SOL     OW88364   6.710   3.064   7.787  0.5319  0.5113  0.4923
28609SOL    HW188365   6.805   3.071   7.796  0.3247  0.1367  3.1655
28609SOL    HW288366   6.697   2.991   7.726  1.9606  1.9337 -1.5922
28610SOL     OW88367   0.818   5.776   4.073 -0.2010 -0.0439  0.4621
28610SOL    HW188368   0.782   5.855   4.114 -0.9600 -0.0883 -0.1252
28610SOL    HW288369   0.884   5.809   4.012 -1.4847  0.2353 -0.8078
28611SOL     OW88370   5.315   4.028   3.604 -0.5529  0.2122  0.1712
28611SOL    HW188371   5.278   3.982   3.530 -0.3375 -0.4378  0.4652
28611SOL    HW288372   5.405   4.048   3.579 -0.3347 -0.4274  0.4441
28612SOL     OW88373   0.615   7.267   3.526 -0.3251  0.4697 -0.5851
28612SOL    HW188374   0.577   7.353   3.544 -1.3897  0.1503 -1.2481
28612SOL    HW288375   0.547   7.221   3.477  0.1432 -0.8404 -0.0242
28613SOL     OW88376   8.288   5.093   3.903  0.6378 -0.1716 -0.0520
28613SOL    HW188377   8.332   5.010   3.884 -0.1103 -0.9127  1.3658
28613SOL    HW288378   8.236   5.111   3.825 -1.8491 -2.8081  0.9157
28614SOL     OW88379   8.333   6.169   0.023  0.4901 -0.1390  0.1129
28614SOL    HW188380   8.274   6.234  -0.015  1.8757  0.8545 -0.3750
28614SOL    HW288381   8.282   6.088   0.023 -0.7673  0.6301 -0.5696
28615SOL     OW88382   4.682   8.328   3.279 -0.9075  0.1800  0.1238
28615SOL    HW188383   4.660   8.293   3.192 -1.0313  0.1345  0.1746
28615SOL    HW288384   4.765   8.286   3.301 -0.5792  0.6405 -0.2316
28616SOL     OW88385   0.664   8.792   7.647 -0.4534  0.0598 -0.3145
28616SOL    HW188386   0.611   8.797   7.726 -0.8015  0.6877 -0.5805
28616SOL    HW288387   0.736   8.852   7.662 -1.2783  1.2511 -1.0293
28617SOL     OW88388   9.462   4.169   8.918 -0.8533 -0.3589  0.4468
28617SOL    HW188389   9.468   4.227   8.842 -0.0168  1.6404  1.9982
28617SOL    HW288390   9.454   4.081   8.880  1.4311  0.3888 -1.9630
28618SOL     OW88391   4.755   5.828   2.685  0.1079 -0.7506 -0.6281
28618SOL    HW188392   4.755   5.802   2.593 -1.9719 -0.6058 -0.7113
28618SOL    HW288393   4.664   5.817   2.712  0.1548  1.6453  0.7012
28619SOL     OW88394   2.630   8.310   0.912  1.1298 -0.0996  0.1174
28619SOL    HW188395   2.697   8.329   0.847 -0.4561  0.4761 -1.4089
28619SOL    HW288396   2.615   8.393   0.956  0.1295  0.2447 -0.8293
28620SOL     OW88397   0.963   3.982   5.689  0.1833 -0.3001 -0.4532
28620SOL    HW188398   0.885   3.954   5.736 -0.1106  0.6107 -0.3872
28620SOL    HW288399   1.023   3.908   5.696  0.1767 -0.1388  1.4274
28621SOL     OW88400   5.229   2.539   9.344 -0.1864 -0.0089 -0.0945
28621SOL    HW188401   5.217   2.452   9.308 -0.5059  0.2203 -0.5528
28621SOL    HW288402   5.177   2.540   9.424 -0.6110 -0.0693 -0.3693
28622SOL     OW88403   3.405   7.321   0.394  0.0320 -0.1539  0.2062
28622SOL    HW188404   3.326   7.326   0.340  0.1245 -0.7115  0.0138
28622SOL    HW288405   3.414   7.228   0.415  0.1272  0.0305  0.9951
28623SOL     OW88406   5.904   8.412   7.311 -0.1662 -0.8627  0.2416
28623SOL    HW188407   5.874   8.451   7.229  0.9433 -3.0739 -1.2748
28623SOL    HW288408   5.827   8.365   7.344 -0.6269  0.0648  0.4923
28624SOL     OW88409   1.285   9.837   1.505  0.0840 -0.2610 -0.3623
28624SOL    HW188410   1.313   9.920   1.544 -1.2133 -0.0088  0.0704
28624SOL    HW288411   1.357   9.811   1.449  0.7296  0.8952 -0.0854
28625SOL     OW88412   8.339   4.732   1.865  0.2839 -0.1253  0.2786
28625SOL    HW188413   8.362   4.639   1.864  1.1152  0.0776  0.2636
28625SOL    HW288414   8.416   4.776   1.830 -0.0783  0.5801  0.3588
28626SOL     OW88415   0.999   6.404   6.432 -0.5115  0.1076 -0.0763
28626SOL    HW188416   1.060   6.331   6.440 -0.1862  0.4148  0.2591
28626SOL    HW288417   0.934   6.374   6.369 -0.0939 -0.2798 -0.3280
28627SOL     OW88418   6.726   3.108   3.297 -0.0098  0.2116  0.0616
28627SOL    HW188419   6.816   3.085   3.320 -0.0157 -1.1173 -1.1700
28627SOL    HW288420   6.725   3.204   3.299  0.8867  0.2064  2.0389
28628SOL     OW88421   5.357   5.070   0.601 -0.1219  0.5889 -0.1950
28628SOL    HW188422   5.367   5.085   0.507 -0.2035  2.2772  0.0425
28628SOL    HW288423   5.337   4.977   0.609  0.1265  0.3825 -1.8298
28629SOL     OW88424   7.745   6.317   2.197  0.1850  0.6187  0.0623
28629SOL    HW188425   7.737   6.406   2.230 -2.7551  1.0478 -1.5950
28629SOL    HW288426   7.802   6.324   2.120  0.1256  1.0429  0.0593
28630SOL     OW88427   0.886   1.800   7.518  0.0382 -0.3005 -0.1479
28630SOL    HW188428   0.967   1.849   7.501 -0.2069 -0.3439 -1.4542
28630SOL    HW288429   0.850   1.842   7.597  0.2290  1.1350 -0.7989
28631SOL     OW88430   6.389   8.029   8.089 -0.5924 -0.1867  0.2470
28631SOL    HW188431   6.351   8.115   8.104  0.1297  0.3262 -0.8478
28631SOL    HW288432   6.367   7.979   8.168 -2.1780  0.5760  0.2930
28632SOL     OW88433   9.808   8.507   7.716 -0.4484  0.1428  0.3073
28632SOL    HW188434   9.719   8.536   7.696 -0.9278 -1.0399  0.6924
28632SOL    HW288435   9.841   8.472   7.634 -0.1128  1.1519  0.0100
28633SOL     OW88436   7.494   4.016   0.884 -0.5137  0.6959 -0.0732
28633SOL    HW188437   7.582   4.049   0.866 -0.3360  1.3164  1.7341
28633SOL    HW288438   7.491   3.930   0.843  0.8560  0.7859 -0.3865
28634SOL     OW88439   7.309   5.061   5.125 -0.3542  0.2850  0.0504
28634SOL    HW188440   7.284   5.141   5.079  1.0117 -0.8729 -2.8375
28634SOL    HW288441   7.253   4.993   5.087 -0.0475 -0.4921  0.9706
28635SOL     OW88442   7.014   4.832   1.602  0.6051 -0.4929  0.4782
28635SOL    HW188443   6.925   4.802   1.622 -0.1531  1.0448 -0.4927
28635SOL    HW288444   7.069   4.755   1.618 -1.1742 -2.2047 -1.2363
28636SOL     OW88445   2.381   9.776   0.810  0.3916  0.0835 -0.1066
28636SOL    HW188446   2.363   9.808   0.899 -1.2419 -1.6979  0.2432
28636SOL    HW288447   2.453   9.713   0.821 -0.8389 -1.2882  0.2043
28637SOL     OW88448   0.186   4.635   3.381 -0.0865  0.6080 -1.4052
28637SOL    HW188449   0.160   4.710   3.327  1.4912 -0.3739 -3.5962
28637SOL    HW288450   0.246   4.585   3.326  0.2388 -1.3656  0.6545
28638SOL     OW88451   7.691   9.441   0.311 -0.2039  0.3163  1.1439
28638SOL    HW188452   7.674   9.355   0.271 -0.1539  0.0575  1.6706
28638SOL    HW288453   7.620   9.496   0.280 -0.6781 -0.1270  1.4295
28639SOL     OW88454   7.479   6.228   8.283 -0.6524  0.0990 -0.1464
28639SOL    HW188455   7.388   6.237   8.312  0.2582  1.4365  2.4439
28639SOL    HW288456   7.510   6.318   8.273  0.1055 -0.3455 -2.0139
28640SOL     OW88457   6.150   0.083  10.018 -0.9432  0.7858  0.4636
28640SOL    HW188458   6.057   0.106  10.011 -0.6026  2.7061  1.7891
28640SOL    HW288459   6.191   0.133   9.947 -0.5484  2.2609  1.7101
28641SOL     OW88460   2.981   6.618   0.779 -0.1668  0.3678 -0.4307
28641SOL    HW188461   3.022   6.638   0.863 -0.5348 -0.6851  0.0081
28641SOL    HW288462   2.936   6.698   0.754 -0.3401  0.5762  0.5451
28642SOL     OW88463   9.367   1.012   5.037  0.6713 -0.8858  0.1234
28642SOL    HW188464   9.287   0.960   5.032 -0.7926  1.0805  2.2033
28642SOL    HW288465   9.352   1.073   5.109  3.5055  0.4536 -0.3386
28643SOL     OW88466   8.969   0.523   5.720  0.4457  0.2895  0.0564
28643SOL    HW188467   9.032   0.468   5.767 -0.4158 -2.2473 -1.6630
28643SOL    HW288468   8.904   0.548   5.786  0.0710 -1.9657  0.5724
28644SOL     OW88469   5.949   6.784   3.638 -0.4033 -0.6303 -0.1877
28644SOL    HW188470   5.967   6.853   3.573 -0.3850  0.4791  0.9697
28644SOL    HW288471   5.855   6.768   3.629 -0.2316 -1.1564 -1.1301
28645SOL     OW88472   0.287   9.067   0.426 -0.2337  0.2334  0.1329
28645SOL    HW188473   0.322   9.004   0.362 -0.9146  0.7529 -0.7544
28645SOL    HW288474   0.363   9.092   0.479  0.3788 -0.0500 -0.6072
28646SOL     OW88475   2.158   1.193   6.695  0.3799 -0.2545  0.1661
28646SOL    HW188476   2.073   1.235   6.710  0.1707 -0.6061 -0.0433
28646SOL    HW288477   2.221   1.265   6.698 -0.0290  0.1470 -0.6762
28647SOL     OW88478   9.066   8.498   4.482  0.3346 -0.1930 -0.2081
28647SOL    HW188479   9.036   8.447   4.407  0.2797  0.5540 -0.7006
28647SOL    HW288480   9.047   8.443   4.558 -1.6836 -0.0124 -0.5645
28648SOL     OW88481   9.772   6.091   8.234 -0.6420  0.0757  0.3289
28648SOL    HW188482   9.717   6.049   8.300  0.4655 -0.7414  0.7646
28648SOL    HW288483   9.821   6.019   8.194 -0.0359  0.7547 -0.1729
28649SOL     OW88484   4.906   2.201   7.546 -0.5185  0.4915 -0.3844
28649SOL    HW188485   4.987   2.149   7.550 -1.4022 -1.0177 -1.6649
28649SOL    HW288486   4.920   2.271   7.610  0.1735 -2.0920  2.4517
28650SOL     OW88487   6.155   4.717   0.470  0.2415 -0.3905  0.8830
28650SOL    HW188488   6.152   4.785   0.403 -2.3996 -0.2130  1.1188
28650SOL    HW288489   6.173   4.636   0.422 -0.7173 -0.1186  0.0492
28651SOL     OW88490   4.751   5.705   2.448  0.1634  0.0507  0.2029
28651SOL    HW188491   4.705   5.760   2.385  0.4440 -1.8624 -1.7236
28651SOL    HW288492   4.687   5.639   2.475  0.0873  0.7569  1.8554
28652SOL     OW88493   3.098   1.204   6.399  0.4190  0.0310  0.1141
28652SOL    HW188494   3.168   1.244   6.348  1.2246 -1.5690 -0.0654
28652SOL    HW288495   3.021   1.258   6.381  0.9858  0.2371 -1.7971
28653SOL     OW88496   7.412   5.914   2.664  0.2507 -0.2662 -0.1957
28653SOL    HW188497   7.430   5.914   2.570  1.0902 -3.1768 -0.0812
28653SOL    HW288498   7.482   5.967   2.702  1.0741 -0.7529 -1.0193
28654SOL     OW88499   3.278   9.029   8.518 -0.3071 -0.1357 -0.7436
28654SOL    HW188500   3.242   8.947   8.553 -0.3806 -0.3003 -1.1941
28654SOL    HW288501   3.202   9.087   8.509  0.1366  0.9385  2.1469
28655SOL     OW88502   6.516   7.636   8.773 -0.4165  0.1892 -1.0071
28655SOL    HW188503   6.479   7.565   8.721 -1.2691  0.8552 -1.3166
28655SOL    HW288504   6.590   7.596   8.819 -1.1339 -0.9872 -0.8750
28656SOL     OW88505   3.814   8.405   6.774  0.1972  0.3057 -0.2361
28656SOL    HW188506   3.810   8.384   6.868  0.2457  0.1100 -0.2766
28656SOL    HW288507   3.873   8.339   6.737  0.5056  0.6366 -0.3373
28657SOL     OW88508   2.466   4.153   4.992  0.2437  0.5830 -0.8592
28657SOL    HW188509   2.379   4.193   4.995  0.0232  0.3965 -3.4622
28657SOL    HW288510   2.519   4.207   5.051 -1.2175  1.7613 -0.5844
28658SOL     OW88511   8.902   1.900   9.664 -0.0890  0.3116 -0.1390
28658SOL    HW188512   8.846   1.861   9.732 -0.4102 -1.6624 -1.4828
28658SOL    HW288513   8.916   1.829   9.602  4.3114  0.6223  0.3498
28659SOL     OW88514   6.745   1.780   1.704 -0.1060  0.1050  0.3411
28659SOL    HW188515   6.808   1.852   1.710 -0.8773  0.9891 -1.7253
28659SOL    HW288516   6.770   1.734   1.624 -0.8373 -0.7779  0.6145
28660SOL     OW88517   8.943   0.105   3.471 -0.0822  0.4782 -0.2358
28660SOL    HW188518   8.884   0.159   3.524  0.3983  0.0494  0.7381
28660SOL    HW288519   8.943   0.147   3.385 -0.6205  1.3626  0.1923
28661SOL     OW88520   4.169  10.013   6.275  0.1846  0.0761 -0.1047
28661SOL    HW188521   4.085   9.971   6.294 -0.0479  0.0148 -1.2394
28661SOL    HW288522   4.155  10.105   6.299  0.0060 -0.0615  0.3270
28662SOL     OW88523   3.800   7.405   8.091 -0.5028  0.0581  0.2328
28662SOL    HW188524   3.786   7.310   8.094  0.5125 -0.0992  0.3383
28662SOL    HW288525   3.731   7.438   8.033 -1.0538 -0.7052  0.4462
28663SOL     OW88526   9.293   3.038   7.839  0.1613  0.0331  0.1883
28663SOL    HW188527   9.287   2.945   7.861 -1.6122 -0.2271 -1.2722
28663SOL    HW288528   9.283   3.083   7.923 -1.0015 -1.0511  0.6455
28664SOL     OW88529   0.415   7.092   9.737 -0.3080 -0.0025  0.7927
28664SOL    HW188530   0.441   7.157   9.672 -0.4574 -1.4436 -0.7337
28664SOL    HW288531   0.489   7.031   9.741 -0.4012 -0.0707  1.8008
28665SOL     OW88532   9.289   3.015   2.634  0.0775 -0.7450  0.8325
28665SOL    HW188533   9.307   3.039   2.725  1.5831  0.0998  0.3261
28665SOL    HW288534   9.208   2.963   2.639  0.7391 -1.6527  2.7628
28666SOL     OW88535   9.812   6.861   8.921  0.0541  0.2594 -0.1352
28666SOL    HW188536   9.742   6.923   8.899 -0.6412  0.7696  3.1850
28666SOL    HW288537   9.878   6.914   8.965  1.4973 -0.6259 -1.2128
28667SOL     OW88538   9.589   0.477   9.559 -0.0451 -0.0276  0.3008
28667SOL    HW188539   9.604   0.461   9.652 -0.0590 -0.9925  0.1378
28667SOL    HW288540   9.584   0.573   9.552  0.8561  0.0914  1.1445
28668SOL     OW88541   5.688   3.769   1.952 -0.2878 -0.5559 -0.3866
28668SOL    HW188542   5.645   3.849   1.922 -2.2355 -1.4270 -0.0031
28668SOL    HW288543   5.697   3.715   1.874 -0.6535 -0.7068 -0.3269
28669SOL     OW88544   7.983   5.418   3.083 -0.7033  0.1346  0.3382
28669SOL    HW188545   7.910   5.363   3.054 -0.7914  0.2233  0.3897
28669SOL    HW288546   7.977   5.496   3.028 -0.4989  0.0362  0.1749
28670SOL     OW88547   1.797   2.394   2.781 -0.2858 -0.0033 -0.3646
28670SOL    HW188548   1.718   2.396   2.727  0.5594 -0.6680 -1.6635
28670SOL    HW288549   1.794   2.475   2.831 -1.5536  0.1948 -0.7335
28671SOL     OW88550   7.513   4.394   1.125  0.6555 -0.3027  0.2932
28671SOL    HW188551   7.593   4.446   1.120  1.4480 -1.4713  0.5861
28671SOL    HW288552   7.478   4.414   1.212  1.1161 -0.4880  0.5239
28672SOL     OW88553   3.035   9.326   0.492  0.0361  0.9870  0.6934
28672SOL    HW188554   3.014   9.300   0.402  0.3718 -2.8228  1.6628
28672SOL    HW288555   2.951   9.350   0.530 -0.6957 -1.1417  0.4845
28673SOL     OW88556   6.675   8.872   2.258  0.1292  0.1030  0.3218
28673SOL    HW188557   6.742   8.896   2.194 -1.3100 -0.7988 -1.5607
28673SOL    HW288558   6.620   8.950   2.265 -1.9277 -1.0318 -2.4361
28674SOL     OW88559   3.924   1.725   1.996  0.6930 -0.4740 -0.0281
28674SOL    HW188560   3.981   1.656   2.032 -1.5071 -2.1853  0.2952
28674SOL    HW288561   3.839   1.682   1.986 -0.6331  2.1349 -0.1862
28675SOL     OW88562   9.421   8.641   8.777  0.0475  0.1640  0.1539
28675SOL    HW188563   9.390   8.552   8.763 -2.3088  1.0309 -0.4765
28675SOL    HW288564   9.404   8.658   8.870 -1.5724  0.6824 -0.2197
28676SOL     OW88565   9.903   5.870   7.102 -0.4156  0.1275 -0.0658
28676SOL    HW188566   9.957   5.850   7.179  0.0520  0.6681 -0.2452
28676SOL    HW288567   9.870   5.785   7.073  1.4665 -0.3863 -0.7679
28677SOL     OW88568   4.730   6.806   0.782  0.4264 -0.8533 -0.9470
28677SOL    HW188569   4.650   6.762   0.810  0.1695 -0.0477 -0.3728
28677SOL    HW288570   4.801   6.752   0.816  0.1179 -0.9123 -0.3883
28678SOL     OW88571   9.675   5.144   7.429  0.8259 -0.6242  0.0904
28678SOL    HW188572   9.699   5.077   7.365 -0.7085 -0.4536 -0.6851
28678SOL    HW288573   9.653   5.094   7.508 -0.4510 -1.0635 -0.5262
28679SOL     OW88574   5.352   2.918   9.777  0.5183  0.0586 -0.1940
28679SOL    HW188575   5.349   2.882   9.688 -2.3697 -0.5515  0.0909
28679SOL    HW288576   5.270   2.965   9.786  1.4160  1.3044  1.6885
28680SOL     OW88577   2.249   9.111   7.523 -0.0418  0.0144  0.0160
28680SOL    HW188578   2.326   9.123   7.466  0.3054 -1.9694  0.0045
28680SOL    HW288579   2.284   9.072   7.603 -0.4684  3.2616  1.8442
28681SOL     OW88580   3.739   6.006   2.336 -0.7036 -0.4248  0.2761
28681SOL    HW188581   3.752   6.091   2.293 -1.7096 -0.1923  0.4198
28681SOL    HW288582   3.740   5.942   2.265 -0.5730 -0.2260  0.0998
28682SOL     OW88583   9.659   9.115   6.215  0.0394  0.4424  0.0135
28682SOL    HW188584   9.669   9.021   6.197  1.5783  0.6343 -0.1667
28682SOL    HW288585   9.567   9.133   6.195 -0.1827 -0.9444 -0.3090
28683SOL     OW88586   3.121   6.694   9.265 -0.0547 -0.1318  0.0234
28683SOL    HW188587   3.084   6.626   9.321  0.6983 -1.0122 -0.5476
28683SOL    HW288588   3.137   6.652   9.181 -0.3311  0.9548 -0.5866
28684SOL     OW88589   0.605   8.712   0.089 -0.8930  0.0538  0.5454
28684SOL    HW188590   0.645   8.751   0.167 -0.0094 -0.7203  0.4836
28684SOL    HW288591   0.663   8.736   0.017 -0.5186 -1.0984  0.4587
28685SOL     OW88592   5.228   2.876   2.593 -0.0474  0.0496 -0.1039
28685SOL    HW188593   5.309   2.840   2.628 -0.5461 -0.3542  0.6541
28685SOL    HW288594   5.162   2.854   2.659 -1.0122 -0.7603 -1.3237
28686SOL     OW88595   0.538   3.093   3.072 -0.4427  0.3685 -0.0773
28686SOL    HW188596   0.616   3.138   3.037 -0.3396  1.2796  1.3075
28686SOL    HW288597   0.569   3.005   3.094 -0.0485  0.4090 -0.4517
28687SOL     OW88598   4.570   9.621   4.072 -0.2421  0.0684  0.2807
28687SOL    HW188599   4.547   9.705   4.031 -1.2849 -0.2232  0.2648
28687SOL    HW288600   4.615   9.646   4.153  0.3575  0.6434 -0.2277
28688SOL     OW88601   3.102   3.536   0.937 -0.0805  0.3262  0.4608
28688SOL    HW188602   3.037   3.534   0.866  0.4151  0.3371 -0.0030
28688SOL    HW288603   3.150   3.618   0.923 -0.0756  0.3938  0.8917
28689SOL     OW88604   2.324  10.189   8.843 -0.1663 -0.4152  0.0108
28689SOL    HW188605   2.299  10.241   8.919 -0.6346  0.7769 -0.9450
28689SOL    HW288606   2.416  10.213   8.827  0.4062 -1.8152  1.1128
28690SOL     OW88607   9.476   2.351   5.325 -0.0683 -0.1437 -0.1623
28690SOL    HW188608   9.504   2.437   5.293  1.1694 -0.4485  0.0608
28690SOL    HW288609   9.472   2.361   5.420  0.0847 -0.3342 -0.1353
28691SOL     OW88610   9.008   3.788   1.856 -0.4714 -0.2151 -0.4438
28691SOL    HW188611   9.010   3.728   1.781 -0.0815 -0.4255 -0.2647
28691SOL    HW288612   8.978   3.733   1.929  0.0313 -0.2270 -0.2460
28692SOL     OW88613   8.188   9.462   7.900 -0.2085  0.2442 -0.5458
28692SOL    HW188614   8.130   9.448   7.824 -1.3162 -0.7270  0.4611
28692SOL    HW288615   8.141   9.524   7.955  1.2820  2.1271 -1.3568
28693SOL     OW88616   8.862   1.154   1.886 -0.5163 -0.0483 -0.3092
28693SOL    HW188617   8.807   1.203   1.825 -1.4470  0.6224  1.0426
28693SOL    HW288618   8.815   1.073   1.902 -1.2041  0.5789  0.9426
28694SOL     OW88619   5.473   2.959   3.594  0.3438  0.8194 -0.1688
28694SOL    HW188620   5.419   3.019   3.646 -0.8480  0.0919 -0.5386
28694SOL    HW288621   5.425   2.947   3.512  0.8472 -0.1765 -0.3338
28695SOL     OW88622   5.741   6.371   3.714  0.0963 -0.0616 -0.1711
28695SOL    HW188623   5.675   6.440   3.704 -1.2650 -1.3686 -0.3320
28695SOL    HW288624   5.715   6.323   3.792  0.8703 -0.5830 -0.2230
28696SOL     OW88625   0.852   4.406   2.303  0.1008  0.3143  0.1147
28696SOL    HW188626   0.847   4.418   2.208  1.0566  0.1332  0.0358
28696SOL    HW288627   0.918   4.470   2.331 -0.5171  0.6835  0.7117
28697SOL     OW88628   7.908   4.996   0.705 -0.9679 -0.0235  0.2241
28697SOL    HW188629   7.900   5.008   0.610 -1.5255 -1.2810  0.1040
28697SOL    HW288630   7.871   5.076   0.742 -2.0266 -0.1108 -0.6059
28698SOL     OW88631   4.474   8.752   6.107 -0.1955  0.0149  0.2038
28698SOL    HW188632   4.406   8.695   6.071  1.0306 -1.8342  0.6844
28698SOL    HW288633   4.547   8.692   6.125  0.7417  1.5835  1.7566
28699SOL     OW88634   6.321   8.502   2.831 -0.1198 -0.4327  0.1287
28699SOL    HW188635   6.417   8.496   2.826 -0.1906 -1.6845  0.1006
28699SOL    HW288636   6.291   8.494   2.741 -0.2701 -0.5768  0.1899
28700SOL     OW88637   4.491   7.523   2.390 -0.3933 -0.5114  0.6592
28700SOL    HW188638   4.584   7.542   2.383 -0.6982  0.2403 -2.0928
28700SOL    HW288639   4.480   7.440   2.343 -1.2862  0.0900 -0.2340
28701SOL     OW88640   0.815   6.465   5.363  0.2124  0.2176  0.1596
28701SOL    HW188641   0.849   6.375   5.364  0.1237  0.1791  2.1145
28701SOL    HW288642   0.888   6.518   5.396 -0.2291  0.6783  0.3919
28702SOL     OW88643   1.960   9.233   9.455 -0.3420 -0.5228  0.1629
28702SOL    HW188644   2.041   9.206   9.412 -0.2546  0.1165 -0.0874
28702SOL    HW288645   1.965   9.196   9.543  0.8381  0.6218  0.5871
28703SOL     OW88646  10.201   1.968   8.575 -0.2390  0.5393  1.1844
28703SOL    HW188647  10.124   2.008   8.617  1.1102  2.6212  1.7454
28703SOL    HW288648  10.265   1.962   8.646  1.0157  1.2590  0.1100
28704SOL     OW88649   6.432   9.811   3.886 -0.0147  0.5367  0.0044
28704SOL    HW188650   6.382   9.821   3.967 -2.0419  0.9125 -1.2518
28704SOL    HW288651   6.508   9.760   3.911 -0.3950  0.9987  2.2371
28705SOL     OW88652   0.744   8.975   7.371  0.1971  0.6071  0.4870
28705SOL    HW188653   0.654   8.943   7.360  1.0532 -1.4469 -0.6956
28705SOL    HW288654   0.738   9.036   7.445 -1.8803 -0.6437  1.4062
28706SOL     OW88655   8.838   1.197   3.569  0.3552 -0.1826 -0.2002
28706SOL    HW188656   8.903   1.222   3.635 -0.1807 -0.3518  0.3950
28706SOL    HW288657   8.756   1.193   3.617 -0.0271 -0.3823 -0.8686
28707SOL     OW88658   2.963   4.379   6.314  0.0039 -0.0210  0.0752
28707SOL    HW188659   2.997   4.367   6.226  1.5689  1.5445  0.4206
28707SOL    HW288660   3.041   4.372   6.370 -0.6661  0.8874  1.1391
28708SOL     OW88661   0.019   1.567   7.935  0.0100 -0.2777 -0.3412
28708SOL    HW188662  -0.003   1.622   7.860  1.2476 -0.2492 -0.6808
28708SOL    HW288663   0.094   1.515   7.906  2.1031  1.4834  1.6968
28709SOL     OW88664   8.090   2.611   8.301 -0.8587 -0.0596 -0.4757
28709SOL    HW188665   8.109   2.675   8.233  0.0471  0.9502  0.6889
28709SOL    HW288666   8.176   2.582   8.332 -1.2561 -0.4950  0.2420
28710SOL     OW88667   5.555   6.778   6.284 -0.2679 -0.0874 -0.3180
28710SOL    HW188668   5.551   6.823   6.200  0.2267  0.1482 -0.2187
28710SOL    HW288669   5.486   6.819   6.336  2.5788  3.2108  1.0469
28711SOL     OW88670   0.905   8.499   5.300 -0.0436  0.0942 -0.2456
28711SOL    HW188671   0.822   8.459   5.273  0.0366  0.0514 -0.4267
28711SOL    HW288672   0.912   8.579   5.248  0.3001 -0.1898 -0.6443
28712SOL     OW88673   9.409   2.590   8.304  0.1571  0.4455 -0.5606
28712SOL    HW188674   9.374   2.508   8.271 -0.1011 -0.2738  1.4483
28712SOL    HW288675   9.500   2.591   8.276 -0.0810 -0.1041 -1.3506
28713SOL     OW88676   4.761   5.630   0.766 -0.4173  0.6119 -0.3671
28713SOL    HW188677   4.826   5.617   0.835 -0.7733 -1.8623 -0.4614
28713SOL    HW288678   4.780   5.717   0.731  1.9880  0.4747  0.5200
28714SOL     OW88679   4.416   3.418   6.110 -0.2587  0.7608  0.0297
28714SOL    HW188680   4.424   3.426   6.205  0.5945 -0.0893  0.0409
28714SOL    HW288681   4.498   3.376   6.083  1.0761  4.1149 -1.4863
28715SOL     OW88682   3.270   2.315   6.124 -0.2442  0.2070 -0.0648
28715SOL    HW188683   3.233   2.335   6.210 -0.3378 -0.8825  0.1654
28715SOL    HW288684   3.317   2.394   6.099 -1.1529  0.9324  0.4871
28716SOL     OW88685   6.692   7.380   1.845  0.5126 -0.2061 -0.0362
28716SOL    HW188686   6.610   7.375   1.894  0.7053 -2.8440  0.1189
28716SOL    HW288687   6.664   7.385   1.753  0.1675  0.9436  0.1305
28717SOL     OW88688   9.860   5.138   2.230  0.0462 -0.0865 -0.5347
28717SOL    HW188689   9.803   5.063   2.244  0.8763 -0.7425 -0.6011
28717SOL    HW288690   9.949   5.101   2.233  0.5103  1.1124  0.8209
28718SOL     OW88691   1.294   3.561   3.807 -0.0999  0.5121  0.2635
28718SOL    HW188692   1.253   3.558   3.720  0.0791 -0.4440  0.2018
28718SOL    HW288693   1.382   3.593   3.792  0.1997 -0.4286 -0.0236
28719SOL     OW88694   4.347   5.400   4.380 -0.3309  0.5852  0.1602
28719SOL    HW188695   4.358   5.334   4.312  1.9488  1.7651 -0.6570
28719SOL    HW288696   4.427   5.394   4.433 -0.3757  2.2363  0.4593
28720SOL     OW88697   3.138   5.065   9.390  0.3504 -0.3841  0.0765
28720SOL    HW188698   3.140   5.147   9.439 -1.4170 -0.5449  0.4479
28720SOL    HW288699   3.075   5.079   9.320  1.1056 -0.9515 -0.7365
28721SOL     OW88700   5.370   0.604   4.036 -0.1484  0.1569  0.5994
28721SOL    HW188701   5.277   0.626   4.035 -0.2873 -0.4516 -0.2133
28721SOL    HW288702   5.412   0.680   4.077 -0.8233  1.1270 -0.4832
28722SOL     OW88703   3.919   6.498   0.465  0.0397  0.3492  0.0932
28722SOL    HW188704   3.962   6.504   0.551  2.1491 -1.9712 -0.7548
28722SOL    HW288705   3.887   6.587   0.448  2.1009  1.5071  2.0090
28723SOL     OW88706   5.074   9.094   6.145 -0.2975  0.8208  0.2919
28723SOL    HW188707   5.133   9.019   6.139 -0.6889  0.4878  0.5682
28723SOL    HW288708   5.041   9.107   6.056  2.3098  2.7403 -0.4509
28724SOL     OW88709   7.171   3.272   4.498 -0.1447 -0.3322 -0.4335
28724SOL    HW188710   7.264   3.251   4.495 -0.0051  0.5130 -2.5702
28724SOL    HW288711   7.137   3.220   4.571  2.0602 -0.3317  0.6313
28725SOL     OW88712   5.670   5.951   7.899  0.8486 -0.1277 -0.4230
28725SOL    HW188713   5.577   5.942   7.917  0.4063  2.3693 -1.1957
28725SOL    HW288714   5.711   5.953   7.985 -0.2109  2.1146  0.0685
28726SOL     OW88715   8.385   7.763   3.652 -0.0339  0.3673  0.0718
28726SOL    HW188716   8.414   7.694   3.592 -2.0536 -0.4120 -0.0417
28726SOL    HW288717   8.446   7.759   3.725  1.6276  0.4072 -1.2686
28727SOL     OW88718   3.615   0.288   6.458 -0.0928  0.4071 -0.8050
28727SOL    HW188719   3.677   0.248   6.399 -0.3688  1.7859 -2.0583
28727SOL    HW288720   3.540   0.312   6.403 -1.5549 -0.8072  0.5821
28728SOL     OW88721   9.860   8.347   1.279  0.2360 -0.2859  0.3467
28728SOL    HW188722   9.905   8.385   1.355 -1.9858 -0.5972  1.8571
28728SOL    HW288723   9.808   8.419   1.244  0.1426 -0.5261 -0.0080
28729SOL     OW88724   8.313   4.455   3.239  0.2827  0.0872  0.5261
28729SOL    HW188725   8.251   4.522   3.266 -0.4588  0.0105 -0.9295
28729SOL    HW288726   8.367   4.497   3.173 -0.1849 -0.7309 -0.3927
28730SOL     OW88727   6.884   5.865   0.084 -0.1118 -0.2967 -0.1444
28730SOL    HW188728   6.876   5.798   0.152 -0.1493  1.5556  1.7234
28730SOL    HW288729   6.977   5.888   0.083 -0.5273  1.5572  1.1715
28731SOL     OW88730   8.969   6.631   2.383 -0.2682  0.3148 -0.5272
28731SOL    HW188731   8.916   6.668   2.454 -0.5030  0.7792 -0.9393
28731SOL    HW288732   9.040   6.585   2.428  0.0571  1.3076  0.0077
28732SOL     OW88733   7.406   8.757   5.298  0.1852  0.0879  0.2145
28732SOL    HW188734   7.414   8.800   5.383 -0.4787  0.4557  0.0910
28732SOL    HW288735   7.368   8.672   5.317  0.9469 -0.2152  0.3935
28733SOL     OW88736   5.696   9.823   6.617 -0.5668 -0.2482  0.0712
28733SOL    HW188737   5.693   9.879   6.540  0.1317  0.5133  0.5773
28733SOL    HW288738   5.635   9.751   6.598 -2.7008  1.5219  0.0858
28734SOL     OW88739   9.341   0.511  10.001 -0.1346  0.1551  0.2736
28734SOL    HW188740   9.351   0.513  10.096 -0.6318 -0.6342  0.3488
28734SOL    HW288741   9.259   0.464   9.986  0.4890 -0.6857 -0.5786
28735SOL     OW88742   7.841   1.931   5.831  0.1757 -0.3514 -0.1907
28735SOL    HW188743   7.846   1.933   5.736 -0.8905  0.6258 -0.2347
28735SOL    HW288744   7.795   2.011   5.855 -0.3111 -0.9966  1.0979
28736SOL     OW88745   4.617   9.061   7.054  0.3729 -0.5125 -0.1983
28736SOL    HW188746   4.597   8.968   7.064  0.7607 -0.6568 -0.7105
28736SOL    HW288747   4.545   9.095   7.001 -0.1943 -0.3483  0.6751
28737SOL     OW88748   0.450   9.625   7.238 -0.2367  0.6726 -0.1036
28737SOL    HW188749   0.453   9.688   7.309 -0.7837  0.3802  0.1811
28737SOL    HW288750   0.532   9.639   7.190  0.0088  1.0484  0.4214
28738SOL     OW88751   8.676   6.815   7.827  0.5246  0.2964 -0.0212
28738SOL    HW188752   8.584   6.811   7.854  0.6826 -1.4274  0.3210
28738SOL    HW288753   8.689   6.738   7.773  1.7448  0.5970 -0.1805
28739SOL     OW88754   7.165   2.710   6.173  0.3811  0.1462  0.5347
28739SOL    HW188755   7.075   2.705   6.141  0.8940 -2.9506 -0.5390
28739SOL    HW288756   7.159   2.768   6.250 -2.2520  1.1359 -0.3442
28740SOL     OW88757   3.628   8.201   8.606  0.3889 -0.4252 -0.0013
28740SOL    HW188758   3.593   8.117   8.575  0.0813 -0.2594 -0.1011
28740SOL    HW288759   3.601   8.265   8.540 -0.4004 -0.0507  0.6795
28741SOL     OW88760   1.229   3.728   0.032  0.0801 -0.0689  0.1117
28741SOL    HW188761   1.293   3.761  -0.031 -0.8529  0.3063 -0.6763
28741SOL    HW288762   1.149   3.716  -0.020 -0.1437 -1.6948  0.8126
28742SOL     OW88763   2.141   8.502   2.225  0.6983  0.1773  0.4755
28742SOL    HW188764   2.195   8.500   2.304  0.5965 -1.3880  0.5218
28742SOL    HW288765   2.052   8.487   2.258  0.7100 -0.8970  0.0222
28743SOL     OW88766   4.142   8.737   2.625 -0.1606  0.1275 -0.0476
28743SOL    HW188767   4.205   8.668   2.606 -0.5760  0.4298 -2.6437
28743SOL    HW288768   4.076   8.694   2.680  0.3524 -1.1328 -0.3988
28744SOL     OW88769   6.790   2.271   7.137  0.1479  0.0170  0.1804
28744SOL    HW188770   6.711   2.263   7.083  0.2703 -2.5158  0.3115
28744SOL    HW288771   6.853   2.315   7.081 -0.7291  0.2814 -0.6119
28745SOL     OW88772   9.385  10.195   2.713  0.2963 -0.0853  0.5782
28745SOL    HW188773   9.417  10.285   2.708  0.4363 -0.0535  1.8763
28745SOL    HW288774   9.460  10.142   2.685  0.5852  0.1459  0.8972
28746SOL     OW88775   5.951   0.622   3.809 -0.0738  0.2214  0.5054
28746SOL    HW188776   5.909   0.708   3.804 -1.3511 -0.5207 -3.1481
28746SOL    HW288777   6.038   0.636   3.772 -0.2636 -0.0215 -0.0400
28747SOL     OW88778   4.092   1.199   9.852  0.0989  0.1919  0.3071
28747SOL    HW188779   4.117   1.222   9.942  1.6534 -2.1204  0.5182
28747SOL    HW288780   4.011   1.149   9.861 -0.2783  0.8047  0.3311
28748SOL     OW88781   9.059   2.180   7.912 -0.3540 -0.6836  0.7721
28748SOL    HW188782   9.040   2.087   7.910 -3.3376 -0.1294  0.4404
28748SOL    HW288783   9.029   2.209   7.999 -0.4935  0.1649  0.4456
28749SOL     OW88784   7.296   0.307   9.353  0.1678 -0.3137  0.3288
28749SOL    HW188785   7.363   0.366   9.318 -0.8861  0.4727 -0.3916
28749SOL    HW288786   7.260   0.354   9.429  1.3826 -1.3434  1.5672
28750SOL     OW88787   0.709   0.106  10.070  0.1675 -0.0790  0.0909
28750SOL    HW188788   0.789   0.058  10.051  1.5450  1.2073  2.3919
28750SOL    HW288789   0.740   0.189  10.107 -2.2275  0.7041  0.3976
28751SOL     OW88790   2.135   6.505   3.622 -0.4103 -0.7391 -0.5637
28751SOL    HW188791   2.061   6.445   3.630 -1.8993  1.0878 -0.0677
28751SOL    HW288792   2.096   6.587   3.592  1.4136  0.2900 -0.2102
28752SOL     OW88793   7.452   1.237   2.628  0.0421 -0.4060 -0.1429
28752SOL    HW188794   7.488   1.153   2.658 -1.9070 -0.6918  1.4746
28752SOL    HW288795   7.386   1.259   2.693  0.0994  2.1018 -0.9047
28753SOL     OW88796   1.020   4.378  10.150 -0.2059 -0.4814  0.4179
28753SOL    HW188797   1.004   4.291  10.185  0.9024  0.1405  2.5317
28753SOL    HW288798   0.936   4.423  10.157 -1.0386 -1.6389 -1.5813
28754SOL     OW88799   7.482   5.258   9.291 -0.3258  0.0795  0.2947
28754SOL    HW188800   7.438   5.210   9.221 -1.6315  0.5130  0.8068
28754SOL    HW288801   7.474   5.350   9.265  0.9786  0.1104 -0.0051
28755SOL     OW88802   9.702   0.253   2.832 -0.6940 -0.5462 -0.0661
28755SOL    HW188803   9.696   0.338   2.788  0.5100  0.1490  1.1212
28755SOL    HW288804   9.661   0.267   2.917 -0.4190 -1.1431  0.1648
28756SOL     OW88805   7.755   9.508   6.416 -0.2296 -0.0617 -0.4069
28756SOL    HW188806   7.843   9.545   6.421 -0.0453 -0.6577  1.2307
28756SOL    HW288807   7.768   9.418   6.386 -0.1395 -0.5356  0.9905
28757SOL     OW88808   7.318   2.533   1.651  0.6627  0.2017  0.4121
28757SOL    HW188809   7.328   2.555   1.744  1.4951  0.7581  0.1965
28757SOL    HW288810   7.407   2.541   1.615  0.2952  0.2623 -0.4947
28758SOL     OW88811   6.878   0.506   6.498 -0.1447  0.0976  0.3686
28758SOL    HW188812   6.860   0.597   6.520  0.7974  0.0974  1.1341
28758SOL    HW288813   6.878   0.504   6.402  1.5258  1.2459  0.3278
28759SOL     OW88814   7.932   7.022   1.518 -0.3250 -0.2994 -0.3980
28759SOL    HW188815   7.947   7.112   1.546 -0.2781 -0.3542 -0.2486
28759SOL    HW288816   8.005   6.973   1.555 -1.6895 -0.8452  1.5985
28760SOL     OW88817   9.428   6.039   4.176 -0.0646  0.1622  0.1624
28760SOL    HW188818   9.414   5.963   4.120 -1.6173  0.7850 -0.3147
28760SOL    HW288819   9.359   6.034   4.242  0.3379  0.7008  0.6395
28761SOL     OW88820   4.677   1.128   6.272 -0.4327 -0.5865  0.4330
28761SOL    HW188821   4.750   1.074   6.303  0.4223 -0.6622 -1.6521
28761SOL    HW288822   4.647   1.085   6.193 -2.6724 -0.4580  1.1684
28762SOL     OW88823   9.595   5.932   3.192 -0.1693  0.3795  0.9811
28762SOL    HW188824   9.551   5.937   3.107 -0.7446 -0.3174  1.2259
28762SOL    HW288825   9.528   5.896   3.251  0.4971  0.0281  1.5299
28763SOL     OW88826   1.428   6.129   0.027  0.6763 -0.1259  0.5593
28763SOL    HW188827   1.378   6.167  -0.046 -0.3808  0.1630  1.4307
28763SOL    HW288828   1.512   6.105  -0.013  1.2063  2.6625 -0.1166
28764SOL     OW88829   2.517   1.433   6.318  0.5202 -0.5886  0.0744
28764SOL    HW188830   2.567   1.478   6.386 -0.8103  1.2810 -0.1594
28764SOL    HW288831   2.568   1.445   6.238  0.3673  0.1460  0.0895
28765SOL     OW88832   0.667   6.559   4.395 -0.4041  0.2333  0.0010
28765SOL    HW188833   0.683   6.473   4.434  0.6638  0.3524 -0.1835
28765SOL    HW288834   0.738   6.571   4.332 -0.2183  1.5087  0.4425
28766SOL     OW88835   0.331   7.512   4.100  0.2886  0.7941  0.0461
28766SOL    HW188836   0.359   7.594   4.060  0.3868 -0.1831 -1.9500
28766SOL    HW288837   0.236   7.520   4.109  0.0907  0.5251 -1.6190
28767SOL     OW88838   8.609   3.854   8.702  0.1039 -0.1612  0.3039
28767SOL    HW188839   8.541   3.802   8.658  0.8716 -0.8609 -0.0636
28767SOL    HW288840   8.565   3.890   8.779 -0.7710 -0.3601 -0.0994
28768SOL     OW88841   0.174   9.718   7.231 -0.9464  0.4421  0.2330
28768SOL    HW188842   0.118   9.659   7.283 -0.8253 -0.5835 -0.7956
28768SOL    HW288843   0.251   9.666   7.210 -0.7545  1.0353 -0.5348
28769SOL     OW88844   1.934   1.942   8.186  0.1698  0.0120 -0.2974
28769SOL    HW188845   1.971   1.972   8.269  1.0808 -0.1636 -0.6340
28769SOL    HW288846   1.929   2.020   8.131 -1.6322  0.3660  0.3590
28770SOL     OW88847   4.109   4.817   9.969 -0.1318  0.0597 -0.4509
28770SOL    HW188848   4.029   4.868   9.962  0.3891  1.1467  1.2496
28770SOL    HW288849   4.151   4.827   9.883 -0.6834  1.3832 -0.5790
28771SOL     OW88850   9.721   3.348   5.245 -0.4634 -0.2049  0.0638
28771SOL    HW188851   9.632   3.379   5.225 -0.5050 -0.4850 -0.1933
28771SOL    HW288852   9.749   3.402   5.319 -1.3014 -0.9242  0.9170
28772SOL     OW88853   7.727   3.434   5.004 -0.0160  0.0194 -0.3713
28772SOL    HW188854   7.812   3.413   4.965 -0.2534 -0.2442 -0.7441
28772SOL    HW288855   7.747   3.446   5.097  0.3399 -0.5869 -0.3612
28773SOL     OW88856   8.977   7.921   6.402 -0.5549  0.0989 -0.0213
28773SOL    HW188857   8.892   7.927   6.447 -0.7763 -2.7371  0.0273
28773SOL    HW288858   8.960   7.863   6.328  0.3957  2.8006 -2.4623
28774SOL     OW88859   4.038   1.596   4.240 -0.8493 -0.0231  0.0698
28774SOL    HW188860   4.126   1.561   4.234 -0.5805  0.6933 -0.1988
28774SOL    HW288861   4.008   1.604   4.149 -0.5247  1.3781  0.0614
28775SOL     OW88862   7.798   6.882   2.092 -0.0150  0.4027 -0.1785
28775SOL    HW188863   7.860   6.954   2.101  1.9290 -1.5257  2.4948
28775SOL    HW288864   7.752   6.900   2.010  1.5440  3.8030 -0.3643
28776SOL     OW88865   8.996   1.274   7.295 -0.3271 -0.2571 -0.1143
28776SOL    HW188866   8.916   1.323   7.276 -0.8100 -1.8066 -2.3167
28776SOL    HW288867   8.975   1.183   7.271  1.6465 -0.9298  0.5966
28777SOL     OW88868   8.728   1.400   3.410  0.0408 -0.2566 -0.2003
28777SOL    HW188869   8.781   1.329   3.446 -1.0239 -2.1633 -2.2204
28777SOL    HW288870   8.762   1.479   3.450  2.0024 -1.8076  1.2784
28778SOL     OW88871   7.289   4.917   7.228 -0.0127  0.5177 -0.4203
28778SOL    HW188872   7.219   4.852   7.218  0.3431 -0.0752  0.7603
28778SOL    HW288873   7.362   4.883   7.177 -0.2054  0.5476 -0.7120
28779SOL     OW88874   7.291   9.189   1.527  0.0515 -0.5738 -0.2457
28779SOL    HW188875   7.259   9.278   1.509 -0.4437 -0.6912  0.0427
28779SOL    HW288876   7.251   9.135   1.459  2.1890 -0.2153 -1.8245
28780SOL     OW88877   2.585   7.622   4.311  0.0237 -0.1019  0.2420
28780SOL    HW188878   2.505   7.674   4.304 -0.4853 -0.7122  1.3015
28780SOL    HW288879   2.648   7.666   4.254 -0.2883  1.8810  1.3656
28781SOL     OW88880   1.802   0.949   4.311 -1.1351 -0.1572 -0.1755
28781SOL    HW188881   1.790   1.040   4.340  0.0111  0.2551 -0.9908
28781SOL    HW288882   1.882   0.950   4.260  2.5048 -2.8667  5.0502
28782SOL     OW88883   6.820   8.915   3.217 -0.0013 -1.0882  0.5272
28782SOL    HW188884   6.863   8.993   3.182 -0.0800 -1.5376 -0.5892
28782SOL    HW288885   6.890   8.850   3.224  0.0682 -0.9218  1.4716
28783SOL     OW88886   1.470   9.238   1.598  0.2064 -0.1507  0.2852
28783SOL    HW188887   1.473   9.187   1.517  0.6674 -0.0250  0.2212
28783SOL    HW288888   1.542   9.202   1.651 -0.2435 -0.3960  0.7388
28784SOL     OW88889   8.993   5.809   5.041  0.5085 -0.0478  0.4027
28784SOL    HW188890   9.000   5.735   5.102 -0.9622 -1.1826 -0.7513
28784SOL    HW288891   8.998   5.887   5.097 -0.9246 -1.0569  1.9837
28785SOL     OW88892   0.307   0.702   8.747 -0.2992  0.1271 -0.0203
28785SOL    HW188893   0.283   0.702   8.654  0.6297  2.9686 -0.3245
28785SOL    HW288894   0.307   0.795   8.771  2.3442 -0.3357  2.0425
28786SOL     OW88895   0.587   7.684   1.887  0.6955 -0.4405  0.2175
28786SOL    HW188896   0.640   7.604   1.888  1.9470  0.3379 -0.8452
28786SOL    HW288897   0.525   7.670   1.815  0.6042 -0.6343  0.3313
28787SOL     OW88898   6.979   0.896  10.161 -0.5195  0.0510 -0.5474
28787SOL    HW188899   6.965   0.885  10.067  0.1850  0.2038 -0.6740
28787SOL    HW288900   6.900   0.940  10.193 -0.3753  0.7978 -1.2158
28788SOL     OW88901   7.095   3.187   5.292  0.6498 -0.1591 -0.2119
28788SOL    HW188902   7.042   3.225   5.222 -1.5308 -0.3109  1.2903
28788SOL    HW288903   7.180   3.230   5.285 -0.1474  1.2005 -1.7546
28789SOL     OW88904   5.561   3.889   4.332 -0.1131 -0.1305  0.6521
28789SOL    HW188905   5.631   3.824   4.336 -0.4074 -0.4654  0.3621
28789SOL    HW288906   5.581   3.950   4.404  0.5301 -0.1629  0.5026
28790SOL     OW88907   5.770   7.776   9.544  0.1754  0.3391 -0.4626
28790SOL    HW188908   5.712   7.807   9.613 -1.4307 -1.9957 -0.6712
28790SOL    HW288909   5.836   7.725   9.590  0.8268  1.2411 -0.4008
28791SOL     OW88910   1.871   8.916   2.798  0.2051 -0.6003  0.2985
28791SOL    HW188911   1.825   8.986   2.844  1.7120  0.3068  0.4518
28791SOL    HW288912   1.927   8.875   2.864 -0.0367 -1.4081  0.0125
28792SOL     OW88913   3.452   9.178   3.715 -0.3453 -0.6964 -0.1614
28792SOL    HW188914   3.479   9.214   3.799  1.1645  0.5187 -1.1237
28792SOL    HW288915   3.383   9.236   3.684 -1.1999 -1.3898  0.4090
28793SOL     OW88916   8.130   5.517   0.995 -0.5183  0.0483 -0.3232
28793SOL    HW188917   8.187   5.595   0.999  0.2850 -0.5086 -0.6605
28793SOL    HW288918   8.103   5.503   1.085  0.2668  0.0484 -0.0777
28794SOL     OW88919   1.359   5.291   2.944  0.1338  0.2248 -0.0441
28794SOL    HW188920   1.281   5.336   2.976  0.5350  1.0273 -0.1880
28794SOL    HW288921   1.384   5.339   2.865 -0.1230 -0.9805 -0.8759
28795SOL     OW88922   8.811  10.131   2.449  0.5825  0.6049  0.0874
28795SOL    HW188923   8.790  10.136   2.543  0.2893 -1.8412  0.1842
28795SOL    HW288924   8.726  10.133   2.405  0.5664 -0.9915  0.0315
28796SOL     OW88925   9.096   5.714  10.057 -0.1616 -0.1477 -0.4654
28796SOL    HW188926   9.038   5.640  10.074 -1.8930  1.2179 -0.3284
28796SOL    HW288927   9.129   5.739  10.144 -1.1126  0.4499 -0.2616
28797SOL     OW88928   9.493   1.674   7.684  0.1432  0.1758 -0.4470
28797SOL    HW188929   9.571   1.637   7.644  0.1569 -1.6569  1.1975
28797SOL    HW288930   9.526   1.740   7.746  0.3787 -0.4945  0.1398
28798SOL     OW88931   3.488   2.190   7.924 -0.3305 -0.5320  0.2968
28798SOL    HW188932   3.518   2.263   7.978 -1.5079  1.0580 -1.1352
28798SOL    HW288933   3.552   2.183   7.854 -1.2220  0.3733 -0.6218
28799SOL     OW88934   9.173   9.350   0.586 -0.5460 -1.0943  0.4865
28799SOL    HW188935   9.195   9.304   0.666 -2.1663 -2.5210  0.1380
28799SOL    HW288936   9.167   9.281   0.519 -1.3356 -0.1816 -0.4050
28800SOL     OW88937   0.182   0.635   3.588 -0.0578 -0.1227 -0.1695
28800SOL    HW188938   0.191   0.608   3.680 -0.2541 -2.1475 -0.7174
28800SOL    HW288939   0.255   0.591   3.544 -0.7520 -0.2516 -1.1951
28801SOL     OW88940   9.843   8.906   9.435  0.1761 -0.2504  0.0352
28801SOL    HW188941   9.789   8.942   9.505  0.1603  2.2735 -1.2091
28801SOL    HW288942   9.783   8.895   9.361  0.6040 -1.0174 -0.2165
28802SOL     OW88943   9.730   3.346   4.624  0.1721  0.3589  0.6423
28802SOL    HW188944   9.738   3.316   4.714  0.7238  2.5747  1.3570
28802SOL    HW288945   9.812   3.319   4.582  0.3090  0.1608  1.0381
28803SOL     OW88946   8.917   5.706   7.774  0.1720 -0.3054  0.3433
28803SOL    HW188947   8.829   5.738   7.753 -0.4480 -1.2415  1.4434
28803SOL    HW288948   8.968   5.785   7.791 -0.0807  0.3107 -1.6891
28804SOL     OW88949   0.315   7.243   9.024 -0.0704  0.0660 -0.4387
28804SOL    HW188950   0.248   7.280   9.082 -0.1752  2.0013 -1.7242
28804SOL    HW288951   0.398   7.265   9.067 -0.2057 -0.9826  0.3784
28805SOL     OW88952   6.603   0.801   5.756  0.0976 -0.1381 -0.1309
28805SOL    HW188953   6.695   0.807   5.732  0.7434 -0.0951  2.2039
28805SOL    HW288954   6.574   0.717   5.722  1.3332 -0.6837  0.1622
28806SOL     OW88955  10.006   0.167   4.650 -0.1169 -0.1585 -0.5500
28806SOL    HW188956   9.927   0.177   4.702  0.9182  0.9088  0.8665
28806SOL    HW288957   9.999   0.234   4.582 -0.0473  0.4714  0.0643
28807SOL     OW88958   9.617   1.473   6.254  0.6262  0.2176 -0.0251
28807SOL    HW188959   9.583   1.507   6.336 -1.2318 -2.1226  0.2373
28807SOL    HW288960   9.712   1.469   6.266  0.5506  1.8978  1.1904
28808SOL     OW88961   3.310   2.880   3.615 -0.1684 -0.4029 -0.4799
28808SOL    HW188962   3.362   2.816   3.664  0.5159  0.6834  0.2393
28808SOL    HW288963   3.300   2.954   3.676  0.8202  1.0333 -2.0117
28809SOL     OW88964   7.708   6.100   1.114  0.0599 -0.4641 -0.0713
28809SOL    HW188965   7.705   6.195   1.124  0.8464 -0.3120 -1.2738
28809SOL    HW288966   7.629   6.078   1.065 -0.3822 -0.5006  0.6402
28810SOL     OW88967   6.313   1.676   2.936 -0.4594 -0.0044 -0.2945
28810SOL    HW188968   6.392   1.717   2.901  0.4232 -1.8224 -0.5131
28810SOL    HW288969   6.320   1.584   2.909 -1.7678 -0.5716  1.2045
28811SOL     OW88970   1.398   6.256   8.782 -0.3651 -0.0694 -0.2201
28811SOL    HW188971   1.400   6.322   8.852 -0.0652 -1.3581  0.9966
28811SOL    HW288972   1.325   6.284   8.726 -0.8701  0.7430  0.8191
28812SOL     OW88973  10.156   4.672   0.836  0.0161  0.1513 -0.7015
28812SOL    HW188974  10.104   4.744   0.870  0.7896  1.0625 -1.4356
28812SOL    HW288975  10.185   4.701   0.750 -1.3453 -1.8530 -1.8816
28813SOL     OW88976   3.060   0.108   3.571 -0.2020  0.0903  0.0938
28813SOL    HW188977   2.975   0.151   3.582 -0.3119 -0.2533  0.6412
28813SOL    HW288978   3.080   0.117   3.478 -1.3780 -0.8041 -0.2574
28814SOL     OW88979  10.168   3.377   4.139  0.1432  0.2579 -0.1180
28814SOL    HW188980  10.173   3.443   4.209  0.0361 -0.3792  0.4911
28814SOL    HW288981  10.211   3.419   4.064  2.3497  0.0846  0.9899
28815SOL     OW88982   6.565   9.114   7.200 -0.2127  0.4619 -0.1266
28815SOL    HW188983   6.657   9.088   7.204 -0.3626  0.1268  1.5931
28815SOL    HW288984   6.568   9.210   7.191  0.3018  0.4489 -0.1073
28816SOL     OW88985   7.212   9.397   9.949  0.5067 -0.5642 -0.0835
28816SOL    HW188986   7.307   9.390   9.943  0.7197  1.2163  1.1717
28816SOL    HW288987   7.192   9.389  10.042 -0.2219  3.0040  0.1306
28817SOL     OW88988   0.840   4.842   0.505 -0.3260 -0.0201  0.2035
28817SOL    HW188989   0.812   4.934   0.509 -0.8671 -0.2071  0.6886
28817SOL    HW288990   0.794   4.800   0.577  1.7349 -0.1923  1.4721
28818SOL     OW88991   3.293   0.405   8.298 -0.1866 -0.0222 -0.3313
28818SOL    HW188992   3.326   0.351   8.227  1.9806  0.1768  0.4757
28818SOL    HW288993   3.228   0.351   8.342  0.3002 -1.0977 -0.9223
28819SOL     OW88994   9.121   2.495   1.104 -0.9788 -0.0413 -0.0754
28819SOL    HW188995   9.194   2.457   1.055 -0.8997 -0.3265  0.2611
28819SOL    HW288996   9.072   2.419   1.137 -0.2698  0.1408  1.4237
28820SOL     OW88997   4.576   0.445   0.801 -0.3847 -0.2031 -0.1756
28820SOL    HW188998   4.526   0.365   0.783 -0.8034  0.0206  0.0146
28820SOL    HW288999   4.514   0.504   0.843  0.6716 -0.8499  2.3773
28821SOL     OW89000   3.631   7.314   0.913  0.6119  0.1431  0.7430
28821SOL    HW189001   3.600   7.237   0.961  1.7903 -1.0385 -0.3889
28821SOL    HW289002   3.647   7.379   0.981 -1.4683 -0.2098  1.6197
28822SOL     OW89003   0.090   4.445   3.052 -0.4780  0.0542 -0.2964
28822SOL    HW189004   0.011   4.391   3.047 -0.5459  0.0989  0.2800
28822SOL    HW289005   0.155   4.389   3.093 -0.8954  0.8045  1.4194
28823SOL     OW89006   3.149   5.668   1.268 -0.9211 -0.1334 -0.1763
28823SOL    HW189007   3.153   5.602   1.199 -1.9420 -1.1911  0.7563
28823SOL    HW289008   3.215   5.732   1.243  1.6886 -2.6237  0.0483
28824SOL     OW89009   8.090   6.071   6.873 -0.1823 -0.8409  0.1555
28824SOL    HW189010   8.076   6.014   6.797  0.9807  0.1741 -0.8409
28824SOL    HW289011   8.164   6.127   6.848 -3.0027  2.9866  0.0257
28825SOL     OW89012   0.178   0.270   8.663 -0.0409  0.0840  0.1318
28825SOL    HW189013   0.163   0.285   8.756 -2.5851 -1.9577  0.0897
28825SOL    HW289014   0.150   0.351   8.621  3.0164  1.8171  1.2221
28826SOL     OW89015   1.414   3.998   8.352  0.5065 -0.5040  0.4530
28826SOL    HW189016   1.319   3.988   8.346  0.6135 -1.5207  0.3512
28826SOL    HW289017   1.427   4.088   8.380 -0.5245 -0.6368  1.4130
28827SOL     OW89018   2.922   7.336   1.032 -0.4681 -0.0642  0.6907
28827SOL    HW189019   2.943   7.332   0.939 -1.7051  0.7089  0.3668
28827SOL    HW289020   2.889   7.249   1.054 -1.1813  0.0662  0.1513
28828SOL     OW89021   1.654   7.057   9.408 -0.1339  0.0755 -0.1005
28828SOL    HW189022   1.652   7.150   9.387 -2.2346  0.6528  2.2981
28828SOL    HW289023   1.574   7.021   9.369 -0.2308 -0.3381  0.4554
28829SOL     OW89024   3.083   7.333   6.716 -0.0189 -0.1070  0.4449
28829SOL    HW189025   3.074   7.315   6.810  2.4220  2.0525  1.1363
28829SOL    HW289026   3.127   7.255   6.681 -0.4158 -0.6687  1.1743
28830SOL     OW89027   6.147   7.793   9.208  0.0691  0.5446 -0.5084
28830SOL    HW189028   6.178   7.731   9.142  1.6248  2.3719 -1.5749
28830SOL    HW289029   6.147   7.878   9.163 -0.1601  1.6191  1.4502
28831SOL     OW89030   0.601   5.792   3.437 -0.6663 -0.3982  0.2281
28831SOL    HW189031   0.652   5.725   3.391 -0.7518  0.9578 -1.9368
28831SOL    HW289032   0.647   5.805   3.519  1.4585 -0.5004 -0.9152
28832SOL     OW89033   1.984   4.756   0.892  0.4070  0.2813  0.1121
28832SOL    HW189034   2.074   4.726   0.902  0.6301  1.1183  0.7041
28832SOL    HW289035   1.934   4.677   0.876  1.1576 -0.2590  0.4025
28833SOL     OW89036   4.961   7.772   7.249  0.4396  0.0901  0.0892
28833SOL    HW189037   4.941   7.836   7.317  1.6267 -1.1247  1.6338
28833SOL    HW289038   4.943   7.817   7.167 -1.2142  1.5268  1.2169
28834SOL     OW89039   1.997   7.721   1.373  0.0711  0.0044 -0.6181
28834SOL    HW189040   1.941   7.796   1.353  2.3235  1.6625 -0.9208
28834SOL    HW289041   2.003   7.719   1.469 -0.8661 -0.4822 -0.5619
28835SOL     OW89042   2.832   5.543   0.887  0.6273  0.3763 -0.5108
28835SOL    HW189043   2.807   5.568   0.798 -0.4722 -1.1657 -0.6729
28835SOL    HW289044   2.925   5.520   0.881  0.7085  0.8702 -1.1341
28836SOL     OW89045   9.785   3.900   6.488  0.1016 -0.5951 -0.4314
28836SOL    HW189046   9.757   3.828   6.432 -0.7069 -0.3989 -0.2844
28836SOL    HW289047   9.765   3.870   6.577  0.8087 -0.6510 -0.2854
28837SOL     OW89048   7.147   9.671   8.992  0.5519 -0.2623  0.6286
28837SOL    HW189049   7.184   9.691   8.905 -0.7308 -1.0726 -0.1225
28837SOL    HW289050   7.072   9.614   8.973  0.1719 -0.3181  2.2735
28838SOL     OW89051   1.339   6.599   0.528 -1.0910  0.4484  0.5178
28838SOL    HW189052   1.293   6.515   0.526  2.3298 -1.4942  0.4247
28838SOL    HW289053   1.399   6.596   0.454  1.9191  1.2647  2.8337
28839SOL     OW89054   9.888   2.118   3.975 -0.5207  0.1877 -0.0301
28839SOL    HW189055   9.876   2.065   3.897 -1.9473  1.7957 -0.9487
28839SOL    HW289056   9.922   2.202   3.943 -3.2005  1.6413  0.7717
28840SOL     OW89057   6.481   4.780   7.881 -0.0553 -0.3033  0.9357
28840SOL    HW189058   6.425   4.728   7.824  0.4772 -1.2518  1.2725
28840SOL    HW289059   6.566   4.781   7.837  0.0404 -0.0510  1.1222
28841SOL     OW89060   6.282   6.220   3.315 -0.1765 -0.5094 -0.0577
28841SOL    HW189061   6.264   6.314   3.315  2.1808 -0.0376 -0.0412
28841SOL    HW289062   6.196   6.180   3.323 -1.1201  1.6562  1.1528
28842SOL     OW89063   3.344   6.332   0.012  0.0135 -0.2627 -0.0868
28842SOL    HW189064   3.346   6.409   0.068 -0.3691 -0.0953 -0.2992
28842SOL    HW289065   3.421   6.281   0.038 -1.0838 -1.0187  1.7478
28843SOL     OW89066   6.406   3.784   3.000  0.0407  0.3110 -0.2995
28843SOL    HW189067   6.391   3.743   3.086 -1.6580  0.2934 -0.5898
28843SOL    HW289068   6.440   3.871   3.021 -0.7144  0.4480  0.4026
28844SOL     OW89069   9.094   2.971   9.391  0.2710  0.2720  0.1036
28844SOL    HW189070   9.080   2.903   9.457 -0.7906  0.3075 -0.0686
28844SOL    HW289071   9.017   3.028   9.399 -0.9467 -0.8689 -2.5339
28845SOL     OW89072  10.118   1.400   4.732 -0.5876  0.5190  1.0935
28845SOL    HW189073  10.167   1.392   4.650 -1.8443  3.3269  0.0087
28845SOL    HW289074  10.106   1.309   4.762  1.4555 -0.4459 -0.8658
28846SOL     OW89075   4.305   3.551   5.281 -0.1926  0.4886 -0.3522
28846SOL    HW189076   4.299   3.504   5.364  1.5114 -0.7755 -0.9161
28846SOL    HW289077   4.314   3.643   5.306 -0.2652  0.1810  0.8403
28847SOL     OW89078   1.975   7.610   8.936  0.2185 -0.0745  0.5100
28847SOL    HW189079   1.967   7.681   8.873 -0.4267  2.0178  2.8417
28847SOL    HW289080   1.992   7.532   8.884 -3.1021  1.0575 -2.4634
28848SOL     OW89081   5.683   2.029   4.049 -0.1714 -0.3833  0.2275
28848SOL    HW189082   5.651   2.057   4.135  0.3010 -0.2023  0.3474
28848SOL    HW289083   5.605   2.001   4.002 -0.6199  0.8692  0.2118
28849SOL     OW89084   7.400   7.654   2.192  0.8231 -0.5226 -0.2342
28849SOL    HW189085   7.466   7.650   2.123  1.4310  0.9172  0.2325
28849SOL    HW289086   7.319   7.628   2.149  1.8971 -3.6793 -0.4844
28850SOL     OW89087   7.317   4.396   3.572  0.6868  0.2855 -0.6066
28850SOL    HW189088   7.298   4.314   3.526 -0.1485  0.1606 -0.0471
28850SOL    HW289089   7.361   4.369   3.652  0.5235  0.3847 -0.4822
28851SOL     OW89090   7.861   9.690  10.107  0.3036 -0.1360  0.1219
28851SOL    HW189091   7.814   9.724  10.182  1.9497  1.5463  0.4300
28851SOL    HW289092   7.833   9.745  10.033 -0.1944 -0.8296 -0.2116
28852SOL     OW89093   4.652   0.540   4.844  0.0884 -0.4428  0.3018
28852SOL    HW189094   4.722   0.533   4.778 -0.8544  0.0461 -0.7660
28852SOL    HW289095   4.600   0.460   4.832  0.6238 -0.9534  1.2993
28853SOL     OW89096   4.034   0.731   2.114 -0.3282  0.1853  0.1380
28853SOL    HW189097   4.059   0.767   2.199 -0.0591 -1.7944  0.9128
28853SOL    HW289098   3.938   0.733   2.114 -0.3182  1.5029 -0.1136
28854SOL     OW89099   4.409   6.740   9.508 -0.0084 -0.1908 -0.5551
28854SOL    HW189100   4.424   6.804   9.438  2.2257  0.6746  0.6707
28854SOL    HW289101   4.482   6.679   9.501 -0.0168 -0.3532  0.7518
28855SOL     OW89102   7.945   9.620   0.315  0.7502 -0.0385  0.7735
28855SOL    HW189103   7.864   9.669   0.301  1.2518  1.3324  2.5893
28855SOL    HW289104   7.915   9.537   0.353  0.0181 -0.6316 -1.0106
28856SOL     OW89105   5.054   8.023   4.125  0.3104 -0.2887 -0.5056
28856SOL    HW189106   5.098   7.973   4.056  0.1081 -0.4647 -0.5056
28856SOL    HW289107   5.114   8.017   4.200  0.9697  0.6749 -0.9427
28857SOL     OW89108   7.246   7.492   8.351  0.4590  0.4655 -0.1263
28857SOL    HW189109   7.159   7.480   8.389  1.5041 -0.4518  2.0773
28857SOL    HW289110   7.245   7.440   8.271 -1.1489  0.7957 -0.3374
28858SOL     OW89111   1.388   3.788   5.977  0.0805 -0.1852 -0.0404
28858SOL    HW189112   1.426   3.700   5.974 -0.1043 -0.2391 -0.7587
28858SOL    HW289113   1.397   3.822   5.888 -0.0997  0.4213  0.1667
28859SOL     OW89114   7.471   3.368   1.581 -0.5638 -0.0691 -1.0596
28859SOL    HW189115   7.489   3.274   1.591 -1.0470 -0.1036 -0.5539
28859SOL    HW289116   7.558   3.407   1.569 -0.2923 -0.4700 -0.4181
28860SOL     OW89117   1.426   5.283   3.356  0.6997 -0.4250  0.0269
28860SOL    HW189118   1.363   5.243   3.296  0.6383 -1.0119  0.4845
28860SOL    HW289119   1.485   5.331   3.299 -1.6563  2.2886 -0.2676
28861SOL     OW89120   2.034   5.380   2.649  0.5273 -0.5888  0.1537
28861SOL    HW189121   1.962   5.370   2.711  0.9040  0.2246  0.7353
28861SOL    HW289122   2.002   5.341   2.567 -0.2790 -0.9112  0.6253
28862SOL     OW89123   7.209   5.838   0.746 -0.4974 -0.3224  0.3030
28862SOL    HW189124   7.126   5.791   0.741 -0.5214 -0.1393 -1.1133
28862SOL    HW289125   7.259   5.791   0.813 -0.8596 -1.8373 -0.4579
28863SOL     OW89126   9.471   7.496   6.814  0.7464 -0.2290 -0.1398
28863SOL    HW189127   9.408   7.566   6.800  0.2608 -0.5525  0.3818
28863SOL    HW289128   9.551   7.540   6.841  0.5825  0.1525 -0.2737
28864SOL     OW89129   1.922   6.295   1.209  0.2398 -0.1581 -0.3553
28864SOL    HW189130   1.866   6.311   1.134 -0.6558  0.7319  0.4983
28864SOL    HW289131   1.875   6.229   1.261  1.3547 -1.5696 -1.0995
28865SOL     OW89132   8.733   4.415   2.790  0.0360 -0.2840 -0.2890
28865SOL    HW189133   8.638   4.404   2.778  0.0238 -0.3660 -0.1247
28865SOL    HW289134   8.771   4.395   2.705  0.0607 -2.0514  0.1266
28866SOL     OW89135   8.326   5.183   2.431 -0.3928  0.2100 -0.1675
28866SOL    HW189136   8.280   5.200   2.513  0.2079 -1.6218  0.5791
28866SOL    HW289137   8.293   5.249   2.370 -0.5550  1.8293  1.6481
28867SOL     OW89138  10.187   7.572   3.315 -0.2866 -0.0960  0.1962
28867SOL    HW189139  10.228   7.617   3.241 -1.9383  1.5133  0.2040
28867SOL    HW289140  10.116   7.522   3.276  0.0995 -0.8604  0.4688
28868SOL     OW89141   1.173   8.924   8.970  0.1712  0.5624 -0.3068
28868SOL    HW189142   1.110   8.875   9.024  0.7343  1.7210  1.4277
28868SOL    HW289143   1.117   8.977   8.912 -0.4357  0.2424 -0.0258
28869SOL     OW89144   6.942   9.516   0.793 -0.1370 -0.1930 -0.2355
28869SOL    HW189145   7.004   9.447   0.772  1.2966  1.1938 -0.6926
28869SOL    HW289146   6.997   9.592   0.814 -1.6509  0.5623  1.1450
28870SOL     OW89147   2.536   5.552   5.810 -0.3878  0.3600 -0.0462
28870SOL    HW189148   2.482   5.539   5.732 -2.0833  0.2788  1.0989
28870SOL    HW289149   2.520   5.474   5.863  1.7682 -0.1966 -0.1765
28871SOL     OW89150   6.116   8.693   5.847  0.2242  0.1003 -0.3864
28871SOL    HW189151   6.117   8.654   5.935 -1.3888  2.1851  0.6177
28871SOL    HW289152   6.098   8.786   5.863 -1.7519  0.2181 -3.0246
28872SOL     OW89153   7.477   3.816   4.521  0.3570 -0.5180 -0.3211
28872SOL    HW189154   7.555   3.849   4.565 -0.2138 -1.4588  1.4751
28872SOL    HW289155   7.416   3.889   4.524  0.4115 -0.4878  0.2778
28873SOL     OW89156   3.979   8.084   5.544 -0.0578 -0.0190 -0.3563
28873SOL    HW189157   4.013   7.996   5.527  1.0519  0.4414 -0.5482
28873SOL    HW289158   4.000   8.099   5.636  0.7661  0.4838 -0.6223
28874SOL     OW89159   9.536   4.292   3.132  0.1258  0.0955  0.0513
28874SOL    HW189160   9.516   4.205   3.168  2.0603  0.8313  3.1134
28874SOL    HW289161   9.632   4.297   3.136 -0.0158  2.6987  0.7488
28875SOL     OW89162   7.018   6.814   8.134  0.0342  0.5715 -0.0498
28875SOL    HW189163   6.988   6.732   8.096 -0.0662  0.1105  1.0336
28875SOL    HW289164   7.108   6.823   8.102 -0.1044  0.2750 -0.5356
28876SOL     OW89165   1.428   6.701   2.937 -0.0739 -1.1043  0.6466
28876SOL    HW189166   1.489   6.741   2.999 -0.1652  1.0232 -0.5668
28876SOL    HW289167   1.479   6.632   2.895  1.4305  0.4194 -0.1191
28877SOL     OW89168   7.648   1.554   9.937 -0.1907  0.7335  0.2349
28877SOL    HW189169   7.582   1.554   9.867  2.8159 -0.9603 -2.7240
28877SOL    HW289170   7.682   1.465   9.937  1.0535  1.1844  2.7522
28878SOL     OW89171   1.449   0.797   5.395  0.0418 -0.1402  0.1986
28878SOL    HW189172   1.380   0.732   5.405 -0.0848 -0.4033 -2.1258
28878SOL    HW289173   1.408   0.880   5.420 -0.4131 -0.6204  1.0767
28879SOL     OW89174   1.806   4.963   1.362 -0.1889 -0.2816  0.3780
28879SOL    HW189175   1.864   4.912   1.419  1.6258  1.9202  0.5888
28879SOL    HW289176   1.862   4.989   1.289 -1.5138  0.0361 -0.5392
28880SOL     OW89177   9.214   6.560   5.840  0.0240  0.0983 -0.3016
28880SOL    HW189178   9.263   6.509   5.776  0.5826  0.6365 -0.3090
28880SOL    HW289179   9.281   6.601   5.895 -0.4323  0.2601  0.1439
28881SOL     OW89180   7.246   0.603   6.232 -0.4408 -0.2023 -0.4466
28881SOL    HW189181   7.233   0.512   6.256 -0.3083  0.2196  1.2754
28881SOL    HW289182   7.199   0.653   6.298 -0.0390  0.9915 -1.0406
28882SOL     OW89183   7.325   0.022   0.151 -0.4000  0.0974 -0.7381
28882SOL    HW189184   7.317  -0.065   0.112  0.8984  0.2595 -1.3911
28882SOL    HW289185   7.255   0.026   0.216 -0.7208 -1.2788 -0.9923
28883SOL     OW89186   0.676   7.700   6.767 -0.2821  0.7063  0.0118
28883SOL    HW189187   0.593   7.671   6.804  0.6710 -1.1935  0.7368
28883SOL    HW289188   0.692   7.785   6.806  0.1412 -0.7665  3.1893
28884SOL     OW89189   9.042   9.742   6.487 -0.4606  0.4071  0.5243
28884SOL    HW189190   9.008   9.817   6.437 -2.7122  1.5536  3.6334
28884SOL    HW289191   9.039   9.669   6.425  0.8877  2.6078 -2.3077
28885SOL     OW89192   8.596   7.576   5.702 -0.1792  0.8407  0.0479
28885SOL    HW189193   8.514   7.623   5.717  0.1873  2.0559 -1.5328
28885SOL    HW289194   8.627   7.552   5.790 -2.6657 -0.4608  0.6092
28886SOL     OW89195   9.311   5.005   4.950 -0.3012 -0.0268  0.5832
28886SOL    HW189196   9.296   4.923   4.996 -0.2849 -0.4263 -0.1202
28886SOL    HW289197   9.384   4.986   4.891  0.4032  0.7897  1.1816
28887SOL     OW89198   6.715   3.202   9.625  0.6270 -0.1065  0.0287
28887SOL    HW189199   6.670   3.220   9.543 -0.2941  1.6697  0.9001
28887SOL    HW289200   6.773   3.129   9.605 -2.2335 -2.1419 -1.2917
28888SOL     OW89201   8.706   7.899   1.023 -0.2726 -0.2639  0.0176
28888SOL    HW189202   8.753   7.823   0.991  1.3687  1.5642 -2.1081
28888SOL    HW289203   8.760   7.974   0.996 -1.4139  1.6171  2.7576
28889SOL     OW89204   6.926   4.589   1.264 -0.0413  0.3073  0.1537
28889SOL    HW189205   6.849   4.643   1.249 -1.3872 -1.4435  0.5567
28889SOL    HW289206   6.980   4.602   1.187 -1.5325  0.2617 -0.9279
28890SOL     OW89207   3.538   3.415   2.908  0.0161  0.4256  0.6532
28890SOL    HW189208   3.592   3.493   2.905 -0.1954  0.5585  0.2467
28890SOL    HW289209   3.600   3.343   2.923  0.0413  0.8288  2.5771
28891SOL     OW89210   4.599   0.263   5.355 -0.0284  0.3822  0.0080
28891SOL    HW189211   4.631   0.189   5.407 -1.4719 -2.0641 -2.4530
28891SOL    HW289212   4.515   0.285   5.393 -0.1005  0.0193  0.0595
28892SOL     OW89213   4.909   6.222   2.322  0.0679  0.5269  0.9013
28892SOL    HW189214   4.997   6.254   2.304 -0.2799  1.6267  1.1446
28892SOL    HW289215   4.855   6.258   2.251 -0.0495 -0.7926  0.3057
28893SOL     OW89216   0.363   5.018   7.565  0.6177  0.6432  0.2272
28893SOL    HW189217   0.416   4.938   7.561  1.7446  1.3273  0.9556
28893SOL    HW289218   0.366   5.053   7.476 -2.5624 -1.7761 -0.9183
28894SOL     OW89219   0.908   8.903   7.708  0.5334 -0.5937  0.0759
28894SOL    HW189220   0.950   8.970   7.653 -1.4828  1.3935  0.8926
28894SOL    HW289221   0.915   8.938   7.797 -1.7027 -0.8206  0.3615
28895SOL     OW89222   3.398   2.414   5.765  0.3435 -0.4779  0.4013
28895SOL    HW189223   3.315   2.455   5.743  0.1247 -1.4236 -0.5755
28895SOL    HW289224   3.464   2.471   5.727  0.0418 -1.0474 -0.9856
28896SOL     OW89225   0.836   2.435   8.782 -0.4056 -0.1062  0.6214
28896SOL    HW189226   0.866   2.348   8.755 -2.2050 -0.5425 -0.0402
28896SOL    HW289227   0.856   2.492   8.708  0.4277 -0.0274  0.9044
28897SOL     OW89228   9.037   4.836   4.022 -0.0680 -0.2842  0.2749
28897SOL    HW189229   9.019   4.923   4.060 -1.1815 -0.6348  0.5748
28897SOL    HW289230   9.128   4.841   3.994 -0.2888  1.1881 -0.2468
28898SOL     OW89231   3.219   7.412   1.420 -0.2361  0.2307 -0.2340
28898SOL    HW189232   3.218   7.460   1.503  0.6986  2.0647 -1.2397
28898SOL    HW289233   3.303   7.365   1.421 -1.3495 -1.7640  0.9462
28899SOL     OW89234   1.000   4.592   2.039 -0.1262  0.5814  0.0565
28899SOL    HW189235   0.934   4.629   1.981  0.1204  1.5185  0.3729
28899SOL    HW289236   1.023   4.509   1.998 -0.9916  0.5660 -0.4256
28900SOL     OW89237   2.514   3.480   4.391 -0.6111 -1.0791 -0.2173
28900SOL    HW189238   2.583   3.418   4.367  1.4526  0.9377  0.4121
28900SOL    HW289239   2.556   3.566   4.390 -3.0185  0.1659  0.5493
28901SOL     OW89240   8.669   1.653   2.374 -0.2690 -0.1178  0.1468
28901SOL    HW189241   8.586   1.679   2.335 -1.5304 -0.5196  2.5198
28901SOL    HW289242   8.680   1.712   2.449  1.2575 -0.5187  0.2635
28902SOL     OW89243   0.101   8.423   8.229 -0.3287  0.4288 -0.3243
28902SOL    HW189244   0.036   8.389   8.167  0.9407 -0.6706 -1.0799
28902SOL    HW289245   0.051   8.443   8.308 -2.0042  2.0421 -1.7552
28903SOL     OW89246   5.144   3.278   5.579  0.3957 -0.4547 -0.3514
28903SOL    HW189247   5.085   3.204   5.596 -1.1776  1.1685  1.3998
28903SOL    HW289248   5.128   3.339   5.651  2.3656  1.1925 -1.2586
28904SOL     OW89249   2.191   3.547   5.621 -0.5939 -0.1770  0.6002
28904SOL    HW189250   2.176   3.607   5.548 -0.4821 -0.4911  0.3149
28904SOL    HW289251   2.257   3.590   5.675  1.4563 -1.2118 -0.9833
28905SOL     OW89252   1.534   0.547   5.244 -0.2978 -0.2506 -0.1031
28905SOL    HW189253   1.450   0.501   5.252  0.0823 -0.7701  0.8480
28905SOL    HW289254   1.509   0.634   5.213 -1.1103 -0.7174 -0.8150
28906SOL     OW89255   0.720   6.092   7.318 -0.4941  0.2371 -0.8673
28906SOL    HW189256   0.814   6.074   7.320 -1.0588 -2.9126  1.3605
28906SOL    HW289257   0.693   6.086   7.410 -2.4960  3.4247 -1.1987
28907SOL     OW89258   7.563   1.522   8.387  0.6776 -0.0384 -0.1459
28907SOL    HW189259   7.627   1.575   8.435  1.2288  0.0961 -1.0050
28907SOL    HW289260   7.562   1.438   8.433  0.4236  0.4449  0.7222
28908SOL     OW89261   8.177  10.145   4.608  0.0899 -0.2813  0.2031
28908SOL    HW189262   8.229  10.212   4.651 -0.0772 -0.8530  1.3349
28908SOL    HW289263   8.117  10.114   4.677 -0.3494 -1.0412 -0.5146
28909SOL     OW89264   0.597   4.917   2.461 -0.0316  0.0048  0.3290
28909SOL    HW189265   0.645   4.865   2.397 -2.1067 -1.2281 -0.2652
28909SOL    HW289266   0.519   4.866   2.480 -2.7481  3.3713 -1.1472
28910SOL     OW89267   0.723   6.274   1.233 -0.2904  0.0876 -0.0096
28910SOL    HW189268   0.734   6.280   1.328  1.3479 -2.1507 -0.0159
28910SOL    HW289269   0.752   6.359   1.200 -1.2745  1.0416  1.5151
28911SOL     OW89270   3.987   3.669   6.398 -0.8202  0.4155 -0.1089
28911SOL    HW189271   4.014   3.589   6.443 -0.8200  1.0180  0.9788
28911SOL    HW289272   3.972   3.732   6.468 -1.4925  1.1718 -0.9189
28912SOL     OW89273   1.320   7.456   6.089  0.1074  0.1128  0.2025
28912SOL    HW189274   1.361   7.531   6.046 -0.4436  0.5504  0.4304
28912SOL    HW289275   1.327   7.385   6.026 -0.5641  0.7092 -0.5556
28913SOL     OW89276   7.433   2.469   6.008  0.2100 -0.6229  0.1642
28913SOL    HW189277   7.460   2.382   5.978  1.2425 -0.3782  0.3735
28913SOL    HW289278   7.338   2.463   6.013  0.1567 -1.3094 -1.1926
28914SOL     OW89279   6.200   5.630   7.893 -0.1224 -0.1105 -0.0267
28914SOL    HW189280   6.264   5.648   7.962 -0.2126 -0.7167  0.2221
28914SOL    HW289281   6.123   5.681   7.917  0.7096  1.7026 -1.0418
28915SOL     OW89282   9.351   1.721   4.085  0.7117  0.0754  0.0402
28915SOL    HW189283   9.395   1.662   4.146 -0.7911  0.0159  1.0823
28915SOL    HW289284   9.402   1.713   4.004  0.3217 -2.9332  0.0399
28916SOL     OW89285   5.707   9.706   0.695 -0.4579 -0.3115  0.0019
28916SOL    HW189286   5.688   9.762   0.771  0.8799 -0.1308  0.2078
28916SOL    HW289287   5.632   9.647   0.690 -0.5665 -0.3204  1.4727
28917SOL     OW89288   9.612   8.851   1.049  0.0378 -0.1271  0.2527
28917SOL    HW189289   9.627   8.827   1.141 -0.2895 -2.4439 -0.2746
28917SOL    HW289290   9.697   8.883   1.018  0.9061 -2.0799  0.5623
28918SOL     OW89291   9.032   6.169   0.954 -0.5838  0.4938  0.2542
28918SOL    HW189292   9.056   6.196   1.042 -1.5514  1.8319  0.1182
28918SOL    HW289293   8.976   6.092   0.967  1.2835 -0.8333  0.6828
28919SOL     OW89294   1.217   2.253   2.748 -0.2573 -0.7205  0.0183
28919SOL    HW189295   1.265   2.172   2.728 -0.0601 -1.1331  2.0456
28919SOL    HW289296   1.135   2.223   2.788  0.3372  0.0876  1.8733
28920SOL     OW89297   4.202   5.388   2.514 -0.0573 -0.7530  0.0482
28920SOL    HW189298   4.279   5.389   2.571 -0.0111 -2.1743  0.0274
28920SOL    HW289299   4.129   5.371   2.573 -0.4175  0.9447  0.1191
28921SOL     OW89300   7.647  10.075   6.716  0.1221 -0.2546  0.4251
28921SOL    HW189301   7.645  10.143   6.648 -1.8536 -1.8461 -1.1665
28921SOL    HW289302   7.596  10.113   6.788  0.1347  0.4878  0.0542
28922SOL     OW89303   0.120   6.836   3.024  0.2522  0.1830 -0.7927
28922SOL    HW189304   0.113   6.861   2.932  0.2154 -1.5685 -1.2725
28922SOL    HW289305   0.173   6.757   3.024  0.6146  0.3966  0.7455
28923SOL     OW89306   8.055   4.354   3.599 -0.4998 -0.5128  0.2014
28923SOL    HW189307   8.045   4.447   3.580 -1.2295 -0.8827 -1.3353
28923SOL    HW289308   8.144   4.345   3.633 -0.6973  0.8534  1.1145
28924SOL     OW89309   2.720   5.291   4.591  0.6948  0.1529  0.1594
28924SOL    HW189310   2.718   5.199   4.566  2.6395  0.1963 -0.2893
28924SOL    HW289311   2.757   5.336   4.515 -1.5306  1.5093 -0.1545
28925SOL     OW89312   7.017   8.005   7.762  0.0252 -0.2221 -0.1439
28925SOL    HW189313   6.939   8.057   7.744  0.5104  0.2395 -0.9404
28925SOL    HW289314   6.987   7.939   7.824 -0.3830  1.5788  1.6275
28926SOL     OW89315   8.867   8.800   2.824 -0.4832  0.4747  0.1785
28926SOL    HW189316   8.950   8.841   2.802 -0.4120 -0.0167 -0.4904
28926SOL    HW289317   8.854   8.820   2.917  1.3267 -1.0784  0.7931
28927SOL     OW89318   8.333   9.045   2.298 -0.0184  0.6077 -1.3887
28927SOL    HW189319   8.361   9.080   2.383  0.5792  0.6033 -1.5772
28927SOL    HW289320   8.311   8.953   2.316 -0.5288  0.7826 -1.1099
28928SOL     OW89321   5.790   2.708   6.973 -0.2928 -0.0666  0.2121
28928SOL    HW189322   5.736   2.784   6.950 -1.5350 -0.8984  0.2799
28928SOL    HW289323   5.759   2.639   6.914  1.8749 -0.1278 -0.9149
28929SOL     OW89324   2.876   6.452   6.925 -0.2306 -0.3009 -0.2253
28929SOL    HW189325   2.852   6.465   7.016  1.3404 -0.3994  0.2266
28929SOL    HW289326   2.880   6.357   6.914 -1.2347 -0.3038 -0.6333
28930SOL     OW89327   5.514   1.579   6.223 -0.5940 -0.0319  0.0622
28930SOL    HW189328   5.506   1.675   6.223 -0.0948  0.0191  0.8376
28930SOL    HW289329   5.552   1.558   6.138 -1.8812  0.3497 -0.6216
28931SOL     OW89330   0.140  10.034   9.149  0.1216  0.5154  0.0796
28931SOL    HW189331   0.207   9.968   9.128 -1.4749 -0.5989 -1.6608
28931SOL    HW289332   0.148  10.047   9.243  1.4264 -1.1227  0.2113
28932SOL     OW89333   3.667   5.226   2.972 -0.2780  0.5516  0.2883
28932SOL    HW189334   3.675   5.199   3.064 -0.5497  1.5038  0.6057
28932SOL    HW289335   3.757   5.251   2.947  0.2175 -1.8785 -0.4170
28933SOL     OW89336   5.992   2.285   3.995  0.2749  0.0216  0.1020
28933SOL    HW189337   5.925   2.275   3.928  0.5449 -0.4460 -0.0990
28933SOL    HW289338   6.012   2.196   4.023  1.3146  0.1056 -0.3461
28934SOL     OW89339   9.581   9.086   0.320 -0.1300 -0.6274  0.0325
28934SOL    HW189340   9.590   9.108   0.227 -1.0614 -0.3415  0.0016
28934SOL    HW289341   9.633   9.007   0.332 -0.3187 -0.8845 -0.8216
28935SOL     OW89342   4.803   7.596   5.227  0.0563  0.0026 -0.0312
28935SOL    HW189343   4.709   7.608   5.213 -0.2995 -2.6757 -0.0970
28935SOL    HW289344   4.840   7.685   5.219 -2.5782  1.2450  1.0156
28936SOL     OW89345  10.078   6.713   0.842  1.1098  0.4937  0.2717
28936SOL    HW189346  10.089   6.628   0.798  0.7944  0.4532  0.2677
28936SOL    HW289347  10.039   6.770   0.775  1.8700  0.8108  0.0948
28937SOL     OW89348   0.192   6.967   3.514  0.4384 -0.3786  0.4522
28937SOL    HW189349   0.180   6.934   3.425 -0.7850  1.3120 -0.0299
28937SOL    HW289350   0.269   6.921   3.546  0.4683 -1.5460 -1.2201
28938SOL     OW89351   5.666   5.180   2.216  0.1577  0.1088 -0.0322
28938SOL    HW189352   5.589   5.204   2.268  0.5075  1.8320 -0.2785
28938SOL    HW289353   5.725   5.138   2.279 -0.6706 -0.5849  0.3043
28939SOL     OW89354  10.145   4.138   2.820 -0.1744 -0.4683  0.2577
28939SOL    HW189355  10.199   4.061   2.836 -0.1806 -0.6512 -0.5817
28939SOL    HW289356  10.092   4.115   2.744  1.1929  1.0651 -1.2101
28940SOL     OW89357   3.607   5.826   5.853  0.4305 -0.1425 -0.0533
28940SOL    HW189358   3.555   5.881   5.794 -2.3630 -0.9458  1.6085
28940SOL    HW289359   3.615   5.877   5.933  2.1387 -0.0901 -0.2340
28941SOL     OW89360   4.441   7.784   0.467  0.1007 -0.1958 -0.6892
28941SOL    HW189361   4.401   7.825   0.391 -0.3229 -2.0709 -1.4846
28941SOL    HW289362   4.378   7.719   0.497  0.0924  0.7499  1.5075
28942SOL     OW89363   9.476   1.705   9.417 -0.0598  0.5049 -0.2229
28942SOL    HW189364   9.391   1.683   9.379 -0.8660 -0.3391  1.9933
28942SOL    HW289365   9.477   1.800   9.420 -1.5747  0.5046  1.0828
28943SOL     OW89366   2.023   5.422   9.653  0.7729  0.2505 -0.6110
28943SOL    HW189367   2.019   5.477   9.575  0.2513 -0.0936 -0.8300
28943SOL    HW289368   2.040   5.334   9.619 -2.6627 -0.4870 -0.6090
28944SOL     OW89369   7.128   0.728   0.111 -0.2378 -0.2705  0.3191
28944SOL    HW189370   7.051   0.766   0.069 -0.6003 -0.0770  1.1691
28944SOL    HW289371   7.095   0.656   0.163  0.2503 -0.6855  0.0617
28945SOL     OW89372   0.255   4.091   5.400  0.3866  0.2103 -0.8512
28945SOL    HW189373   0.182   4.065   5.343  2.4990  0.1491 -3.6379
28945SOL    HW289374   0.220   4.161   5.454 -1.6723  0.3459 -2.3066
28946SOL     OW89375   6.581   5.256   3.453 -0.1684 -1.0226 -0.0934
28946SOL    HW189376   6.530   5.268   3.533  0.4562 -1.4038  0.3644
28946SOL    HW289377   6.670   5.243   3.483  0.2832  0.0540 -0.9143
28947SOL     OW89378   1.452   2.495   5.400  0.2744  0.3848 -0.0743
28947SOL    HW189379   1.399   2.574   5.410 -1.0920 -0.6601  1.1841
28947SOL    HW289380   1.455   2.481   5.305 -1.0142  0.9432 -0.2186
28948SOL     OW89381   0.276   6.707   5.282  0.1897 -0.7428 -0.5449
28948SOL    HW189382   0.360   6.723   5.326  0.2189  0.7816 -1.1242
28948SOL    HW289383   0.224   6.659   5.347  0.9694 -0.3448  0.3924
28949SOL     OW89384   2.426   8.651   1.912 -0.6567 -0.1991 -0.2709
28949SOL    HW189385   2.352   8.694   1.868  0.4080  1.4575 -0.4931
28949SOL    HW289386   2.498   8.655   1.849 -0.3342 -1.7103 -0.0147
28950SOL     OW89387   7.858   8.283   5.571 -0.1609  0.0668  0.3840
28950SOL    HW189388   7.921   8.257   5.639  0.7193  2.1812  0.4240
28950SOL    HW289389   7.913   8.307   5.496 -0.9147  1.7996  0.3688
28951SOL     OW89390   4.754   4.158   5.927 -0.0067 -0.0150  0.3128
28951SOL    HW189391   4.743   4.071   5.889 -0.9201  0.3869 -0.3791
28951SOL    HW289392   4.666   4.182   5.956  0.5036  0.0942  1.7859
28952SOL     OW89393   5.295  10.083   1.381  0.1607  0.6458 -0.1219
28952SOL    HW189394   5.385  10.051   1.389 -0.2966 -0.8054 -0.5918
28952SOL    HW289395   5.276  10.078   1.287 -0.9544 -0.6209  0.1526
28953SOL     OW89396   4.731   0.981   8.642 -0.0517 -0.0893 -0.1622
28953SOL    HW189397   4.715   1.043   8.714 -1.1031 -0.0981 -0.3721
28953SOL    HW289398   4.807   1.017   8.596  0.4879  0.0411  0.8085
28954SOL     OW89399   3.903   6.306   1.457  0.1961 -0.2551 -0.6859
28954SOL    HW189400   3.877   6.216   1.435  0.8517 -1.2807  2.4956
28954SOL    HW289401   3.987   6.318   1.413  1.2503 -2.0661  0.7539
28955SOL     OW89402   2.155   2.569   5.407  0.0315 -0.0777 -0.2917
28955SOL    HW189403   2.085   2.611   5.356 -0.7340  0.1044  0.8646
28955SOL    HW289404   2.204   2.643   5.443  1.3903 -0.2083 -1.8344
28956SOL     OW89405   0.144   6.903   7.101  0.2371  0.6166  0.4291
28956SOL    HW189406   0.132   6.923   7.194  1.3533  2.2015  0.2614
28956SOL    HW289407   0.164   6.988   7.061  0.7043 -0.1948 -1.0971
28957SOL     OW89408   7.770   9.752   4.843 -0.1294  0.1652  0.5145
28957SOL    HW189409   7.721   9.829   4.814  1.7407  1.2620  0.1974
28957SOL    HW289410   7.702   9.692   4.875 -1.7429  1.3172 -0.6195
28958SOL     OW89411   2.637   7.335   9.725  0.7684  0.3003 -0.1365
28958SOL    HW189412   2.645   7.326   9.820  2.8286 -1.1782 -0.4038
28958SOL    HW289413   2.555   7.291   9.703  0.9564 -0.5588  0.8257
28959SOL     OW89414   8.076   1.987   0.487 -0.3490 -0.2520 -0.3275
28959SOL    HW189415   7.981   1.998   0.485 -0.5508 -1.6440  0.4735
28959SOL    HW289416   8.111   2.076   0.484 -1.6621  0.2542 -1.0996
28960SOL     OW89417   6.221  10.104   6.697  0.2546 -0.0493  0.4753
28960SOL    HW189418   6.249  10.160   6.624  0.4147 -1.4459 -0.5435
28960SOL    HW289419   6.153  10.048   6.661 -0.1089 -0.3329  1.5700
28961SOL     OW89420   8.929   9.415   8.369 -0.0748 -0.2168  0.3069
28961SOL    HW189421   8.879   9.345   8.327  3.0366 -3.6213  1.9532
28961SOL    HW289422   8.947   9.477   8.298 -2.3034 -1.4024 -1.3836
28962SOL     OW89423   8.871   3.403   5.234 -0.9233  0.5006  0.0141
28962SOL    HW189424   8.922   3.480   5.210 -1.6277  1.0156  0.1751
28962SOL    HW289425   8.853   3.413   5.328 -3.9562  1.8903 -0.6526
28963SOL     OW89426   9.390   6.429   5.662 -0.1825 -0.6227  0.3989
28963SOL    HW189427   9.434   6.415   5.747  0.3199 -1.4843  0.0029
28963SOL    HW289428   9.441   6.377   5.600  0.4332  1.2872 -0.7338
28964SOL     OW89429   1.869   8.422   2.940  0.2226 -0.6300 -0.9630
28964SOL    HW189430   1.815   8.378   3.006  0.7721  0.1138  0.0007
28964SOL    HW289431   1.809   8.485   2.899  0.6858  1.2180  1.1046
28965SOL     OW89432   9.496   0.887   2.103  0.3398 -0.4226 -0.6815
28965SOL    HW189433   9.524   0.978   2.105  0.2024 -0.3950  1.3477
28965SOL    HW289434   9.401   0.891   2.112  0.4810 -0.8082  1.1711
28966SOL     OW89435   9.729   1.125   3.291 -0.6420 -0.4582  0.5057
28966SOL    HW189436   9.793   1.185   3.251 -1.5783 -0.5525 -1.1996
28966SOL    HW289437   9.751   1.039   3.254 -0.4123 -0.8668  1.5770
28967SOL     OW89438   3.925   7.748   0.323  0.3536  0.3028  0.3909
28967SOL    HW189439   3.863   7.674   0.317  1.1232 -0.4595  1.5712
28967SOL    HW289440   3.933   7.780   0.233 -0.6882 -0.4769  0.0077
28968SOL     OW89441   0.794   6.339   7.631 -0.1320 -0.3591  0.5738
28968SOL    HW189442   0.725   6.276   7.651  1.0603 -1.4229  1.3981
28968SOL    HW289443   0.791   6.349   7.536 -0.6329 -1.3176  0.4875
28969SOL     OW89444   4.850   0.644   3.772 -0.0780 -0.4998  0.4973
28969SOL    HW189445   4.880   0.630   3.682  0.0806 -2.3090  0.8149
28969SOL    HW289446   4.812   0.732   3.771 -0.8347 -0.8154 -1.5318
28970SOL     OW89447   8.628   3.354   7.532  0.2768  0.1997 -0.1764
28970SOL    HW189448   8.637   3.404   7.451  0.3746  1.0355  0.3430
28970SOL    HW289449   8.685   3.278   7.520  1.5122  1.1284 -0.2672
28971SOL     OW89450   0.799   8.566   0.593 -0.0649 -0.2277  0.0793
28971SOL    HW189451   0.875   8.603   0.548 -1.0973  2.2493  0.2993
28971SOL    HW289452   0.836   8.519   0.668  1.4386 -1.6901 -1.5382
28972SOL     OW89453   1.275   2.377   8.791 -0.4752  0.2631 -0.0937
28972SOL    HW189454   1.283   2.368   8.696  1.0324  2.5101 -0.2305
28972SOL    HW289455   1.185   2.350   8.810 -0.5069 -1.0982 -2.0270
28973SOL     OW89456   3.841   7.471   0.428 -0.4892 -0.2125  0.1610
28973SOL    HW189457   3.865   7.419   0.505 -2.8463 -1.0148  0.3803
28973SOL    HW289458   3.792   7.410   0.372  0.5970  0.5517 -1.6673
28974SOL     OW89459   0.524   3.570   8.696  0.6417 -0.0152 -0.3612
28974SOL    HW189460   0.548   3.500   8.635  1.1874 -1.2820  1.2854
28974SOL    HW289461   0.606   3.617   8.711  0.3761  0.6901 -1.0784
28975SOL     OW89462   0.472   8.563   9.092 -0.1812 -0.0522  0.5190
28975SOL    HW189463   0.499   8.501   9.025 -0.8809 -1.9358  1.9540
28975SOL    HW289464   0.399   8.611   9.053 -1.5987 -2.1921  0.4809
28976SOL     OW89465   4.684   9.290   9.679  0.3197  0.4509 -0.0531
28976SOL    HW189466   4.691   9.196   9.668  1.6443  0.4230  0.9134
28976SOL    HW289467   4.660   9.323   9.592 -1.8820 -0.9187  0.0056
28977SOL     OW89468   7.773   5.540  10.204  0.2365  0.8189 -0.1367
28977SOL    HW189469   7.859   5.521  10.239 -1.0298 -1.8658  1.6886
28977SOL    HW289470   7.766   5.484  10.126 -0.6907 -0.7915  1.0574
28978SOL     OW89471   1.293   1.161   4.502 -0.6254  0.4641  0.1680
28978SOL    HW189472   1.358   1.090   4.506  0.1533  1.1160 -0.9553
28978SOL    HW289473   1.210   1.116   4.485 -0.1934 -0.2195 -0.1648
28979SOL     OW89474   0.595   3.521   3.428 -0.1884  0.1522 -0.1065
28979SOL    HW189475   0.590   3.610   3.394  0.3257  0.2818  0.1592
28979SOL    HW289476   0.506   3.487   3.420 -0.1073  0.2305 -1.4707
28980SOL     OW89477   2.307   2.579   8.950  0.6766 -0.5893  0.2462
28980SOL    HW189478   2.298   2.564   9.044 -1.8211  1.1228  0.3150
28980SOL    HW289479   2.271   2.499   8.910 -1.3563  0.0434  0.7423
28981SOL     OW89480   9.531   7.337   7.641 -0.4049  0.7057 -0.2334
28981SOL    HW189481   9.511   7.402   7.708 -1.2770 -0.9250  1.1275
28981SOL    HW289482   9.453   7.336   7.585 -1.8558 -1.4804  1.6893
28982SOL     OW89483   7.854   9.193   2.244  0.3015  0.3951 -0.0358
28982SOL    HW189484   7.759   9.193   2.256  0.2125  0.4333 -0.7241
28982SOL    HW289485   7.885   9.125   2.305 -0.3963 -1.3302 -1.5591
28983SOL     OW89486   8.169   7.232   2.102 -1.1593 -0.1355  0.3825
28983SOL    HW189487   8.207   7.298   2.044 -1.3766 -0.4515 -0.1173
28983SOL    HW289488   8.205   7.253   2.188  0.9553 -1.0544 -0.2542
28984SOL     OW89489   9.429   8.076   8.156  0.3513 -0.4128  0.6985
28984SOL    HW189490   9.458   8.157   8.198 -0.0708  0.0667  0.0792
28984SOL    HW289491   9.421   8.099   8.064  1.1475 -1.4200  0.3675
28985SOL     OW89492   4.113   5.639   3.339 -0.0529  0.0595  0.4256
28985SOL    HW189493   4.029   5.640   3.385 -0.4152  1.1367 -0.2525
28985SOL    HW289494   4.120   5.726   3.299  1.6800  0.2184  1.0107
28986SOL     OW89495   7.143   4.053   3.126 -0.0995 -0.4069 -0.5557
28986SOL    HW189496   7.076   4.024   3.187  1.4070 -0.5687  1.0654
28986SOL    HW289497   7.164   3.975   3.075  0.3305 -0.8899  0.3504
28987SOL     OW89498   6.206   2.000   8.802  0.0516  0.0251  0.1660
28987SOL    HW189499   6.208   1.968   8.892 -0.4571 -0.0519  0.1475
28987SOL    HW289500   6.126   2.052   8.796  1.4081  2.2318  0.5082
28988SOL     OW89501   2.515   2.977   9.908 -0.0254  0.7458  0.1849
28988SOL    HW189502   2.428   2.941   9.924 -0.4635  1.2132 -1.1234
28988SOL    HW289503   2.562   2.962   9.990 -0.5081 -1.8782  0.0272
28989SOL     OW89504   8.571   1.587   7.200  0.0334 -0.0979  0.5029
28989SOL    HW189505   8.548   1.637   7.121  0.9084  0.2115  0.4375
28989SOL    HW289506   8.494   1.534   7.218 -0.4055  0.2882 -0.2081
28990SOL     OW89507   9.908   4.960   6.217 -0.3246 -0.1104  0.0880
28990SOL    HW189508   9.895   4.886   6.157  2.0521 -0.1717 -0.3986
28990SOL    HW289509   9.924   4.920   6.302  0.1705 -0.1352 -0.0163
28991SOL     OW89510   2.340   7.251   3.157  0.0648  0.4315  0.9525
28991SOL    HW189511   2.418   7.222   3.205 -0.0615 -0.6813  0.5018
28991SOL    HW289512   2.267   7.218   3.210 -0.1357  2.9396  2.2832
28992SOL     OW89513   0.058   4.536   6.665  0.3672  0.0445  0.4679
28992SOL    HW189514   0.124   4.585   6.617  0.3973  1.1423  1.6239
28992SOL    HW289515   0.068   4.446   6.634  1.8522  0.3444  0.0446
28993SOL     OW89516   2.150   1.254   9.942 -0.5190  0.0457  0.6492
28993SOL    HW189517   2.208   1.286  10.011 -0.6910  0.5800  0.5473
28993SOL    HW289518   2.160   1.318   9.871 -1.7727  0.5230  0.8989
28994SOL     OW89519   8.571   8.178   8.598 -0.4344  0.1746  0.0028
28994SOL    HW189520   8.512   8.245   8.635  0.8262  1.2634  0.0643
28994SOL    HW289521   8.653   8.225   8.582 -0.7946 -0.3821 -3.7351
28995SOL     OW89522   0.142   1.849   4.052 -0.5660 -0.0668 -0.1171
28995SOL    HW189523   0.127   1.805   4.135 -2.3363  2.6243  1.0573
28995SOL    HW289524   0.143   1.779   3.987 -1.6821 -1.9625  1.8777
28996SOL     OW89525   4.575   9.165   9.409 -0.2305 -1.1218 -0.1995
28996SOL    HW189526   4.517   9.239   9.429  0.7758 -0.5701  0.7134
28996SOL    HW289527   4.658   9.206   9.385  0.6701 -1.9758  1.4010
28997SOL     OW89528   7.994   1.749   3.396  0.2611 -0.1324 -0.3397
28997SOL    HW189529   7.958   1.722   3.311  1.1953  1.7076 -1.3541
28997SOL    HW289530   8.073   1.695   3.406  0.8317  0.5216 -1.2410
28998SOL     OW89531   8.143   4.514   8.450 -0.3387  0.7138  0.5853
28998SOL    HW189532   8.186   4.562   8.380 -1.9997 -0.6591 -1.4562
28998SOL    HW289533   8.213   4.491   8.510  1.1626  1.7447 -0.7253
28999SOL     OW89534   4.613   4.423   4.632 -0.1773  0.4947 -0.4910
28999SOL    HW189535   4.578   4.343   4.595  2.5014 -0.6737 -0.6270
28999SOL    HW289536   4.602   4.489   4.563 -0.7157 -0.1988 -1.0717
29000SOL     OW89537   7.304   4.094   5.399 -0.6571  0.1545 -0.1984
29000SOL    HW189538   7.308   4.119   5.306 -1.3827  0.2981 -0.1945
29000SOL    HW289539   7.213   4.070   5.413 -0.3268 -0.8611  0.2301
29001SOL     OW89540   1.727   8.759   9.185  0.3131 -0.3991  0.2689
29001SOL    HW189541   1.745   8.673   9.147 -1.9586 -0.4862 -0.6666
29001SOL    HW289542   1.670   8.741   9.260 -0.7455  0.3346 -0.3526
29002SOL     OW89543   7.321   2.231   1.913 -0.2575  0.7829  0.4669
29002SOL    HW189544   7.321   2.187   1.828 -0.7033  0.3285  0.7005
29002SOL    HW289545   7.343   2.322   1.892  0.0024  0.5936 -0.0921
29003SOL     OW89546   8.307   8.029   9.616  0.2981 -0.4576  0.8854
29003SOL    HW189547   8.312   7.975   9.694 -1.2456 -1.5106  0.2790
29003SOL    HW289548   8.390   8.013   9.571  0.6416 -0.8564  1.6484
29004SOL     OW89549   7.824   7.698   9.911 -0.2837 -0.2722 -0.0809
29004SOL    HW189550   7.885   7.624   9.912  0.4603  0.3502  1.0879
29004SOL    HW289551   7.805   7.714  10.003 -0.5980  0.8684 -0.3449
29005SOL     OW89552   8.136   1.825   2.759  0.3780 -0.2320  0.7534
29005SOL    HW189553   8.184   1.747   2.731  0.2179 -0.2329  0.4870
29005SOL    HW289554   8.070   1.793   2.820  0.1284 -0.3377  0.4257
29006SOL     OW89555   4.386   5.111   2.307 -0.0234  0.2031  0.1479
29006SOL    HW189556   4.436   5.158   2.240  0.2367 -0.8929 -0.4479
29006SOL    HW289557   4.295   5.138   2.293  0.0571  0.1389 -0.5164
29007SOL     OW89558   7.164   7.303   8.013  0.1343  0.1744 -0.1270
29007SOL    HW189559   7.253   7.325   7.986  1.0350  0.6947  3.0627
29007SOL    HW289560   7.109   7.370   7.972  1.5655  1.5669  0.1702
29008SOL     OW89561   7.692  10.149   6.388 -0.4835  0.0353  0.2063
29008SOL    HW189562   7.705  10.055   6.379 -2.1930 -0.2822  0.9028
29008SOL    HW289563   7.715  10.185   6.302 -0.2013 -1.0621 -0.1838
29009SOL     OW89564   6.296   0.491   0.338 -0.0461 -0.1627  0.5605
29009SOL    HW189565   6.290   0.395   0.328 -1.0668 -0.0242 -0.2621
29009SOL    HW289566   6.294   0.505   0.432 -3.0043 -0.7892  0.6459
29010SOL     OW89567   4.072   1.583  10.180  0.4608  0.2571  0.5287
29010SOL    HW189568   3.993   1.549  10.139  0.4981  0.0035  0.6658
29010SOL    HW289569   4.091   1.663  10.132  1.1145 -0.5916 -0.6483
29011SOL     OW89570   9.315   5.668   1.940  0.1082  0.4853  0.1310
29011SOL    HW189571   9.325   5.689   1.848  0.4875  1.4013  0.3750
29011SOL    HW289572   9.364   5.737   1.986 -1.7656  1.2172  1.0940
29012SOL     OW89573   5.008   5.153   1.911 -0.0028 -0.1035 -0.3305
29012SOL    HW189574   4.968   5.214   1.973  0.2255  0.3531 -0.6261
29012SOL    HW289575   4.991   5.067   1.948  1.0952  0.2075  0.9427
29013SOL     OW89576   3.728   8.465   2.790 -0.2589  0.0001 -0.0559
29013SOL    HW189577   3.752   8.408   2.863 -0.5812 -0.5585 -0.3858
29013SOL    HW289578   3.641   8.497   2.812  0.6419  1.8295  1.0166
29014SOL     OW89579   2.450   9.525   6.811 -0.4353 -0.1558  0.5119
29014SOL    HW189580   2.488   9.443   6.841  1.3068 -0.0260 -1.2657
29014SOL    HW289581   2.462   9.585   6.885 -1.5308 -1.4115  1.7409
29015SOL     OW89582   2.827   1.461   7.009  0.0567  0.1459 -0.0347
29015SOL    HW189583   2.748   1.505   6.977  0.3209 -0.2439 -1.2715
29015SOL    HW289584   2.890   1.532   7.020 -0.1531  0.3355 -0.0459
29016SOL     OW89585   2.642   0.451   7.808 -0.4053  0.2383 -0.1718
29016SOL    HW189586   2.701   0.416   7.874  0.1564  0.7624 -0.3953
29016SOL    HW289587   2.699   0.482   7.738 -1.0044 -0.6155 -1.0553
29017SOL     OW89588   3.895   3.911   4.210 -0.2792 -0.1723  0.0706
29017SOL    HW189589   3.837   3.933   4.283  0.4958 -1.0082  0.9553
29017SOL    HW289590   3.983   3.922   4.245  0.1228  1.7725 -1.4767
29018SOL     OW89591   3.217   3.325   8.883  0.0631  0.4648  0.0436
29018SOL    HW189592   3.229   3.237   8.919  0.0284  0.2012 -0.5873
29018SOL    HW289593   3.281   3.331   8.812  0.7755  1.3221  0.7422
29019SOL     OW89594   5.140   9.639   2.224 -0.4476  0.0407  0.5345
29019SOL    HW189595   5.121   9.693   2.301 -1.5340  1.7308 -0.8738
29019SOL    HW289596   5.235   9.643   2.215 -0.3607  0.2354  1.4980
29020SOL     OW89597   3.594   6.206   1.523  0.1772 -0.1883 -0.2594
29020SOL    HW189598   3.588   6.281   1.582 -0.6332 -1.7958  1.7789
29020SOL    HW289599   3.542   6.230   1.447 -1.7155  0.5512  1.2288
29021SOL     OW89600   5.339   1.919   2.678 -0.4551  0.7635 -0.5367
29021SOL    HW189601   5.364   2.005   2.645 -1.3520  1.0233 -0.5498
29021SOL    HW289602   5.272   1.936   2.745 -0.2587  0.1108 -0.1601
29022SOL     OW89603   0.078   7.191   4.905  0.8067 -0.5648  0.0112
29022SOL    HW189604   0.077   7.270   4.960  2.5730 -2.0534  2.2659
29022SOL    HW289605  -0.012   7.158   4.909  0.4426  0.4626  0.3718
29023SOL     OW89606   6.182   2.929   0.195  0.2203  0.1085  0.4601
29023SOL    HW189607   6.140   3.015   0.193  2.0576  1.0443  0.7821
29023SOL    HW289608   6.190   2.904   0.103 -0.1652  0.3614  0.3591
29024SOL     OW89609   9.034   4.420   5.786  0.4210 -0.1202  0.2407
29024SOL    HW189610   8.956   4.457   5.745 -0.0189 -0.6325  0.6163
29024SOL    HW289611   9.049   4.338   5.739  0.1247 -0.5343  0.8688
29025SOL     OW89612   0.542   2.908   0.347 -0.6818 -0.0158 -0.3917
29025SOL    HW189613   0.558   2.953   0.265  0.2821 -2.1930 -1.4488
29025SOL    HW289614   0.457   2.866   0.336 -0.8508  0.2315 -0.0341
29026SOL     OW89615   7.439   6.559   2.084  0.3556 -0.3523  0.4094
29026SOL    HW189616   7.441   6.559   1.988 -2.8551 -1.1294  0.2818
29026SOL    HW289617   7.409   6.472   2.107  0.6808 -0.0242  2.1341
29027SOL     OW89618   4.510   3.964   0.281 -0.4968 -0.0858  0.1439
29027SOL    HW189619   4.560   3.896   0.236  0.5549  1.1822 -0.6349
29027SOL    HW289620   4.575   4.014   0.329 -1.1210  0.9967 -0.1168
29028SOL     OW89621   2.115   1.539   9.841  0.1909 -0.2008 -0.8365
29028SOL    HW189622   2.097   1.616   9.895  0.5036 -0.6251 -0.1142
29028SOL    HW289623   2.196   1.561   9.794  0.1119  0.0372 -0.8587
29029SOL     OW89624   2.331   3.693   4.796  0.0776  0.8045 -0.0751
29029SOL    HW189625   2.291   3.710   4.710 -2.4862 -2.4704  0.3481
29029SOL    HW289626   2.408   3.639   4.775 -2.2963 -2.7020 -0.2418
29030SOL     OW89627   6.975   9.699   6.928  0.2851 -0.1929 -0.2330
29030SOL    HW189628   6.988   9.743   6.844  1.3628 -2.4496 -1.2968
29030SOL    HW289629   7.063   9.684   6.961 -0.1137 -0.0903  0.8952
29031SOL     OW89630   5.825   8.154   3.077 -0.4420  0.4322  0.5309
29031SOL    HW189631   5.881   8.218   3.034  1.5439  0.8715  3.6049
29031SOL    HW289632   5.744   8.202   3.095  0.4408  1.6339  1.3921
29032SOL     OW89633   5.340   1.032   4.669 -0.4282 -0.0635  0.2565
29032SOL    HW189634   5.290   0.968   4.617  0.6521  0.5595 -1.6099
29032SOL    HW289635   5.277   1.100   4.691 -0.7546 -0.0023 -0.8396
29033SOL     OW89636   2.959   5.274   6.259 -0.4206  0.4295  0.0945
29033SOL    HW189637   2.865   5.268   6.271 -0.2530  1.0286  1.7780
29033SOL    HW289638   2.978   5.367   6.252 -0.0540  0.2744 -1.3048
29034SOL     OW89639   2.231   1.895   9.775 -0.0583 -0.3377  0.1218
29034SOL    HW189640   2.253   1.985   9.752 -1.8346  0.6033  1.9510
29034SOL    HW289641   2.292   1.841   9.724 -0.1303  1.8133 -2.3062
29035SOL     OW89642   1.106   5.872   4.539  0.0054  0.1595 -0.0103
29035SOL    HW189643   1.151   5.814   4.601  0.9512  1.2886  0.3834
29035SOL    HW289644   1.171   5.939   4.518 -1.2030  1.3149 -0.1137
29036SOL     OW89645   5.834   9.779   1.892 -0.3146  0.0977 -0.2067
29036SOL    HW189646   5.800   9.693   1.866 -1.2506  0.0524  1.1136
29036SOL    HW289647   5.772   9.841   1.854  0.0911  0.1662 -0.7552
29037SOL     OW89648   5.803   7.722   1.703 -0.3252 -0.2315  0.0080
29037SOL    HW189649   5.860   7.646   1.714 -0.0454 -0.2990 -1.7711
29037SOL    HW289650   5.746   7.699   1.629 -2.6862 -0.1612  1.7520
29038SOL     OW89651   7.443   2.040   5.956  0.7572 -0.4897  0.1583
29038SOL    HW189652   7.384   2.014   5.886  0.9643  0.4746 -0.3796
29038SOL    HW289653   7.488   1.959   5.980  0.7277 -0.8167 -0.8675
29039SOL     OW89654   3.783   0.146   0.299  0.2632 -0.4349  0.0842
29039SOL    HW189655   3.700   0.154   0.253  1.1025 -0.8346 -1.5193
29039SOL    HW289656   3.780   0.060   0.340  0.2665 -0.8295 -0.7415
29040SOL     OW89657   9.754   8.483   3.911 -0.4510  0.0323 -0.4056
29040SOL    HW189658   9.836   8.436   3.928 -0.4873 -0.1771 -0.7966
29040SOL    HW289659   9.781   8.573   3.896 -0.3060 -0.0104 -0.4091
29041SOL     OW89660   8.139   8.394   5.208  0.2014 -0.5062 -0.6689
29041SOL    HW189661   8.197   8.451   5.158 -0.5000  0.0011 -0.9107
29041SOL    HW289662   8.167   8.305   5.186  0.5697 -0.2695 -1.1495
29042SOL     OW89663   7.218   5.701   4.309  0.3564 -0.1084 -0.5063
29042SOL    HW189664   7.159   5.773   4.285  1.0565  0.3977 -0.7507
29042SOL    HW289665   7.263   5.679   4.227 -0.7412 -1.6626 -0.6979
29043SOL     OW89666   4.346   6.727   8.377 -0.6038 -0.3114  0.1896
29043SOL    HW189667   4.320   6.710   8.467 -0.7180  1.1988  0.4566
29043SOL    HW289668   4.441   6.714   8.376 -0.0464  3.0462  1.3918
29044SOL     OW89669   1.418   8.895   9.057 -0.1282 -0.4319  0.0972
29044SOL    HW189670   1.465   8.963   9.009  0.2143 -0.2757  0.6523
29044SOL    HW289671   1.325   8.915   9.043 -0.0308  0.8514  1.2596
29045SOL     OW89672   1.491   6.882   0.454 -0.2609  0.1820 -0.2273
29045SOL    HW189673   1.415   6.928   0.489 -0.3747  1.7185 -2.3921
29045SOL    HW289674   1.539   6.852   0.532 -1.3711  2.0095  1.2037
29046SOL     OW89675   1.511   1.719   4.293 -0.0341  0.9922 -0.3840
29046SOL    HW189676   1.548   1.792   4.243 -1.0951  1.2143 -0.8588
29046SOL    HW289677   1.587   1.674   4.329  0.7933  0.4210 -2.7712
29047SOL     OW89678   4.294   7.303   1.124 -0.4780 -0.4234 -0.2363
29047SOL    HW189679   4.224   7.264   1.071 -0.7889  1.3036 -1.1179
29047SOL    HW289680   4.374   7.285   1.075 -0.3193 -2.0883  0.5960
29048SOL     OW89681   4.429   7.664   2.000  0.2561 -0.3028 -0.1907
29048SOL    HW189682   4.378   7.598   1.953 -0.7970 -0.4329  1.1062
29048SOL    HW289683   4.377   7.744   1.993  1.5798  0.4480 -1.8530
29049SOL     OW89684   1.664   3.845   6.171  0.3297 -0.2899 -0.1852
29049SOL    HW189685   1.678   3.860   6.078  2.0462  0.9962  0.2516
29049SOL    HW289686   1.752   3.850   6.210 -0.3902 -0.4941  1.5370
29050SOL     OW89687   3.792   4.697   5.119 -0.5003  0.3978  0.3758
29050SOL    HW189688   3.815   4.692   5.212 -0.4803  0.1761  0.3601
29050SOL    HW289689   3.718   4.637   5.110  0.4798 -0.7680 -0.0515
29051SOL     OW89690   9.544   8.488   9.774 -0.3734 -0.9217 -0.3305
29051SOL    HW189691   9.527   8.401   9.810 -0.5802 -1.1027 -0.8648
29051SOL    HW289692   9.499   8.488   9.690 -0.3769 -0.2962 -0.3293
29052SOL     OW89693   0.772   7.198   1.628 -0.4575  0.3109 -0.5558
29052SOL    HW189694   0.759   7.162   1.540 -2.7757 -0.3923  0.0404
29052SOL    HW289695   0.704   7.265   1.637  1.1821  1.9578 -0.0989
29053SOL     OW89696   5.055   8.758   6.649 -0.0660 -0.5436  0.0121
29053SOL    HW189697   5.039   8.852   6.635 -0.4916 -0.9883 -2.7952
29053SOL    HW289698   4.969   8.717   6.638  0.5236 -1.4956 -1.1373
29054SOL     OW89699   1.178   2.512   5.115 -0.4512 -0.1100  0.0378
29054SOL    HW189700   1.247   2.446   5.120  1.3370  1.8483  2.5576
29054SOL    HW289701   1.184   2.546   5.026 -0.1331 -1.9973 -0.6853
29055SOL     OW89702   2.982   9.194   4.458 -0.0867  0.3846  0.1103
29055SOL    HW189703   2.929   9.252   4.403 -1.1124  1.0650  1.7831
29055SOL    HW289704   3.045   9.252   4.500 -0.1199  0.0550  0.6193
29056SOL     OW89705   3.543   7.424   8.740  0.1819 -0.0129  0.0680
29056SOL    HW189706   3.600   7.412   8.816  1.0554  0.7357 -0.4559
29056SOL    HW289707   3.455   7.412   8.774  0.5658  0.3238  1.2015
29057SOL     OW89708   1.209   4.903   6.492  0.1078 -0.0042 -0.0554
29057SOL    HW189709   1.135   4.916   6.552  0.4066  0.3063  0.2484
29057SOL    HW289710   1.168   4.888   6.407 -0.2930  0.5653  0.0368
29058SOL     OW89711   2.999   7.310   1.310  0.4713 -0.4152 -0.8373
29058SOL    HW189712   2.989   7.334   1.218  0.6586  0.6223 -0.5925
29058SOL    HW289713   3.077   7.358   1.339 -0.8178  0.9831  0.4197
29059SOL     OW89714   2.232   4.300   5.040  0.1310 -0.0612  0.0428
29059SOL    HW189715   2.218   4.393   5.053 -0.0202 -0.2144  0.9898
29059SOL    HW289716   2.153   4.270   4.995 -0.3411  0.0363  0.8125
29060SOL     OW89717   2.012   7.946   9.696  0.3163 -0.2700  0.2649
29060SOL    HW189718   1.961   8.023   9.670  0.8702  0.3504  0.9872
29060SOL    HW289719   2.045   7.967   9.783  1.8059 -0.6632 -0.1843
29061SOL     OW89720   7.109   0.819   8.945  0.1688 -0.1334  0.3616
29061SOL    HW189721   7.047   0.832   8.873  0.1628  0.1922  0.4225
29061SOL    HW289722   7.076   0.876   9.015  2.0312  2.1251 -0.5284
29062SOL     OW89723   8.891   8.879   5.784 -0.3110  0.0415 -0.0322
29062SOL    HW189724   8.892   8.931   5.703  0.9938 -0.9920 -0.7194
29062SOL    HW289725   8.968   8.908   5.832 -1.6896  1.4227  1.3645
29063SOL     OW89726   7.181   0.669   3.496  0.1835 -0.5414 -0.0348
29063SOL    HW189727   7.207   0.749   3.451  0.4454  0.3606  1.6555
29063SOL    HW289728   7.264   0.626   3.519  0.0754 -0.5802  0.2900
29064SOL     OW89729   6.400   8.282   3.425 -0.0835  0.1713  0.5951
29064SOL    HW189730   6.391   8.372   3.396 -1.1707 -0.1560 -0.0859
29064SOL    HW289731   6.317   8.261   3.467 -0.6610 -1.1997 -1.1576
29065SOL     OW89732   3.664   1.351   9.873  0.2044 -0.3703 -0.2938
29065SOL    HW189733   3.682   1.405   9.950  1.9793 -1.4511  0.0854
29065SOL    HW289734   3.608   1.405   9.819 -0.1624  0.8507  1.2536
29066SOL     OW89735   5.514   9.257   6.365 -0.1372  0.2093  0.7949
29066SOL    HW189736   5.531   9.243   6.458  2.1254 -0.4891  0.2950
29066SOL    HW289737   5.552   9.342   6.345 -1.4029  0.7699  0.6754
29067SOL     OW89738   7.690   6.692   9.749 -0.1298 -0.2302 -0.6898
29067SOL    HW189739   7.748   6.758   9.712  1.1136 -1.1151 -0.3769
29067SOL    HW289740   7.727   6.673   9.835 -0.5858 -1.1766 -0.6875
29068SOL     OW89741   1.789   7.345   9.700 -0.5344  0.0546 -0.0947
29068SOL    HW189742   1.737   7.393   9.765  1.2931 -0.2071  1.6506
29068SOL    HW289743   1.848   7.411   9.664  0.0850 -0.2723  0.2942
29069SOL     OW89744   4.006   6.610   7.174  0.4964 -0.2108  0.1667
29069SOL    HW189745   3.997   6.693   7.127 -0.6090  0.6224  1.8026
29069SOL    HW289746   4.099   6.605   7.196  0.1357  1.9079  2.3556
29070SOL     OW89747   4.226   9.802   2.221  0.6401  0.6794  0.1569
29070SOL    HW189748   4.224   9.766   2.309  1.3562  0.0684 -0.0739
29070SOL    HW289749   4.188   9.733   2.166  1.7619  0.3689 -0.2484
29071SOL     OW89750   8.962   8.862   0.720  0.5818  0.2240 -0.0638
29071SOL    HW189751   8.978   8.952   0.692  1.5248  0.4137  1.0055
29071SOL    HW289752   8.958   8.812   0.639  4.4536  0.5548 -0.5738
29072SOL     OW89753   9.808   9.891   4.762  0.5225 -0.4209 -0.2490
29072SOL    HW189754   9.770   9.978   4.752  1.7586  0.0006 -1.4185
29072SOL    HW289755   9.733   9.831   4.758 -0.0469  0.3976 -2.4624
29073SOL     OW89756   8.972   2.598   2.833  0.0810  0.3264  0.7036
29073SOL    HW189757   8.929   2.590   2.748  0.1299  1.9390  0.5075
29073SOL    HW289758   9.023   2.679   2.827  0.3107  0.3102  2.1675
29074SOL     OW89759   9.084   4.683   9.285  0.4073 -0.3679  0.5737
29074SOL    HW189760   8.997   4.679   9.327 -1.0077 -0.1705 -2.2125
29074SOL    HW289761   9.112   4.773   9.296 -0.7531  0.1328 -0.3906
29075SOL     OW89762   2.245   2.684   7.075 -0.2744  0.0766  0.4830
29075SOL    HW189763   2.222   2.688   6.982  0.5481 -0.0302  0.2760
29075SOL    HW289764   2.230   2.772   7.108 -2.2410 -0.2988  0.6461
29076SOL     OW89765   7.437   7.654   9.196  0.0833 -0.1701  0.4466
29076SOL    HW189766   7.352   7.632   9.233 -1.0636 -0.0481 -2.0804
29076SOL    HW289767   7.483   7.570   9.191 -0.2103 -0.3657  0.9542
29077SOL     OW89768   9.982  10.189   0.204  0.2716 -1.1682  0.4873
29077SOL    HW189769  10.065  10.195   0.156  0.1737 -1.2218  0.3126
29077SOL    HW289770   9.922  10.145   0.144 -1.3723  3.3372 -1.4345
29078SOL     OW89771   1.916   4.711   1.486 -0.4239  0.2499 -0.7481
29078SOL    HW189772   2.000   4.702   1.440 -1.5479  1.4323 -3.1092
29078SOL    HW289773   1.861   4.641   1.450 -1.1812  0.8937 -0.8438
29079SOL     OW89774   6.825   2.947   1.438 -0.5689  0.3046 -0.5075
29079SOL    HW189775   6.905   2.988   1.470 -0.0478  0.0992 -1.5406
29079SOL    HW289776   6.849   2.855   1.425  0.1966  0.9919 -4.6196
29080SOL     OW89777   6.401   8.414   1.284 -0.4760 -0.4304  0.0838
29080SOL    HW189778   6.358   8.354   1.345 -1.5276 -0.2239 -0.4423
29080SOL    HW289779   6.372   8.501   1.312  2.0543 -0.0220  1.6522
29081SOL     OW89780   1.065   3.251  10.146 -0.7232 -0.1715  0.1217
29081SOL    HW189781   1.036   3.183  10.086 -1.6000 -0.5368  0.9402
29081SOL    HW289782   0.987   3.304  10.163  0.1458  1.5760 -1.1812
29082SOL     OW89783   8.266   1.977   4.274  0.6211  0.1538  0.8181
29082SOL    HW189784   8.277   2.013   4.186  0.9100 -0.5823  0.5466
29082SOL    HW289785   8.242   2.052   4.328 -1.5294  0.2832 -0.2755
29083SOL     OW89786   8.093   3.603   8.583  0.2823  0.2402 -0.3397
29083SOL    HW189787   8.014   3.657   8.579 -0.5553 -0.8007  1.5134
29083SOL    HW289788   8.099   3.563   8.496 -1.1257  0.4946 -0.5689
29084SOL     OW89789   0.375   2.767   3.590 -0.0996  0.1127  0.7000
29084SOL    HW189790   0.402   2.706   3.658 -0.3547 -1.4211 -0.5411
29084SOL    HW289791   0.335   2.712   3.522 -3.0323  1.9443  0.8482
29085SOL     OW89792   0.698   5.370   8.484 -0.2038 -0.4410  0.1708
29085SOL    HW189793   0.748   5.361   8.565  0.1930 -1.4380 -0.1823
29085SOL    HW289794   0.610   5.394   8.512  0.2082  0.2825  0.8461
29086SOL     OW89795   5.758   2.776   7.246  0.0649 -0.7618 -0.1625
29086SOL    HW189796   5.777   2.867   7.268 -2.1098 -0.3705  0.2424
29086SOL    HW289797   5.778   2.769   7.153 -1.3011  0.5690 -0.5704
29087SOL     OW89798   0.139   5.248   8.513 -0.1878 -0.4635  0.0160
29087SOL    HW189799   0.077   5.285   8.450  1.2480 -0.7390 -1.5961
29087SOL    HW289800   0.120   5.155   8.514  0.4130 -0.5958 -0.7261
29088SOL     OW89801   8.618   9.758   4.040  0.5703 -0.0226 -0.3490
29088SOL    HW189802   8.608   9.830   3.978 -1.5719  0.8148  0.8895
29088SOL    HW289803   8.651   9.799   4.119 -0.8479 -0.3209  0.4286
29089SOL     OW89804   0.955   0.994   2.084  0.3514 -0.4796 -0.6509
29089SOL    HW189805   0.988   0.915   2.042 -1.2978 -0.7512 -1.4456
29089SOL    HW289806   0.983   0.986   2.175  2.6124 -0.6245 -1.3258
29090SOL     OW89807   2.459  10.196   7.612 -0.1424  0.1955 -0.9216
29090SOL    HW189808   2.409  10.264   7.657 -0.7092 -1.1512  0.5214
29090SOL    HW289809   2.532  10.176   7.671 -0.6047 -1.2238 -0.8108
29091SOL     OW89810   4.894   2.362   8.094  0.2428  0.0938 -0.5372
29091SOL    HW189811   4.843   2.320   8.025  0.8212 -1.2004 -0.1878
29091SOL    HW289812   4.920   2.290   8.151  3.2986  0.6224 -1.2200
29092SOL     OW89813   0.434   7.062   4.570 -0.3926  0.0886 -0.4224
29092SOL    HW189814   0.424   6.981   4.621  0.2345 -0.2139 -0.7692
29092SOL    HW289815   0.387   7.128   4.620 -1.1780 -0.5636 -0.2923
29093SOL     OW89816   9.409   0.205   6.672  0.3740 -0.1837  0.4991
29093SOL    HW189817   9.458   0.276   6.630 -2.1684  1.1853 -0.2021
29093SOL    HW289818   9.352   0.249   6.735  0.7553 -1.8555  2.0530
29094SOL     OW89819   8.305   5.905   2.982 -0.5124 -0.3436 -0.0520
29094SOL    HW189820   8.254   5.824   2.983 -0.7579 -0.1995 -0.6437
29094SOL    HW289821   8.390   5.880   3.020 -0.8907 -0.6661  0.5877
29095SOL     OW89822   2.175   6.647   5.844 -0.2553 -0.2672  0.2672
29095SOL    HW189823   2.180   6.739   5.870  0.9794 -0.6424  1.3815
29095SOL    HW289824   2.082   6.632   5.826 -0.3595  1.3834 -0.6477
29096SOL     OW89825   6.225   4.669   6.079 -0.4641 -0.1851  0.0174
29096SOL    HW189826   6.232   4.627   5.994 -0.2990 -1.6060  0.7129
29096SOL    HW289827   6.132   4.684   6.092 -0.5642 -0.7506 -0.0480
29097SOL     OW89828   3.246   4.977   7.480  0.1501 -0.0878 -0.0660
29097SOL    HW189829   3.334   4.973   7.441  0.3923 -2.0364  0.6117
29097SOL    HW289830   3.258   4.942   7.568 -0.9510  1.5384  0.7517
29098SOL     OW89831  10.075   7.507   2.826  0.1984 -0.0288  0.2418
29098SOL    HW189832  10.085   7.542   2.737 -2.4277  2.9214  1.0064
29098SOL    HW289833  10.078   7.584   2.882  0.7657 -1.7608  2.6377
29099SOL     OW89834   4.201   5.047   8.008 -0.3415  0.0794  0.7823
29099SOL    HW189835   4.192   5.116   8.074 -0.2695 -0.7213  1.6261
29099SOL    HW289836   4.190   4.966   8.056  0.4071 -0.5371 -0.0743
29100SOL     OW89837   2.088   7.029   9.289 -0.0439 -0.1415  0.2969
29100SOL    HW189838   2.019   6.973   9.326 -0.2900  0.1837  0.3347
29100SOL    HW289839   2.065   7.037   9.196 -0.1346  0.0764  0.3364
29101SOL     OW89840   7.311   8.355   9.751 -0.5856 -0.7860 -0.4200
29101SOL    HW189841   7.273   8.334   9.837  0.6119 -0.5577  0.1751
29101SOL    HW289842   7.240   8.397   9.703 -1.1315 -0.5026  0.6273
29102SOL     OW89843   0.060   3.402   6.178 -0.1959 -0.3170 -0.0367
29102SOL    HW189844   0.022   3.437   6.098  0.7083 -0.4699 -0.5306
29102SOL    HW289845   0.136   3.458   6.195 -1.4306  0.8875  1.7239
29103SOL     OW89846   3.943   0.169   8.841  0.2557 -0.1400 -0.1088
29103SOL    HW189847   3.887   0.217   8.780 -1.9887 -1.6898  0.6666
29103SOL    HW289848   4.025   0.218   8.843 -1.8678  3.5303  0.4644
29104SOL     OW89849   3.912   5.911   9.606  0.4637  0.6748 -0.0885
29104SOL    HW189850   3.822   5.912   9.638 -0.1132  0.6742 -1.6678
29104SOL    HW289851   3.966   5.910   9.685 -0.9241  0.3400  0.8670
29105SOL     OW89852   0.656   2.239   7.337  0.5288  0.3540 -0.4875
29105SOL    HW189853   0.718   2.284   7.279  0.9748 -0.6038 -0.7727
29105SOL    HW289854   0.582   2.216   7.281  0.1004  1.1299 -0.2399
29106SOL     OW89855   2.204   8.240   2.418  0.7006 -0.1620 -0.2305
29106SOL    HW189856   2.282   8.202   2.457  1.8428  0.3577 -1.9316
29106SOL    HW289857   2.214   8.223   2.324  0.3201  2.6552 -0.8160
29107SOL     OW89858   8.415   0.362   7.749 -0.4120 -0.3091  0.1149
29107SOL    HW189859   8.411   0.434   7.686  0.5091 -0.4864 -0.1560
29107SOL    HW289860   8.497   0.317   7.728 -1.4032 -1.9602 -0.2942
29108SOL     OW89861   3.539   0.564   1.078 -0.0894 -0.6465 -0.2181
29108SOL    HW189862   3.563   0.546   1.169  0.7328 -0.7795 -0.4503
29108SOL    HW289863   3.561   0.483   1.032 -2.1587 -1.2091 -0.2487
29109SOL     OW89864   9.051   5.908   7.938  0.7356  0.2120  0.0884
29109SOL    HW189865   9.079   5.935   8.025  1.9397 -0.2494 -0.1331
29109SOL    HW289866   9.107   5.958   7.878  1.2085 -0.8401 -0.3672
29110SOL     OW89867   2.119   7.039   6.278 -0.2227  0.4227 -0.1264
29110SOL    HW189868   2.146   7.112   6.222 -1.0480  1.0991  0.3525
29110SOL    HW289869   2.126   7.073   6.367 -2.7288  0.6500  0.0099
29111SOL     OW89870   6.817   3.853   2.918  0.1045  0.0788  0.1169
29111SOL    HW189871   6.903   3.815   2.899  0.0349  0.0653 -0.1754
29111SOL    HW289872   6.757   3.779   2.916  0.2622 -0.1065  1.5388
29112SOL     OW89873   3.982   8.202   0.247  0.3725 -0.1407 -0.4363
29112SOL    HW189874   4.065   8.169   0.212  0.8010  0.2264  0.2338
29112SOL    HW289875   3.920   8.190   0.176  0.6280 -1.9831 -0.3728
29113SOL     OW89876   4.344   7.652   3.755 -0.4682  0.0144  0.0353
29113SOL    HW189877   4.395   7.587   3.803 -0.8139 -0.9139 -0.8315
29113SOL    HW289878   4.408   7.718   3.728  0.2152 -0.9403 -0.7168
29114SOL     OW89879   4.550   4.299   5.120  0.6018 -0.2543  0.3505
29114SOL    HW189880   4.555   4.360   5.193 -1.6882  0.2898  0.0808
29114SOL    HW289881   4.569   4.352   5.043 -0.7906  0.0281  0.1804
29115SOL     OW89882   7.835   0.709   4.284 -0.6704 -0.0164 -0.1166
29115SOL    HW189883   7.798   0.629   4.320 -0.7325 -0.4203 -1.0761
29115SOL    HW289884   7.823   0.702   4.190  0.3282  0.6122 -0.3065
29116SOL     OW89885   2.291   1.714   7.542  0.1543 -0.0923  0.2958
29116SOL    HW189886   2.232   1.673   7.479 -0.9838 -0.0764  1.3285
29116SOL    HW289887   2.333   1.786   7.494  0.1715 -0.8157 -0.7622
29117SOL     OW89888   0.747   7.450   1.842  0.2338  0.3990  0.5879
29117SOL    HW189889   0.691   7.378   1.871  1.7202 -0.9032  0.3653
29117SOL    HW289890   0.808   7.463   1.915  1.6815 -0.4139 -0.4545
29118SOL     OW89891   9.598   3.298   8.304  0.1995 -0.2149 -0.2460
29118SOL    HW189892   9.613   3.391   8.287 -0.3079  0.0118  0.5331
29118SOL    HW289893   9.518   3.295   8.357  0.4041 -1.0729  0.0303
29119SOL     OW89894   5.751   0.768   7.167 -0.1382  0.0063 -0.4832
29119SOL    HW189895   5.666   0.797   7.135 -0.7211 -1.3571 -0.2076
29119SOL    HW289896   5.799   0.849   7.184 -1.0568  0.7823 -1.4784
29120SOL     OW89897   8.982   3.695   6.047  0.4945 -0.1658 -0.1680
29120SOL    HW189898   9.017   3.766   6.102  1.5822 -0.4444 -0.4771
29120SOL    HW289899   8.889   3.715   6.038  0.5893  0.6682  0.5860
29121SOL     OW89900   6.435   5.335   9.511 -0.1417  0.2708 -0.1786
29121SOL    HW189901   6.339   5.328   9.516 -0.2397  2.6018  1.7991
29121SOL    HW289902   6.463   5.248   9.484 -2.7128 -0.9278  0.8285
29122SOL     OW89903   1.084   2.850   6.667 -0.0371  0.5055  0.0200
29122SOL    HW189904   1.109   2.938   6.638 -0.9886  0.6970 -0.2351
29122SOL    HW289905   1.148   2.828   6.735  0.9242  0.9168 -0.7376
29123SOL     OW89906   3.723   1.638   7.649  0.3018  0.6740  0.2306
29123SOL    HW189907   3.779   1.592   7.712 -0.1432 -0.3469 -0.1072
29123SOL    HW289908   3.777   1.711   7.619  1.1418  0.1956  0.5403
29124SOL     OW89909   4.043   6.905   3.186  0.1049  0.3489  0.0573
29124SOL    HW189910   3.985   6.932   3.115  0.6755 -0.4917 -0.7492
29124SOL    HW289911   3.993   6.921   3.266 -0.7008  0.9242 -0.5531
29125SOL     OW89912   8.504   0.578   5.320  0.1232  0.4024  0.1837
29125SOL    HW189913   8.586   0.587   5.370 -0.0401  0.4089  0.4522
29125SOL    HW289914   8.532   0.545   5.235  0.4906  1.1936 -0.0117
29126SOL     OW89915   3.875   7.959   4.118 -0.1354  0.1138  0.1958
29126SOL    HW189916   3.865   7.961   4.023 -0.4848 -0.4034  0.2261
29126SOL    HW289917   3.883   8.052   4.143  0.4994  0.2192 -0.3907
29127SOL     OW89918   7.937   3.510   7.762  0.2448  0.7324 -0.2094
29127SOL    HW189919   7.857   3.477   7.720  0.8802 -0.5251 -0.4542
29127SOL    HW289920   7.949   3.454   7.839  1.0546  0.7047 -0.3496
29128SOL     OW89921   2.998   4.676   6.067  0.1345  0.0519 -0.1158
29128SOL    HW189922   2.953   4.742   6.120 -1.0041  1.3019 -2.5365
29128SOL    HW289923   3.074   4.723   6.031  0.7379 -0.7098  0.1424
29129SOL     OW89924   4.970   4.226  10.091 -0.8662  0.0240  0.2384
29129SOL    HW189925   5.038   4.219  10.158 -0.7150 -1.4768 -0.0435
29129SOL    HW289926   5.009   4.282  10.024 -1.6217  2.8447  2.0894
29130SOL     OW89927   9.288   7.684   6.804  0.2112  0.2685  0.6823
29130SOL    HW189928   9.197   7.669   6.830  0.0175  1.3643  0.6744
29130SOL    HW289929   9.290   7.775   6.775  1.2697  0.1944  0.4896
29131SOL     OW89930   9.160   1.983   0.304 -0.5794 -0.0606 -0.3397
29131SOL    HW189931   9.145   2.076   0.285 -1.6018 -0.4294 -1.3514
29131SOL    HW289932   9.113   1.968   0.386 -0.7115  0.2352 -0.3597
29132SOL     OW89933  10.073   8.189   7.688  0.0173  0.0789 -0.5897
29132SOL    HW189934  10.149   8.152   7.732 -1.9857 -2.2745  1.0239
29132SOL    HW289935  10.007   8.198   7.757 -1.3663  1.5781 -2.0437
29133SOL     OW89936   8.393   7.887   4.068  0.2630  0.0154  0.0000
29133SOL    HW189937   8.433   7.936   3.996  3.5128 -1.1229  0.9199
29133SOL    HW289938   8.354   7.810   4.026  0.4052  0.3653 -0.7771
29134SOL     OW89939   5.208   1.273   0.849  0.0252  0.1113 -0.8615
29134SOL    HW189940   5.298   1.245   0.833  0.2758 -0.1709  0.9273
29134SOL    HW289941   5.206   1.364   0.820  0.6101 -0.1925 -1.8703
29135SOL     OW89942   4.358   6.704   8.675  0.0328 -0.2073  0.5713
29135SOL    HW189943   4.262   6.707   8.685  0.1677  0.2985  1.8502
29135SOL    HW289944   4.384   6.627   8.726  0.2517 -0.7062 -0.2906
29136SOL     OW89945   8.162   7.345   3.631 -0.1488  0.1281  0.0821
29136SOL    HW189946   8.181   7.399   3.708  0.1713  2.5156 -1.6172
29136SOL    HW289947   8.070   7.366   3.611 -0.3580 -0.8151  0.0644
29137SOL     OW89948   3.110   5.131   7.271  0.3557 -0.2008 -0.3493
29137SOL    HW189949   3.141   5.083   7.194  1.8513 -1.6406  1.1172
29137SOL    HW289950   3.188   5.145   7.324 -0.4682  1.8216  0.3732
29138SOL     OW89951   6.578   3.215   0.204 -0.1358  0.6128 -0.8462
29138SOL    HW189952   6.573   3.309   0.223  0.9694  0.4614  0.2453
29138SOL    HW289953   6.669   3.192   0.223 -0.5866 -0.8303 -0.4012
29139SOL     OW89954   4.451   6.983   8.689  0.4031 -0.3028 -0.8207
29139SOL    HW189955   4.528   6.991   8.633 -0.5280 -0.3138 -2.1096
29139SOL    HW289956   4.424   6.892   8.680 -1.8907  0.5615 -3.2362
29140SOL     OW89957   7.120   4.644   2.199 -0.9888 -0.3519  0.4038
29140SOL    HW189958   7.050   4.643   2.133 -1.9928  1.2625  1.4030
29140SOL    HW289959   7.201   4.644   2.148 -1.7532  1.6494 -0.8912
29141SOL     OW89960   2.087   8.534   3.057 -0.1814 -0.2881  0.6519
29141SOL    HW189961   2.092   8.626   3.033 -0.2575  0.4590  3.3329
29141SOL    HW289962   2.012   8.500   3.008 -1.0696  1.4347  0.7840
29142SOL     OW89963   5.813   1.217   6.328 -0.5214 -0.2947  0.4881
29142SOL    HW189964   5.741   1.278   6.343 -0.8071 -0.5111 -0.0022
29142SOL    HW289965   5.826   1.218   6.233 -1.4462 -2.0465  0.3300
29143SOL     OW89966   9.145   9.481   9.711 -0.0692 -0.0621  0.2030
29143SOL    HW189967   9.210   9.413   9.728 -0.4603 -0.4259  0.2514
29143SOL    HW289968   9.149   9.538   9.788  0.9473  0.5238 -0.2710
29144SOL     OW89969   4.415   8.778   8.860  0.1876  0.0579  0.2048
29144SOL    HW189970   4.392   8.797   8.951  2.2211 -2.3682  1.2513
29144SOL    HW289971   4.474   8.849   8.835  0.3630  0.2288  1.0836
29145SOL     OW89972   4.270   2.354   5.836  0.2208  1.0364  0.1846
29145SOL    HW189973   4.222   2.406   5.771 -0.5847 -1.6044 -1.4140
29145SOL    HW289974   4.360   2.353   5.803  0.2550  1.4636  0.2571
29146SOL     OW89975   6.057   3.399   0.326  0.1294 -0.3307 -0.4484
29146SOL    HW189976   6.041   3.493   0.314 -1.1690 -0.6394 -1.3209
29146SOL    HW289977   5.997   3.357   0.264  0.1954 -1.7598  0.4314
29147SOL     OW89978   5.397   7.405   7.769 -0.0353 -0.2804  0.2421
29147SOL    HW189979   5.308   7.380   7.792 -0.2373 -0.4619 -0.7567
29147SOL    HW289980   5.452   7.351   7.826 -0.5634  0.5825  1.6122
29148SOL     OW89981   6.812   6.881   1.089  0.7374  0.0801 -0.6028
29148SOL    HW189982   6.775   6.810   1.037 -1.9348  1.5856 -0.8066
29148SOL    HW289983   6.835   6.840   1.172  1.5911 -1.5446 -1.6116
29149SOL     OW89984   9.403   5.453   1.605  0.2204  0.3038 -0.2223
29149SOL    HW189985   9.350   5.400   1.664  0.5979 -1.1867 -1.1962
29149SOL    HW289986   9.492   5.422   1.618  0.3123 -0.0540 -1.5594
29150SOL     OW89987   1.713   0.732   4.129  1.0010 -0.1586  0.0838
29150SOL    HW189988   1.676   0.659   4.080  1.7483 -1.2520  1.1134
29150SOL    HW289989   1.802   0.742   4.094  0.6207  0.7797 -0.6107
29151SOL     OW89990   0.986   8.419   5.823 -0.6035  0.1982  0.1552
29151SOL    HW189991   1.004   8.423   5.729  1.7915 -0.1698  0.5687
29151SOL    HW289992   0.955   8.329   5.838 -0.4775  0.0995 -0.1757
29152SOL     OW89993   5.216   3.210   6.659  0.3926  0.0952  0.0070
29152SOL    HW189994   5.128   3.190   6.691  1.2793 -1.5167  1.5788
29152SOL    HW289995   5.240   3.293   6.701 -0.1244  0.1891  0.1099
29153SOL     OW89996   2.379   8.100   3.587 -0.0250 -0.4408 -0.0346
29153SOL    HW189997   2.312   8.116   3.521  0.6840  2.8128 -0.0112
29153SOL    HW289998   2.460   8.093   3.538  0.6385  2.8678  0.4757
29154SOL     OW89999   8.279   2.229   3.562 -0.7070 -0.3169  0.3478
29154SOL    HW190000   8.265   2.282   3.642  1.0708  0.0404  0.4422
29154SOL    HW290001   8.329   2.286   3.504 -1.1555 -0.9310 -0.6594
29155SOL     OW90002   9.875   8.222   8.797  0.9068 -0.6647  0.5728
29155SOL    HW190003   9.967   8.207   8.774  0.8628  0.1889 -0.1944
29155SOL    HW290004   9.853   8.149   8.856  1.1855 -2.5922 -1.6375
29156SOL     OW90005   8.214   8.361   5.916  0.6034 -0.7308 -0.2826
29156SOL    HW190006   8.297   8.407   5.927 -0.2621  0.9333 -0.4121
29156SOL    HW290007   8.178   8.354   6.004  0.0798  0.1565 -0.4123
29157SOL     OW90008   3.023   5.904   5.251 -0.6315  0.0763  0.0602
29157SOL    HW190009   3.010   5.871   5.339 -1.2311  1.2410  0.4184
29157SOL    HW290010   3.091   5.972   5.261 -0.4507 -0.0315 -0.4261
29158SOL     OW90011  10.061   2.543   1.330 -0.2188  0.6738  0.3757
29158SOL    HW190012  10.076   2.457   1.291 -0.1306  0.1103  1.6391
29158SOL    HW290013  10.148   2.583   1.333 -0.2946  0.8974 -0.4196
29159SOL     OW90014   1.523   0.230   3.487 -0.3152  1.6120  0.2227
29159SOL    HW190015   1.604   0.263   3.525 -0.8270  1.3383  1.5696
29159SOL    HW290016   1.468   0.208   3.562 -1.1875  0.6765 -0.6690
29160SOL     OW90017   0.859   7.113   4.228  0.2306 -0.1300 -0.6591
29160SOL    HW190018   0.932   7.170   4.206 -0.8998  0.7956 -2.0744
29160SOL    HW290019   0.865   7.102   4.323  0.6711  2.0716 -0.4059
29161SOL     OW90020   9.076   1.693   3.208 -0.3903  0.0588 -0.3070
29161SOL    HW190021   9.072   1.674   3.114  0.6801  0.6231 -0.4708
29161SOL    HW290022   9.148   1.755   3.217 -0.3134 -0.2001  0.9312
29162SOL     OW90023   8.870   9.673   0.093 -0.8162  0.2114 -0.3728
29162SOL    HW190024   8.801   9.606   0.094 -1.4596  0.8595  0.6924
29162SOL    HW290025   8.837   9.741   0.035 -1.1279  0.5522  0.1885
29163SOL     OW90026   2.950   4.742   4.549  0.3417 -0.2359  0.5705
29163SOL    HW190027   3.042   4.763   4.534  0.3893  0.7556  2.1721
29163SOL    HW290028   2.952   4.673   4.616 -0.0585 -1.0072 -0.1935
29164SOL     OW90029   6.093   4.958   3.193 -0.1918 -0.4451 -0.1397
29164SOL    HW190030   6.041   4.890   3.236  0.9128 -0.8946  0.4896
29164SOL    HW290031   6.117   4.919   3.109 -0.7753 -0.2753 -0.3892
29165SOL     OW90032   0.979   5.423   4.965  0.5241  0.2877 -0.4856
29165SOL    HW190033   1.055   5.420   4.907 -1.3612  1.5891 -3.1674
29165SOL    HW290034   0.922   5.353   4.933 -0.8685  1.5005 -0.7179
29166SOL     OW90035   1.485   8.267   6.025  0.3106 -0.6641  0.1416
29166SOL    HW190036   1.570   8.306   6.042 -0.4639  1.3347 -0.4684
29166SOL    HW290037   1.504   8.177   5.999  2.2192 -0.2348  0.0264
29167SOL     OW90038   6.050   7.216   0.013 -0.3336  0.3932 -0.4986
29167SOL    HW190039   6.095   7.177   0.088 -2.5163  0.4551  0.8763
29167SOL    HW290040   6.112   7.205  -0.060  2.3687  1.4609  1.5333
29168SOL     OW90041   4.043   7.222   7.668 -0.0556 -0.3989  0.3409
29168SOL    HW190042   4.024   7.149   7.727  1.3269 -0.6885  0.4593
29168SOL    HW290043   4.115   7.269   7.712 -0.2962  0.4791 -0.1949
29169SOL     OW90044   0.557   3.502   4.937 -0.1615 -0.4163  0.0067
29169SOL    HW190045   0.537   3.514   5.029 -0.0629  0.3237 -0.0697
29169SOL    HW290046   0.646   3.466   4.937  0.6225  1.4597  0.1325
29170SOL     OW90047   5.354   4.373   0.672  0.4273  0.0861  0.1622
29170SOL    HW190048   5.287   4.309   0.653  1.4764 -1.0599  0.2702
29170SOL    HW290049   5.306   4.455   0.686 -1.0286 -0.9486  1.3677
29171SOL     OW90050   1.759   3.521   2.536 -0.1895 -0.2650 -0.2324
29171SOL    HW190051   1.707   3.443   2.557 -0.2018 -0.2726 -0.2902
29171SOL    HW290052   1.805   3.498   2.456  0.0666 -0.3371 -0.0663
29172SOL     OW90053   1.368   6.957   3.679  0.0400  0.5844  0.5206
29172SOL    HW190054   1.307   7.022   3.643 -0.2393  0.7095  1.2223
29172SOL    HW290055   1.349   6.877   3.630  1.3684  1.3669 -1.3763
29173SOL     OW90056   0.682   7.822   7.344 -0.7006  0.4139 -0.4842
29173SOL    HW190057   0.717   7.737   7.317 -0.7902  0.8155 -1.9216
29173SOL    HW290058   0.602   7.833   7.292  0.0390  1.9814 -1.3227
29174SOL     OW90059   3.890   6.871   8.817  0.2829 -0.3258 -0.6129
29174SOL    HW190060   3.879   6.960   8.849  0.4707 -0.5570  0.1247
29174SOL    HW290061   3.833   6.865   8.740 -0.2168  0.2386 -0.2910
29175SOL     OW90062   8.640   3.797   0.959 -0.1176 -0.2599 -0.1647
29175SOL    HW190063   8.620   3.706   0.942 -1.4418  0.3652 -2.0565
29175SOL    HW290064   8.734   3.798   0.976  0.3461 -1.6544 -2.4747
29176SOL     OW90065   4.909   3.436   5.901  0.3900 -0.5453  0.3202
29176SOL    HW190066   4.899   3.523   5.939 -0.0438 -1.1306  1.5883
29176SOL    HW290067   4.912   3.451   5.807 -1.9215  0.6353  0.3884
29177SOL     OW90068   9.077   0.718   1.574 -0.5259  0.3726  0.2775
29177SOL    HW190069   9.053   0.809   1.594 -0.1272  0.2675  1.2583
29177SOL    HW290070   9.172   0.719   1.570 -0.5920  0.3653 -1.5658
29178SOL     OW90071   7.437   5.165   3.023 -0.1387  0.0182  0.0892
29178SOL    HW190072   7.430   5.165   3.118  2.8477 -1.4421  0.3855
29178SOL    HW290073   7.417   5.075   2.997  0.7721 -0.0221 -0.4923
29179SOL     OW90074   3.575   8.777   1.171  0.1692  0.1509  0.3717
29179SOL    HW190075   3.592   8.770   1.077 -0.8225 -1.7125  0.3083
29179SOL    HW290076   3.480   8.772   1.179  0.2412  0.3488  1.4761
29180SOL     OW90077   8.365   5.280   8.452  0.2084  0.8516 -0.2459
29180SOL    HW190078   8.288   5.296   8.506 -1.0770 -0.4854 -1.6331
29180SOL    HW290079   8.435   5.261   8.514 -1.2819 -0.8049  0.9673
29181SOL     OW90080   1.095   8.134   2.599  0.0180  0.1663  0.4952
29181SOL    HW190081   1.033   8.203   2.624  0.1522  0.6992 -0.6122
29181SOL    HW290082   1.049   8.084   2.531  0.8503  0.6685 -0.4481
29182SOL     OW90083   9.562   6.483   1.437  0.0123  0.1629  0.3095
29182SOL    HW190084   9.567   6.573   1.405  1.2219  0.2560  0.7399
29182SOL    HW290085   9.653   6.461   1.460 -0.2135 -1.3168 -0.2277
29183SOL     OW90086   8.029   1.738   0.173 -0.4883  0.3105 -0.4274
29183SOL    HW190087   8.072   1.742   0.087  0.6074  1.6003  0.1651
29183SOL    HW290088   8.009   1.829   0.194  0.5505  0.1659  1.3274
29184SOL     OW90089   1.142   5.341   3.794 -0.0438 -0.1164 -0.4155
29184SOL    HW190090   1.196   5.418   3.813  0.5617 -0.3573 -1.1026
29184SOL    HW290091   1.189   5.268   3.836  0.1874 -0.3284 -1.0268
29185SOL     OW90092   3.816   7.367   8.814 -0.1314  0.1474 -0.2588
29185SOL    HW190093   3.845   7.323   8.734  0.5482  0.1045  0.0090
29185SOL    HW290094   3.854   7.455   8.808  0.4982 -0.0784  0.3418
29186SOL     OW90095   5.542   5.680   0.366 -0.1544 -0.1985 -0.0897
29186SOL    HW190096   5.600   5.756   0.367 -0.4284  0.0130 -0.1982
29186SOL    HW290097   5.601   5.604   0.359  0.0476  0.1040 -2.2879
29187SOL     OW90098   9.149   6.916   1.724 -0.0536  0.5542  0.2101
29187SOL    HW190099   9.076   6.861   1.754  1.3844 -1.8775 -0.6338
29187SOL    HW290100   9.123   6.943   1.636 -0.1747  0.1300  0.1130
29188SOL     OW90101   6.778   6.192   0.238  0.0928 -0.2699 -0.8356
29188SOL    HW190102   6.850   6.146   0.282 -0.5556 -0.8649 -0.3753
29188SOL    HW290103   6.705   6.131   0.243 -1.1269  1.2768  0.8162
29189SOL     OW90104   8.252  10.059   6.329  0.1897  0.4129 -0.3853
29189SOL    HW190105   8.329  10.077   6.384  1.2864 -0.4015 -1.6110
29189SOL    HW290106   8.263  10.116   6.253  1.2051 -1.8723 -2.0106
29190SOL     OW90107   0.938   7.687   6.620  0.1819 -0.0937  0.0432
29190SOL    HW190108   0.847   7.685   6.648 -0.1356 -1.5026 -0.9785
29190SOL    HW290109   0.977   7.760   6.667 -1.1951 -0.1779  1.3576
29191SOL     OW90110   2.876   8.490   7.477  0.1625  0.0249 -0.0414
29191SOL    HW190111   2.902   8.536   7.397  1.9797  2.0494  1.6527
29191SOL    HW290112   2.943   8.422   7.488 -0.6446 -0.9070 -0.7296
29192SOL     OW90113   1.006   0.211   6.778  0.2793  0.3984 -0.2465
29192SOL    HW190114   1.050   0.130   6.804 -0.4117 -0.2185 -0.9757
29192SOL    HW290115   0.925   0.182   6.736 -1.5997  1.5569  2.4243
29193SOL     OW90116   1.503   3.740   2.170 -0.0221 -0.0084  0.4539
29193SOL    HW190117   1.479   3.832   2.181  0.1438  0.0975 -0.0391
29193SOL    HW290118   1.428   3.701   2.126  0.1247  0.0143  0.1781
29194SOL     OW90119   6.326   6.051   5.449  0.2506  0.4743  0.0712
29194SOL    HW190120   6.361   5.970   5.485 -0.0466  0.5379  0.5066
29194SOL    HW290121   6.271   6.087   5.519 -1.9779 -0.4324 -1.1835
29195SOL     OW90122   5.607   3.175   5.109 -0.4562  0.3326  0.1204
29195SOL    HW190123   5.566   3.138   5.188 -1.5172  1.2415  0.0206
29195SOL    HW290124   5.676   3.113   5.086  0.7436  0.6885  2.5197
29196SOL     OW90125   6.653   8.994   4.381  0.1591  0.4757  0.7021
29196SOL    HW190126   6.609   9.079   4.373 -3.3853 -1.2976  0.4850
29196SOL    HW290127   6.691   8.995   4.469  0.4273  2.3955  0.5907
29197SOL     OW90128   1.579   0.181   8.722  0.3989 -0.6011 -0.2782
29197SOL    HW190129   1.664   0.217   8.696  0.5362  0.0071  0.9747
29197SOL    HW290130   1.533   0.254   8.763 -0.0344 -1.3730  0.6565
29198SOL     OW90131   6.192   5.732   5.374  0.0657  0.2687 -0.3247
29198SOL    HW190132   6.189   5.690   5.288 -0.2214  2.2120 -1.2823
29198SOL    HW290133   6.285   5.750   5.389  0.2328 -1.0209  0.2621
29199SOL     OW90134   8.133   0.902   4.657 -0.0890  0.0123 -0.6356
29199SOL    HW190135   8.140   0.939   4.569  0.8338 -1.4270 -1.1808
29199SOL    HW290136   8.075   0.826   4.646  1.3757 -1.1702 -0.3430
29200SOL     OW90137   3.243   8.288   9.921  0.1335 -0.3826  0.0968
29200SOL    HW190138   3.154   8.322   9.920  0.3529  0.1990 -0.6950
29200SOL    HW290139   3.280   8.317   9.837  0.0174 -3.4376 -1.0666
29201SOL     OW90140   1.017   0.735   7.643 -0.1859 -0.8983  0.3914
29201SOL    HW190141   1.102   0.779   7.637 -0.5455  0.1171  2.2036
29201SOL    HW290142   0.953   0.804   7.628 -0.7184 -1.2963  0.7969
29202SOL     OW90143  10.045   2.910   2.143  0.1293  0.2942 -0.0199
29202SOL    HW190144  10.014   2.819   2.143 -1.5044  0.8470 -0.9282
29202SOL    HW290145   9.976   2.959   2.187  0.7731  1.1901 -0.0032
29203SOL     OW90146   2.654   7.216   4.330  0.0464  0.2158  0.1802
29203SOL    HW190147   2.731   7.264   4.301  2.2853 -2.1466  1.9389
29203SOL    HW290148   2.636   7.250   4.418 -0.7549  0.5609 -0.1116
29204SOL     OW90149   3.464   6.168   8.206  0.0996 -0.0256 -0.3307
29204SOL    HW190150   3.470   6.257   8.240  0.6633 -0.3129  0.3553
29204SOL    HW290151   3.555   6.140   8.197 -0.0747 -0.5414 -0.5054
29205SOL     OW90152   7.515   4.756   0.303  0.2831  0.2325  1.0363
29205SOL    HW190153   7.520   4.836   0.354  0.1962  0.4733  0.6659
29205SOL    HW290154   7.430   4.719   0.325 -0.2427  0.9292  0.1783
29206SOL     OW90155   6.806   8.905   1.595  0.0378  0.2252  0.0420
29206SOL    HW190156   6.893   8.918   1.558 -0.1422  0.2842 -0.3626
29206SOL    HW290157   6.777   8.993   1.620  0.0655  0.2136  0.1130
29207SOL     OW90158   8.762   7.491   7.017  0.3616 -0.7180 -0.4017
29207SOL    HW190159   8.669   7.468   7.028  0.4010 -0.6119  0.1756
29207SOL    HW290160   8.761   7.567   6.960  0.0843 -0.6713 -0.3376
29208SOL     OW90161   0.014   0.088   4.783 -0.4159  0.1755  0.1693
29208SOL    HW190162  -0.073   0.109   4.748 -0.8168 -1.9637 -0.1911
29208SOL    HW290163  -0.004   0.025   4.853  0.8716 -0.4648 -0.0738
29209SOL     OW90164   8.504   9.380   4.886  0.1094 -0.1535 -0.1812
29209SOL    HW190165   8.568   9.338   4.944 -0.6938  0.7450  1.3851
29209SOL    HW290166   8.436   9.314   4.873 -0.6950  0.2962  1.5385
29210SOL     OW90167   6.370   1.969   0.629  0.1865 -0.2800  0.3308
29210SOL    HW190168   6.302   1.941   0.567 -1.9695  1.0728  1.9968
29210SOL    HW290169   6.329   1.961   0.715  1.5524  2.0941  1.2683
29211SOL     OW90170   4.490   1.117   6.514 -0.7582  0.6078 -0.3682
29211SOL    HW190171   4.543   1.123   6.434 -0.5682 -0.7441 -0.3618
29211SOL    HW290172   4.442   1.200   6.517  0.4528  1.3481 -1.0118
29212SOL     OW90173   3.283   1.480   1.817 -0.6637 -0.5411 -0.0769
29212SOL    HW190174   3.259   1.399   1.772 -0.5558 -2.9999  3.9987
29212SOL    HW290175   3.368   1.504   1.780 -0.1071 -3.0200 -0.4691
29213SOL     OW90176   8.755   3.589   8.482 -0.7390  0.1900 -0.2376
29213SOL    HW190177   8.710   3.651   8.424 -1.1561  1.5592  1.4910
29213SOL    HW290178   8.687   3.559   8.543  0.1311  0.4360  0.8828
29214SOL     OW90179   6.234   2.060   2.551  0.2588 -0.1421  0.1984
29214SOL    HW190180   6.209   2.133   2.494 -0.0418 -0.2290  0.2188
29214SOL    HW290181   6.160   2.000   2.547  0.5991 -0.5555  0.0065
29215SOL     OW90182   0.787   0.260   5.695  0.1639  0.5534  0.0047
29215SOL    HW190183   0.788   0.355   5.693  1.7100  0.5434 -0.2896
29215SOL    HW290184   0.865   0.234   5.646 -1.1146 -0.9012 -1.3043
29216SOL     OW90185   4.118   1.379   8.492  0.4156 -0.3224 -0.3824
29216SOL    HW190186   4.206   1.413   8.482 -0.3098  1.5509 -0.5713
29216SOL    HW290187   4.101   1.331   8.411  1.7120 -1.8019  0.1971
29217SOL     OW90188   0.521   9.199   7.094  0.0600  0.4659 -0.6464
29217SOL    HW190189   0.514   9.238   7.181  2.6138 -2.1043  0.7759
29217SOL    HW290190   0.558   9.270   7.040  0.2646  1.4946  0.7998
29218SOL     OW90191   3.978   8.182   3.888  0.0834  0.3535  0.3021
29218SOL    HW190192   3.973   8.179   3.983 -0.3836 -0.6071  0.2485
29218SOL    HW290193   4.049   8.244   3.870 -0.0318  0.7743  1.2618
29219SOL     OW90194   8.733   3.649   6.602 -0.0837 -0.0888 -0.0013
29219SOL    HW190195   8.675   3.620   6.532  1.1196 -1.7452 -0.3607
29219SOL    HW290196   8.684   3.717   6.649 -1.5582 -0.1693 -1.4005
29220SOL     OW90197   0.889   0.022   4.231 -0.0437 -0.0353  0.8069
29220SOL    HW190198   0.799   0.054   4.239 -1.1721 -1.7692 -3.4328
29220SOL    HW290199   0.883  -0.073   4.247  0.6622 -0.4529 -1.1728
29221SOL     OW90200   0.395   4.535   1.702  0.5203  0.2644 -0.4401
29221SOL    HW190201   0.377   4.528   1.608  0.5699  0.3734 -0.4577
29221SOL    HW290202   0.359   4.620   1.727  0.5083  0.2363 -0.3609
29222SOL     OW90203   0.931   7.338   7.909  0.8259  0.1486  0.1239
29222SOL    HW190204   0.861   7.345   7.973  0.1916  1.1239 -0.6589
29222SOL    HW290205   0.887   7.349   7.824  1.5553 -1.7312 -0.5219
29223SOL     OW90206   1.084   5.958   7.674  0.5199 -0.6054  0.3705
29223SOL    HW190207   1.157   5.945   7.735  1.7307 -0.1858 -0.9857
29223SOL    HW290208   1.006   5.960   7.731  1.7088  0.7627  2.0091
29224SOL     OW90209   2.983   9.193   4.084 -0.0019  0.4366 -0.5275
29224SOL    HW190210   2.909   9.204   4.143  1.1390  0.8925  0.8480
29224SOL    HW290211   3.059   9.216   4.137  1.1862 -0.6917 -1.7172
29225SOL     OW90212   2.643   1.627   6.935 -0.1708 -0.1051  0.5216
29225SOL    HW190213   2.585   1.606   6.862 -0.1678 -1.9264  1.0229
29225SOL    HW290214   2.585   1.635   7.010 -0.2263  2.2153  0.2690
29226SOL     OW90215   4.675  10.167   5.788  0.5275 -0.4521  0.0143
29226SOL    HW190216   4.692  10.191   5.697  1.7069  0.3913  0.4563
29226SOL    HW290217   4.739  10.099   5.808  0.0737 -0.8529  0.1295
29227SOL     OW90218   5.717   4.301   0.980  0.3193 -0.2009 -0.1609
29227SOL    HW190219   5.781   4.328   0.914 -0.2409  0.8032 -0.3064
29227SOL    HW290220   5.646   4.365   0.972  0.0738 -0.2934  1.1702
29228SOL     OW90221   3.490   7.095   4.193  0.2983  0.1511 -0.4347
29228SOL    HW190222   3.540   7.021   4.157  0.9047 -0.0200  0.7407
29228SOL    HW290223   3.398   7.070   4.181  0.4579  0.5018 -2.6832
29229SOL     OW90224   7.208   0.944   6.627 -0.0414 -0.4676 -0.1509
29229SOL    HW190225   7.300   0.924   6.645  0.1290 -0.4218 -0.9699
29229SOL    HW290226   7.159   0.891   6.690  0.5056 -1.2943 -0.4273
29230SOL     OW90227   4.839   7.875   1.966 -0.5384 -0.5781 -0.4161
29230SOL    HW190228   4.780   7.948   1.946 -0.8427 -0.8326 -0.4506
29230SOL    HW290229   4.782   7.809   2.004 -0.5657 -1.4799 -1.9793
29231SOL     OW90230   2.812   6.695   4.658 -1.0653 -0.2298 -0.2760
29231SOL    HW190231   2.836   6.758   4.590  0.2178  0.2318  0.5955
29231SOL    HW290232   2.741   6.644   4.619 -1.2974  0.9603 -1.4362
29232SOL     OW90233   9.241   1.837   2.331  0.3489  0.4063  0.1333
29232SOL    HW190234   9.192   1.757   2.310  2.3440 -0.7781 -0.1580
29232SOL    HW290235   9.308   1.843   2.263  1.7716  0.9724  1.5464
29233SOL     OW90236   9.985   9.845   8.865 -0.3792  0.2449  0.5027
29233SOL    HW190237   9.978   9.819   8.957 -0.2153  0.3857  0.5531
29233SOL    HW290238  10.050   9.914   8.863 -3.7472  3.5706  0.9572
29234SOL     OW90239   5.906   5.746   4.117  0.5503  0.1498  0.0476
29234SOL    HW190240   5.812   5.763   4.118  0.7219  1.1283  0.1694
29234SOL    HW290241   5.925   5.724   4.026  0.5089  1.7771 -0.3674
29235SOL     OW90242   0.258   5.087   0.863 -0.1165 -0.2189 -0.1503
29235SOL    HW190243   0.344   5.078   0.823 -0.5638 -2.9277 -0.6321
29235SOL    HW290244   0.205   5.132   0.797  0.8644  1.3566  0.1078
29236SOL     OW90245   0.323   4.093   0.744  0.0140 -0.5224  0.8484
29236SOL    HW190246   0.382   4.168   0.743 -2.3090  1.3201  0.1528
29236SOL    HW290247   0.305   4.078   0.837 -0.4749  0.5440  0.9296
29237SOL     OW90248   0.564   6.617   6.315  0.3597 -0.1815 -0.4533
29237SOL    HW190249   0.532   6.593   6.228 -0.4598 -0.1920 -0.1493
29237SOL    HW290250   0.658   6.629   6.303  0.0067  1.4244 -1.6971
29238SOL     OW90251   9.860   4.172   0.700 -0.3556  0.6586 -0.2181
29238SOL    HW190252   9.931   4.142   0.756 -2.1488  0.2375  1.8743
29238SOL    HW290253   9.873   4.267   0.693  0.8990  0.4705 -0.5879
29239SOL     OW90254   3.889   3.058   6.406 -0.0087 -0.3730  0.2513
29239SOL    HW190255   3.809   3.092   6.446 -0.0881 -0.4700  0.1747
29239SOL    HW290256   3.927   3.001   6.473  0.1221 -0.1336  0.3788
29240SOL     OW90257   9.615   1.360   5.667 -0.6444 -0.1263 -0.0071
29240SOL    HW190258   9.675   1.341   5.595  0.3842 -1.0962  1.0752
29240SOL    HW290259   9.665   1.340   5.746 -2.3726 -0.9414  0.9279
29241SOL     OW90260   9.084   9.645   7.110  0.5251 -0.0316 -0.4465
29241SOL    HW190261   9.011   9.582   7.101  1.9516 -1.7880 -0.0402
29241SOL    HW290262   9.090   9.660   7.204  0.0116  0.9447 -0.5670
29242SOL     OW90263   5.056   3.642   1.945  0.0359 -0.5216  0.3223
29242SOL    HW190264   5.017   3.572   1.997  0.2455 -0.1461  0.9993
29242SOL    HW290265   5.144   3.653   1.983  0.3345 -0.5083 -0.3664
29243SOL     OW90266   7.670   4.439   9.708 -0.2412  0.1240  0.4927
29243SOL    HW190267   7.668   4.491   9.788  1.2735  1.6909 -0.4495
29243SOL    HW290268   7.606   4.480   9.650  1.1344  1.1271 -0.3440
29244SOL     OW90269   9.226   2.896   9.137  0.0473 -0.4957 -0.1804
29244SOL    HW190270   9.217   2.932   9.226  1.2660 -0.2079 -0.1534
29244SOL    HW290271   9.188   2.809   9.142  0.5417 -0.6666  0.7644
29245SOL     OW90272   4.664   1.086   0.714  0.6304  0.1816  0.4247
29245SOL    HW190273   4.641   1.018   0.650 -0.0871 -0.2163  1.1030
29245SOL    HW290274   4.755   1.109   0.692  1.3157 -1.8629  0.9460
29246SOL     OW90275   4.276   4.937   5.630  0.4743  0.9285  0.0890
29246SOL    HW190276   4.212   4.995   5.671  0.6968  1.0704  0.2283
29246SOL    HW290277   4.300   4.875   5.699  1.3734  1.5958  0.3678
29247SOL     OW90278   0.289   9.988   6.960 -0.4833 -0.5525  0.4198
29247SOL    HW190279   0.370  10.041   6.956 -0.1810 -1.1336 -1.2445
29247SOL    HW290280   0.260   9.997   7.051  1.0136  0.3330  0.8340
29248SOL     OW90281   3.987   3.289   6.045 -0.5354  0.0313 -0.5303
29248SOL    HW190282   4.072   3.273   6.086 -0.1603  0.4925 -1.1226
29248SOL    HW290283   3.964   3.379   6.069 -1.1166 -0.2745  0.0835
29249SOL     OW90284   1.059   7.653   3.160  0.3425 -0.6014 -0.1385
29249SOL    HW190285   1.138   7.631   3.210  0.2589 -2.1827 -0.6980
29249SOL    HW290286   1.090   7.665   3.070 -0.0672 -1.2731 -0.3687
29250SOL     OW90287   5.438   4.641   0.528 -0.1264  0.2176 -0.2189
29250SOL    HW190288   5.359   4.605   0.489  0.7646 -0.5266 -1.3783
29250SOL    HW290289   5.503   4.639   0.458  0.6308  1.8053  0.4059
29251SOL     OW90290   5.890   2.173   2.682 -0.0976 -0.5464 -0.5333
29251SOL    HW190291   5.795   2.166   2.695  0.0218  0.3200  0.9181
29251SOL    HW290292   5.904   2.264   2.656  0.3612 -0.6016 -0.4830
29252SOL     OW90293   5.344   5.524   7.421  0.3468  0.1148 -0.2987
29252SOL    HW190294   5.373   5.586   7.489  1.3543  0.2533 -0.8399
29252SOL    HW290295   5.368   5.438   7.456 -2.2703 -0.0886  1.0525
29253SOL     OW90296   8.886   4.793   0.751 -0.3156 -0.0478  0.0666
29253SOL    HW190297   8.794   4.816   0.758 -0.1723  0.6292 -0.2532
29253SOL    HW290298   8.929   4.845   0.820 -0.4590 -2.0018  1.6767
29254SOL     OW90299   0.361   7.134   1.013  0.7651 -0.0343  0.3069
29254SOL    HW190300   0.422   7.111   1.084  0.4567 -1.5684  0.0901
29254SOL    HW290301   0.279   7.154   1.058  0.3684 -1.6947  0.3619
29255SOL     OW90302   7.623   1.487   9.586 -0.4641  0.2384 -0.2119
29255SOL    HW190303   7.707   1.525   9.561 -0.0634  0.0497  0.7866
29255SOL    HW290304   7.593   1.440   9.508 -0.0739  1.0576 -0.8598
29256SOL     OW90305   4.519   7.259   0.962 -0.2672  0.7001  0.0403
29256SOL    HW190306   4.557   7.240   1.047 -1.4531 -2.2307 -0.0321
29256SOL    HW290307   4.591   7.300   0.912  0.9931  0.6834  1.7985
29257SOL     OW90308   5.781   9.689   2.251  0.2539  0.0980 -0.2164
29257SOL    HW190309   5.712   9.633   2.288  1.2650 -0.8613  0.2538
29257SOL    HW290310   5.746   9.777   2.257 -0.9663 -0.3890 -0.0343
29258SOL     OW90311   0.761   9.291   6.812  0.2765  0.2839  0.3767
29258SOL    HW190312   0.816   9.363   6.781 -0.3392  0.6321  0.0797
29258SOL    HW290313   0.699   9.332   6.872  1.2629 -0.3318  1.8592
29259SOL     OW90314   5.172   6.528   9.875  0.0498 -0.2098 -0.4491
29259SOL    HW190315   5.105   6.480   9.924 -0.4308 -0.2946 -1.1850
29259SOL    HW290316   5.213   6.463   9.818  0.2308  0.0003 -0.5627
29260SOL     OW90317   7.593   1.307   5.242 -0.1273  0.4081  0.5350
29260SOL    HW190318   7.512   1.270   5.278  0.3460  0.6869  1.9052
29260SOL    HW290319   7.655   1.305   5.315  0.6987  1.4752 -0.1281
29261SOL     OW90320   9.513   6.399   5.890 -0.2242 -0.2808 -0.3693
29261SOL    HW190321   9.504   6.319   5.942 -2.0397 -0.1686 -0.4732
29261SOL    HW290322   9.607   6.419   5.892  0.2379 -2.3842 -0.3153
29262SOL     OW90323   8.412   7.127   6.208  0.3614 -0.2351 -0.3866
29262SOL    HW190324   8.324   7.124   6.171  0.3689  0.9342 -0.5143
29262SOL    HW290325   8.433   7.220   6.214  1.7902 -0.5150 -0.8256
29263SOL     OW90326   5.738   8.724   8.638  0.2789  0.0459  0.0507
29263SOL    HW190327   5.790   8.720   8.718  1.5593 -0.7584 -0.8153
29263SOL    HW290328   5.649   8.744   8.668  0.9340  0.7100  1.5918
29264SOL     OW90329   9.778   6.741   4.866  0.1207  0.5062 -0.1141
29264SOL    HW190330   9.683   6.746   4.852 -0.0101 -1.6535 -0.1317
29264SOL    HW290331   9.788   6.722   4.959  0.5027  0.1120 -0.2331
29265SOL     OW90332   2.102   7.747   4.106 -0.0158 -0.4344  0.1960
29265SOL    HW190333   2.191   7.735   4.072 -0.1365  0.5332 -0.4802
29265SOL    HW290334   2.048   7.693   4.049 -0.1005  0.4812 -0.6093
29266SOL     OW90335   0.952   6.696   8.100 -0.1139  0.6953 -0.2315
29266SOL    HW190336   0.942   6.643   8.021  0.6686 -0.4245  0.3986
29266SOL    HW290337   0.862   6.711   8.131 -0.3760  0.4123 -0.8588
29267SOL     OW90338   9.130   0.994   5.292 -0.0502 -0.0383 -0.3505
29267SOL    HW190339   9.182   1.073   5.275 -0.4596 -0.3455 -3.2718
29267SOL    HW290340   9.066   1.021   5.358  0.7263  1.6667 -0.2624
29268SOL     OW90341   7.990   4.093   6.353 -0.1258 -0.3433  0.1418
29268SOL    HW190342   7.939   4.026   6.399 -1.6195  0.9243  0.3825
29268SOL    HW290343   7.936   4.172   6.358  0.0543  0.0533 -3.0686
29269SOL     OW90344   0.734   9.778   0.827  0.0856 -0.2142 -0.0875
29269SOL    HW190345   0.646   9.760   0.793  0.2656  0.2758 -0.8356
29269SOL    HW290346   0.727   9.864   0.868  0.1804 -0.2428 -0.0130
29270SOL     OW90347   3.835   3.984   3.723 -0.5607  0.4732 -0.0283
29270SOL    HW190348   3.920   3.986   3.766 -1.5418  2.0683  1.8917
29270SOL    HW290349   3.836   3.902   3.673  1.5031 -0.2739  1.1649
29271SOL     OW90350   2.744   7.049   5.075 -0.3974 -0.7829 -0.3289
29271SOL    HW190351   2.672   7.079   5.019 -0.4465 -0.8281 -0.2906
29271SOL    HW290352   2.731   6.954   5.082 -1.1247 -0.6147  0.7700
29272SOL     OW90353   3.631   4.169   2.300  0.0708  0.1801  0.1289
29272SOL    HW190354   3.622   4.196   2.391 -1.4170  1.8584 -0.5025
29272SOL    HW290355   3.559   4.213   2.254  1.1878 -0.1209 -1.9680
29273SOL     OW90356   3.310   8.294   3.146 -0.2813  0.2100  0.3601
29273SOL    HW190357   3.385   8.328   3.196  0.0674 -0.5460  0.3626
29273SOL    HW290358   3.308   8.200   3.167  0.3835 -0.2837 -1.7005
29274SOL     OW90359   8.960   4.018   3.937  0.2118  0.3781  0.4743
29274SOL    HW190360   8.978   3.999   4.029 -0.6888 -2.8213  0.0434
29274SOL    HW290361   8.897   3.950   3.910 -0.8318  2.2504 -2.0509
29275SOL     OW90362   7.982   8.588   5.619  0.0508 -0.3020  0.1128
29275SOL    HW190363   8.015   8.510   5.574  0.6655  0.5868 -1.0055
29275SOL    HW290364   8.061   8.638   5.641 -0.2689 -0.5210  1.8373
29276SOL     OW90365  10.157   2.436   7.251 -0.2034  0.2162 -0.3186
29276SOL    HW190366  10.141   2.483   7.170  2.8091  3.1662  0.7031
29276SOL    HW290367  10.229   2.376   7.232  0.5461  0.9515  0.1548
29277SOL     OW90368   2.993   5.970   2.147  0.3943  0.4721  0.0882
29277SOL    HW190369   3.051   6.005   2.079  1.2987 -0.5644  0.3075
29277SOL    HW290370   3.020   5.879   2.157  0.6617  0.7443  2.2248
29278SOL     OW90371   1.126   8.428   0.110 -0.2062 -0.0455 -0.4265
29278SOL    HW190372   1.152   8.362   0.045 -0.6391 -0.9400  0.2960
29278SOL    HW290373   1.173   8.507   0.084 -1.6711  0.0943 -2.8345
29279SOL     OW90374   9.567   2.421   1.586  0.0567  0.2177 -0.1344
29279SOL    HW190375   9.496   2.483   1.603  0.4708  0.7601 -0.3797
29279SOL    HW290376   9.560   2.357   1.656 -1.7281 -0.6677 -1.0682
29280SOL     OW90377   4.509   3.747   2.692  0.4612  0.0593  0.4348
29280SOL    HW190378   4.439   3.796   2.649  0.6377  0.0838  0.1744
29280SOL    HW290379   4.464   3.693   2.756  0.2712  0.6157  0.7750
29281SOL     OW90380   1.773   3.170  10.130  0.0433 -0.2105 -0.2733
29281SOL    HW190381   1.821   3.157  10.211  0.5529 -0.9749 -0.6982
29281SOL    HW290382   1.814   3.247  10.090 -1.2056  1.1097  0.9207
29282SOL     OW90383   5.637   4.004   1.835  0.0947 -0.0656 -0.2922
29282SOL    HW190384   5.713   4.063   1.835  0.0594 -0.0172  0.2214
29282SOL    HW290385   5.567   4.054   1.794  0.4289 -0.2254 -1.0615
29283SOL     OW90386   7.299   9.398   2.808 -0.4588 -0.2752  0.2436
29283SOL    HW190387   7.347   9.324   2.772 -1.7466  0.4042 -2.9985
29283SOL    HW290388   7.239   9.360   2.871  0.7552 -1.6706  0.5857
29284SOL     OW90389   6.076   1.317   4.118  0.2997 -0.2652 -0.3909
29284SOL    HW190390   5.991   1.322   4.075 -0.4236 -0.5754  0.9746
29284SOL    HW290391   6.073   1.235   4.167  1.6904 -0.6726 -0.9489
29285SOL     OW90392   1.410   1.153   8.616 -0.2222  0.3986  0.0152
29285SOL    HW190393   1.498   1.126   8.644  0.2070 -0.3348 -1.9454
29285SOL    HW290394   1.364   1.070   8.599 -1.0813  0.7906  0.3966
29286SOL     OW90395   5.457   2.707   3.726 -0.3015 -0.4269  0.6089
29286SOL    HW190396   5.453   2.721   3.821  0.2236 -0.3427  0.6224
29286SOL    HW290397   5.466   2.794   3.689  2.4850 -0.6214  0.6672
29287SOL     OW90398   3.928   4.379   0.775 -0.8707  0.5325 -0.0377
29287SOL    HW190399   3.861   4.313   0.759  0.4266 -1.0105  0.7168
29287SOL    HW290400   4.009   4.338   0.744  0.0352  1.5575  0.9278
29288SOL     OW90401   6.637   9.825   6.427 -0.2259 -0.4115  0.1490
29288SOL    HW190402   6.656   9.910   6.467  0.8925 -0.5266 -0.1318
29288SOL    HW290403   6.712   9.771   6.449 -1.0906 -1.4416  0.6184
29289SOL     OW90404   4.485   0.381   9.894 -0.1882 -0.2921 -0.2614
29289SOL    HW190405   4.413   0.350   9.948  0.3791 -0.5624  0.3466
29289SOL    HW290406   4.510   0.465   9.931 -1.2688  0.5886 -1.4868
29290SOL     OW90407   9.074   0.346   1.331  0.1397 -0.0901 -0.0754
29290SOL    HW190408   8.991   0.359   1.287  0.8724  3.0243 -0.6479
29290SOL    HW290409   9.133   0.311   1.263  0.1914  0.8907 -0.5376
29291SOL     OW90410   6.525   7.067   1.786  0.6954 -0.0335 -0.3732
29291SOL    HW190411   6.447   7.062   1.841  1.1789 -0.3829  0.2741
29291SOL    HW290412   6.490   7.076   1.697 -0.0817  0.2697 -0.0429
29292SOL     OW90413   8.396   6.479   6.024 -0.5064 -0.2279  0.7379
29292SOL    HW190414   8.459   6.550   6.017  0.0937 -0.6283  2.0349
29292SOL    HW290415   8.427   6.413   5.961  0.3980 -0.4526  1.4211
29293SOL     OW90416   6.129   0.270   0.110  0.1340  0.4877 -0.0092
29293SOL    HW190417   6.118   0.340   0.046 -1.3478 -0.1189 -0.4301
29293SOL    HW290418   6.062   0.287   0.176 -0.4778 -0.7248 -0.3056
29294SOL     OW90419   3.165   7.758   0.320 -0.6156  0.0375  0.0046
29294SOL    HW190420   3.175   7.841   0.367  0.1727  0.5434 -1.0556
29294SOL    HW290421   3.132   7.782   0.234  1.1887 -0.5966 -0.8945
29295SOL     OW90422   8.109   9.183   0.525  0.0979 -0.2660 -0.3472
29295SOL    HW190423   8.136   9.196   0.434  0.1789 -0.6453 -0.3790
29295SOL    HW290424   8.173   9.121   0.560  0.4425  0.3626  0.1503
29296SOL     OW90425   0.530   6.024   6.314 -0.7708  0.2317 -0.1358
29296SOL    HW190426   0.437   6.016   6.294 -1.0137  3.5105 -0.6571
29296SOL    HW290427   0.533   6.069   6.398  0.3370  0.0933 -0.0951
29297SOL     OW90428   8.972   5.403   8.790  0.5063 -0.3849 -0.3349
29297SOL    HW190429   9.002   5.467   8.855  3.5338 -2.9179  0.8859
29297SOL    HW290430   8.928   5.335   8.841  1.2649 -1.4745 -1.0927
29298SOL     OW90431   2.836  10.118   8.657 -0.4247 -0.1912 -0.3927
29298SOL    HW190432   2.825  10.048   8.593 -1.4167 -1.2675  0.9093
29298SOL    HW290433   2.746  10.141   8.682 -0.0347 -0.2148  1.0528
29299SOL     OW90434   0.631   4.878   8.603  0.4222  0.2737 -0.1325
29299SOL    HW190435   0.632   4.803   8.662  1.3482 -0.5724 -1.2007
29299SOL    HW290436   0.639   4.954   8.660  0.2368 -0.4774  0.9017
29300SOL     OW90437   7.971   5.093   3.930 -0.0123 -0.2964 -0.4754
29300SOL    HW190438   7.992   5.040   4.006  0.4219  0.6155  0.0496
29300SOL    HW290439   7.924   5.034   3.871  1.8727 -1.7071 -0.5999
29301SOL     OW90440   2.898   6.059   9.199 -0.1301 -0.2759  0.4606
29301SOL    HW190441   2.919   5.966   9.211 -2.7195 -0.9207  0.2521
29301SOL    HW290442   2.803   6.064   9.213 -0.2752  2.0746 -1.1808
29302SOL     OW90443   5.002   9.558   7.220 -0.0497 -0.6252  0.7907
29302SOL    HW190444   4.935   9.595   7.278 -0.0327  0.6562  0.0077
29302SOL    HW290445   5.079   9.613   7.236 -0.4215  0.5625 -1.3924
29303SOL     OW90446   7.087   7.720   8.775 -0.1452  0.7427 -0.6220
29303SOL    HW190447   7.176   7.754   8.767 -0.2455  1.4407  1.0330
29303SOL    HW290448   7.034   7.797   8.793 -1.0077  0.2473 -1.0008
29304SOL     OW90449   9.823   6.018   4.112 -0.2404  0.0474 -0.0050
29304SOL    HW190450   9.913   6.025   4.144 -0.6306  2.1586  0.6924
29304SOL    HW290451   9.828   5.955   4.040  1.5028 -1.0936  1.0823
29305SOL     OW90452   5.561   0.814   4.581 -0.0217  0.1949  0.1340
29305SOL    HW190453   5.499   0.886   4.595  1.2272  1.0482  1.4402
29305SOL    HW290454   5.507   0.735   4.585 -0.9255  0.8633  2.1868
29306SOL     OW90455   3.543   0.186   3.371  0.5173 -0.2459 -0.0034
29306SOL    HW190456   3.469   0.125   3.379  0.9687 -0.8253 -0.2172
29306SOL    HW290457   3.563   0.187   3.277 -1.3885  2.5089 -0.4473
29307SOL     OW90458   8.344   1.620   2.714  0.4588 -0.0674 -0.2440
29307SOL    HW190459   8.356   1.533   2.677 -0.3834 -0.0540 -0.5770
29307SOL    HW290460   8.300   1.605   2.798  0.6649  0.0125 -0.1220
29308SOL     OW90461   5.348   5.958   7.507  0.9200 -0.2641 -0.6415
29308SOL    HW190462   5.342   6.029   7.570  0.9550 -0.1743 -0.7391
29308SOL    HW290463   5.414   5.988   7.444  1.0326 -0.4401 -0.6083
29309SOL     OW90464   5.634   2.934   5.253 -0.6006  0.4204  0.7121
29309SOL    HW190465   5.728   2.918   5.247 -0.5768  0.5095  0.8477
29309SOL    HW290466   5.597   2.850   5.281 -0.7367 -0.0716 -0.9064
29310SOL     OW90467   1.056   0.581   9.980 -0.8340 -0.3898 -0.4178
29310SOL    HW190468   1.084   0.491   9.964 -0.2738 -0.5330  1.2030
29310SOL    HW290469   1.137   0.627  10.002 -1.2954  0.1966  0.0655
29311SOL     OW90470   0.770   5.928   5.534 -0.0555 -0.1029 -0.2190
29311SOL    HW190471   0.828   5.905   5.461 -0.6396  0.0434 -0.7413
29311SOL    HW290472   0.776   5.854   5.594  0.5090 -0.1823 -0.3723
29312SOL     OW90473   5.297   7.132   9.158 -0.5458 -0.2947  0.1482
29312SOL    HW190474   5.227   7.188   9.126  0.7140 -0.4274 -3.0418
29312SOL    HW290475   5.298   7.146   9.253 -2.7719  2.0901 -0.1328
29313SOL     OW90476   0.324   6.697   2.697 -0.8323 -0.7071 -0.2308
29313SOL    HW190477   0.300   6.652   2.616  0.0568  1.1701 -1.5896
29313SOL    HW290478   0.401   6.650   2.729  0.7187  0.4182 -2.1851
29314SOL     OW90479   9.639   1.421   0.465 -0.2980 -0.3079  0.0402
29314SOL    HW190480   9.725   1.391   0.436 -0.5420  0.0153 -1.0494
29314SOL    HW290481   9.580   1.399   0.393 -0.9136  0.5206  0.2800
29315SOL     OW90482   1.424   7.294   5.873  0.0971 -0.3573  0.1488
29315SOL    HW190483   1.514   7.288   5.842  0.3331  0.0743  0.7564
29315SOL    HW290484   1.382   7.353   5.810 -0.2323 -1.9866 -1.1983
29316SOL     OW90485   7.987  10.071   4.797 -0.0913 -0.0216 -0.1543
29316SOL    HW190486   7.989   9.992   4.851 -0.0496 -0.4237 -0.7332
29316SOL    HW290487   7.894  10.090   4.786 -0.1170 -0.3496 -0.5248
29317SOL     OW90488   8.786   9.740   9.188 -0.0331  0.2672  0.4171
29317SOL    HW190489   8.707   9.687   9.200 -1.9247  2.9980  0.7310
29317SOL    HW290490   8.789   9.797   9.265  3.7656 -1.5430  1.7054
29318SOL     OW90491   1.005   3.778   9.016  0.0396 -0.1730  0.1415
29318SOL    HW190492   0.990   3.733   8.933  0.4144  0.6059 -0.3558
29318SOL    HW290493   0.987   3.870   8.998  1.9231  0.2853  0.4226
29319SOL     OW90494   1.295   5.606   2.643 -0.3067  0.0346 -0.4636
29319SOL    HW190495   1.285   5.619   2.549 -2.1642 -0.7376 -0.4105
29319SOL    HW290496   1.253   5.521   2.660  1.2443 -0.4965  0.8516
29320SOL     OW90497   2.951   4.120   7.162  0.1317 -0.3409 -0.3847
29320SOL    HW190498   2.873   4.159   7.123 -1.3408 -1.3846  1.4269
29320SOL    HW290499   3.017   4.124   7.093 -1.9522 -0.7584 -2.4766
29321SOL     OW90500   5.160   3.226   1.458 -0.8823 -0.0911 -0.2353
29321SOL    HW190501   5.220   3.176   1.512  0.3451  0.1711 -1.3156
29321SOL    HW290502   5.158   3.178   1.375  0.2194  1.5454 -1.2397
29322SOL     OW90503   9.047   7.148   8.642 -0.1031  0.2710  0.2398
29322SOL    HW190504   9.081   7.074   8.692  1.1879  0.6021 -0.1316
29322SOL    HW290505   9.031   7.216   8.707 -0.3469  0.0106  0.4540
29323SOL     OW90506   7.853   7.962   5.541 -0.1082 -0.1088  0.0747
29323SOL    HW190507   7.944   7.945   5.566 -0.3781 -2.0456 -0.1899
29323SOL    HW290508   7.836   7.902   5.469 -0.9140  1.8435 -1.4205
29324SOL     OW90509   9.399   8.862   2.362 -0.3774 -0.4233  0.3688
29324SOL    HW190510   9.359   8.783   2.324 -2.0356  0.8883 -0.7216
29324SOL    HW290511   9.493   8.848   2.353 -0.6749 -1.2856 -1.9910
29325SOL     OW90512   5.322   6.574   5.189 -0.4801  0.0140 -0.0002
29325SOL    HW190513   5.397   6.581   5.249  0.9898  0.6454 -1.8512
29325SOL    HW290514   5.341   6.638   5.120 -2.3881 -0.3331 -0.8735
29326SOL     OW90515   9.837   6.188   6.554 -0.2498 -0.5961  0.0738
29326SOL    HW190516   9.926   6.187   6.520  0.2121 -0.7118  1.2562
29326SOL    HW290517   9.827   6.104   6.599  0.0800  0.6063  2.4949
29327SOL     OW90518   4.572   5.714   9.419 -0.0782 -0.1129 -0.2347
29327SOL    HW190519   4.596   5.697   9.509  0.7328 -1.5046 -0.7065
29327SOL    HW290520   4.478   5.735   9.423  0.0831  0.4073  0.9804
29328SOL     OW90521   4.704   1.427   9.312 -0.2064 -0.1011 -0.3262
29328SOL    HW190522   4.789   1.385   9.300 -0.3853 -0.7763  0.6673
29328SOL    HW290523   4.675   1.449   9.224  0.3641 -1.1596 -0.7874
29329SOL     OW90524   3.073   9.134   9.433  0.1843  0.6123 -0.2999
29329SOL    HW190525   2.997   9.154   9.379 -0.2783 -0.8324 -0.2193
29329SOL    HW290526   3.125   9.075   9.378  0.1884 -0.0905  0.4511
29330SOL     OW90527  10.045   9.241   6.418 -0.8426  0.0628  0.4341
29330SOL    HW190528  10.113   9.291   6.464 -2.1250  2.3621 -0.0794
29330SOL    HW290529  10.080   9.227   6.330  0.0658 -1.1040  0.9743
29331SOL     OW90530   4.812   8.825   5.066 -0.0989  0.7288 -0.3480
29331SOL    HW190531   4.808   8.868   4.980  0.5260 -1.6422 -1.6228
29331SOL    HW290532   4.903   8.798   5.075 -1.0918 -3.0990 -1.0521
29332SOL     OW90533   5.313   6.025   4.751  0.2044 -0.4489  0.4955
29332SOL    HW190534   5.328   6.008   4.844 -1.6676 -0.1414  0.8601
29332SOL    HW290535   5.224   5.996   4.734 -0.0457  1.0038 -0.8432
29333SOL     OW90536   3.160   7.633  10.083 -0.0025  0.1549  0.1103
29333SOL    HW190537   3.241   7.599  10.119 -0.6082 -1.3995  0.0165
29333SOL    HW290538   3.186   7.714  10.038  2.0875 -2.1182 -2.9435
29334SOL     OW90539   3.039   3.845   7.161 -0.4650 -0.0614  0.6344
29334SOL    HW190540   3.005   3.928   7.194 -0.9875 -0.3108  0.7274
29334SOL    HW290541   3.086   3.807   7.235  1.9708  1.3107 -0.1202
29335SOL     OW90542   4.029   1.251   4.789  0.0021  0.1142  0.5558
29335SOL    HW190543   3.989   1.217   4.709  0.0719  0.3099  0.4371
29335SOL    HW290544   3.955   1.286   4.840  0.2141  2.0937 -0.4551
29336SOL     OW90545   6.325   3.331   1.493 -0.0234  0.1877 -0.1707
29336SOL    HW190546   6.325   3.308   1.586 -0.7182 -0.1457 -0.2544
29336SOL    HW290547   6.417   3.350   1.474  0.1912 -0.1676  0.4811
29337SOL     OW90548   9.428   1.307   1.904 -0.3234  0.0991 -0.1356
29337SOL    HW190549   9.423   1.302   1.809  1.1648  0.9799 -0.2638
29337SOL    HW290550   9.429   1.401   1.923 -0.7058 -0.0719  0.7619
29338SOL     OW90551   4.989   6.218   4.528  0.2909  0.3198 -0.1521
29338SOL    HW190552   4.923   6.227   4.597  1.3676  4.0322  0.5206
29338SOL    HW290553   4.940   6.229   4.446 -0.2291  1.0618  0.2514
29339SOL     OW90554   9.807   5.313   6.977 -0.1398  0.5614  0.0449
29339SOL    HW190555   9.891   5.355   6.995 -0.1168  0.5945 -0.1411
29339SOL    HW290556   9.814   5.280   6.888 -0.3985  0.7511 -0.0502
29340SOL     OW90557   8.892   6.592   1.221  0.3272 -0.2232  0.5284
29340SOL    HW190558   8.821   6.656   1.220  0.9829  0.5049 -0.5222
29340SOL    HW290559   8.971   6.644   1.208  0.9942 -1.1042  0.9636
29341SOL     OW90560   9.345   2.579   9.306  0.7782  0.1827 -0.3712
29341SOL    HW190561   9.401   2.598   9.382  0.9581 -0.5249 -0.3180
29341SOL    HW290562   9.394   2.514   9.256 -0.6329 -1.5979  0.4682
29342SOL     OW90563   8.896   2.652   3.085 -0.2555 -0.2641  0.4123
29342SOL    HW190564   8.917   2.618   2.998  3.4507  1.4637  0.5162
29342SOL    HW290565   8.931   2.587   3.145  0.0899  0.0850  0.5940
29343SOL     OW90566   3.049   0.989   3.730  0.2362 -0.1386  0.7034
29343SOL    HW190567   3.136   1.000   3.693  1.3171 -0.9842  2.8970
29343SOL    HW290568   3.032   0.895   3.724 -0.9155  0.1296 -0.5143
29344SOL     OW90569   2.608   0.330   1.890 -0.0379  0.1444  0.1900
29344SOL    HW190570   2.605   0.243   1.852  0.6199 -0.0285  0.5225
29344SOL    HW290571   2.692   0.366   1.860  0.6524 -0.1238  1.7495
29345SOL     OW90572   4.716   9.832   4.636  0.1811  0.8195  0.6227
29345SOL    HW190573   4.761   9.822   4.720  0.3185 -2.6277  0.2284
29345SOL    HW290574   4.628   9.862   4.659  0.8502  1.8529  1.8471
29346SOL     OW90575   2.613   0.771   2.946 -0.1430  0.0067  0.1707
29346SOL    HW190576   2.553   0.716   2.894 -2.3447  2.4392  0.0271
29346SOL    HW290577   2.571   0.777   3.032  0.2883  1.1597  0.3015
29347SOL     OW90578   5.645   6.127   6.099 -0.2292 -0.0008 -0.3480
29347SOL    HW190579   5.593   6.051   6.126  0.3106 -0.1713  0.2324
29347SOL    HW290580   5.624   6.139   6.007  0.1454 -1.2280 -0.6041
29348SOL     OW90581   9.891   6.412   9.010  0.5593 -0.1852  0.9070
29348SOL    HW190582   9.942   6.490   9.028  0.9599 -0.5385  1.3172
29348SOL    HW290583   9.956   6.342   9.001  0.1641 -0.6104  1.3077
29349SOL     OW90584   7.590   3.699   3.434 -0.0203 -0.0616 -0.4519
29349SOL    HW190585   7.545   3.656   3.362 -0.3993  2.3662 -1.7292
29349SOL    HW290586   7.645   3.631   3.472 -1.8134 -2.0701 -1.3293
29350SOL     OW90587   8.566   4.838   6.695 -0.1667  0.2525 -0.0772
29350SOL    HW190588   8.615   4.916   6.668 -1.2451  0.8934 -0.2011
29350SOL    HW290589   8.479   4.850   6.657 -0.6211 -0.5592  0.6904
29351SOL     OW90590   5.764   4.185   1.236  0.1313 -0.7892  0.3546
29351SOL    HW190591   5.780   4.221   1.149 -2.0316 -0.6007 -0.0095
29351SOL    HW290592   5.768   4.090   1.224 -0.4146 -0.7692 -0.0293
29352SOL     OW90593   5.189  10.158   9.908  0.9903  0.1493  0.3970
29352SOL    HW190594   5.153  10.176   9.995 -0.1997  1.4687 -0.3553
29352SOL    HW290595   5.242  10.079   9.920  0.7768  0.2701  2.2993
29353SOL     OW90596   5.099   5.811   2.935  0.5405 -0.0948 -0.1872
29353SOL    HW190597   5.017   5.848   2.903  0.4946  0.6092  0.7200
29353SOL    HW290598   5.072   5.748   3.002  0.7125 -0.2310 -0.2459
29354SOL     OW90599   0.162   1.712   9.705  1.2844  0.3705  0.3467
29354SOL    HW190600   0.093   1.646   9.699  1.8029 -0.1396 -0.0649
29354SOL    HW290601   0.243   1.663   9.694  1.7526  0.8768  1.4234
29355SOL     OW90602   4.820   3.466   5.624 -0.3360 -0.0798  0.2048
29355SOL    HW190603   4.811   3.480   5.530 -1.6128  0.6032  0.4165
29355SOL    HW290604   4.807   3.371   5.636 -0.0888 -0.1764 -0.3170
29356SOL     OW90605   8.101   4.347   4.770 -0.1327  0.3756  0.3502
29356SOL    HW190606   8.162   4.397   4.716  1.6230 -0.3334  1.5894
29356SOL    HW290607   8.098   4.396   4.853 -0.1528 -0.3409  0.7757
29357SOL     OW90608   5.262   0.378   2.720  0.4766 -0.3092 -0.0925
29357SOL    HW190609   5.213   0.403   2.799  0.3825 -1.6306  0.2695
29357SOL    HW290610   5.194   0.352   2.657  0.5228  1.1448 -0.7696
29358SOL     OW90611   7.797   1.379   3.737  0.7070 -0.1214 -0.5440
29358SOL    HW190612   7.847   1.375   3.819 -0.7146  2.5221  0.4994
29358SOL    HW290613   7.863   1.389   3.669  1.8919 -2.1305  0.2523
29359SOL     OW90614   5.623   5.018   3.716 -0.0302 -0.7070 -0.3663
29359SOL    HW190615   5.576   5.012   3.799  1.8306 -0.1995  0.7464
29359SOL    HW290616   5.587   4.947   3.663 -0.4229 -1.7746  1.2939
29360SOL     OW90617   1.245   9.399   3.309 -0.0920  0.2673  0.5225
29360SOL    HW190618   1.313   9.340   3.276 -0.6321 -0.1767  0.1873
29360SOL    HW290619   1.281   9.487   3.297  0.5807  0.0218  0.7070
29361SOL     OW90620   5.683   1.272   5.799  0.1081  0.1430  0.2773
29361SOL    HW190621   5.740   1.310   5.732 -0.7357  1.2555  0.1923
29361SOL    HW290622   5.724   1.188   5.819  2.8281  1.6923  1.5283
29362SOL     OW90623   0.016   3.858   2.884 -0.1171  0.8890  0.1461
29362SOL    HW190624   0.044   3.767   2.895 -0.0017  0.9014 -0.0473
29362SOL    HW290625  -0.002   3.889   2.973 -2.3741 -0.0346  0.0482
29363SOL     OW90626   0.600   1.954   8.329  0.1027  0.4347  0.6250
29363SOL    HW190627   0.532   1.959   8.396 -1.6468 -1.0048 -0.9740
29363SOL    HW290628   0.616   2.045   8.304 -0.2430  0.8773  1.9806
29364SOL     OW90629   0.916   1.687   8.232  0.3365  0.0442  0.8018
29364SOL    HW190630   0.896   1.780   8.227  0.5550  0.0950  0.8548
29364SOL    HW290631   0.922   1.669   8.326 -2.1132 -0.5456  0.8862
29365SOL     OW90632   9.315   9.432   4.308 -0.5901 -0.1917  0.4499
29365SOL    HW190633   9.400   9.389   4.324 -0.5514  0.2568  1.4697
29365SOL    HW290634   9.259   9.401   4.379 -0.4219  1.8175  1.5035
29366SOL     OW90635   8.504   3.861   6.166 -0.3230  0.1198 -0.3774
29366SOL    HW190636   8.586   3.890   6.207  0.0310 -1.5444  0.1606
29366SOL    HW290637   8.457   3.942   6.146  1.2089  1.0868 -0.1935
29367SOL     OW90638   3.928   9.651   1.766 -0.0809 -0.2514 -0.0646
29367SOL    HW190639   3.886   9.565   1.762 -0.0167 -0.3670  1.4292
29367SOL    HW290640   3.890   9.700   1.693 -1.1610 -1.0847 -0.0716
29368SOL     OW90641   3.928   5.147   6.957  0.2174 -0.0213 -0.0554
29368SOL    HW190642   3.958   5.083   7.022 -0.5698 -0.9961 -0.6298
29368SOL    HW290643   4.007   5.168   6.907  0.6909  0.2325  0.7752
29369SOL     OW90644   0.281   8.706   0.605  0.1583  0.6963 -0.2525
29369SOL    HW190645   0.367   8.691   0.566  0.0702  0.3651 -0.3216
29369SOL    HW290646   0.220   8.688   0.534 -0.0889 -1.7098  0.5407
29370SOL     OW90647   0.580   3.732   5.987 -0.0887  0.2107 -0.2121
29370SOL    HW190648   0.653   3.685   6.027  0.3139  1.2253  0.2515
29370SOL    HW290649   0.529   3.663   5.943  1.4053 -0.4466 -0.9636
29371SOL     OW90650   0.845   5.739   7.640 -0.5014 -0.1521 -0.0727
29371SOL    HW190651   0.873   5.662   7.591 -0.0651 -0.6494  0.9487
29371SOL    HW290652   0.871   5.721   7.730 -0.6757  1.0564  0.2281
29372SOL     OW90653   3.528   2.793   5.990  0.4514  0.3499  0.2290
29372SOL    HW190654   3.474   2.779   5.911  0.3662 -1.8398  0.6336
29372SOL    HW290655   3.615   2.812   5.956  0.9264 -2.7111 -0.4543
29373SOL     OW90656   9.105   2.322   7.121 -0.4210  0.4546  0.6594
29373SOL    HW190657   9.173   2.255   7.116 -1.1106 -0.1235 -1.2499
29373SOL    HW290658   9.146   2.394   7.171  0.9237 -0.6403  1.1762
29374SOL     OW90659   1.247   2.900   6.154 -0.4804  0.6894 -0.6164
29374SOL    HW190660   1.191   2.839   6.107  1.5840 -0.4627 -1.6304
29374SOL    HW290661   1.248   2.868   6.244 -0.3893 -0.0505 -0.8844
29375SOL     OW90662   0.035   9.299   8.464  0.0398 -0.4393  0.0144
29375SOL    HW190663   0.065   9.211   8.483 -3.2603 -1.8519 -0.9257
29375SOL    HW290664  -0.023   9.321   8.537 -0.1712  0.4113 -0.3987
29376SOL     OW90665   4.776   2.457   5.954  0.3428  0.1516  0.7375
29376SOL    HW190666   4.733   2.390   5.900 -1.8975  1.3364  0.9774
29376SOL    HW290667   4.845   2.410   6.000 -0.0576 -1.6233 -0.4147
29377SOL     OW90668   2.481   4.911   7.955  0.3683  0.4878  0.6716
29377SOL    HW190669   2.488   4.935   7.863 -1.6711 -2.3569 -0.3187
29377SOL    HW290670   2.410   4.966   7.989 -0.0888  0.2711  0.0689
29378SOL     OW90671   9.446   3.921   4.280  0.6205 -0.5086  0.1463
29378SOL    HW190672   9.467   3.841   4.327  0.7168 -0.2483  0.5536
29378SOL    HW290673   9.531   3.963   4.265  0.3871  0.6888  2.0546
29379SOL     OW90674   3.225   9.462   0.615  0.0698  0.8930 -0.1998
29379SOL    HW190675   3.172   9.416   0.550  0.4141 -0.8059  0.6996
29379SOL    HW290676   3.315   9.437   0.595  0.1820  0.3819  0.8864
29380SOL     OW90677   0.386   5.386   5.296  0.0636  0.5517  0.4140
29380SOL    HW190678   0.301   5.383   5.254  0.6703 -2.9815 -0.6911
29380SOL    HW290679   0.427   5.466   5.261 -0.9048 -0.3077 -2.8642
29381SOL     OW90680   7.734   5.307   3.571  0.1629 -0.5148  0.0487
29381SOL    HW190681   7.802   5.341   3.514 -0.7964  0.3969 -0.5767
29381SOL    HW290682   7.723   5.216   3.545  1.0419 -0.6298  0.0704
29382SOL     OW90683   0.347   0.723   7.136  0.1635 -0.3914 -0.2252
29382SOL    HW190684   0.277   0.660   7.118 -0.7950  0.0205  1.9413
29382SOL    HW290685   0.310   0.807   7.109 -0.7522  0.0281  2.2093
29383SOL     OW90686   5.848   9.568   7.045  0.4510  0.3704 -1.0468
29383SOL    HW190687   5.753   9.569   7.029  0.1178  1.8282  0.7743
29383SOL    HW290688   5.861   9.496   7.106  0.6000 -0.2117 -1.7657
29384SOL     OW90689   7.914   2.342   4.689  0.3840  0.0932  0.5698
29384SOL    HW190690   7.947   2.389   4.612 -1.0181  1.0531  0.5386
29384SOL    HW290691   7.964   2.378   4.762  0.1225  0.8226  0.3956
29385SOL     OW90692   6.808   4.793   4.010  0.3102 -0.0865  0.4646
29385SOL    HW190693   6.849   4.878   4.002 -0.4757  0.5153  2.5697
29385SOL    HW290694   6.880   4.731   4.017  0.8711  0.4468 -0.5202
29386SOL     OW90695   5.421   7.490   2.676 -0.1047  0.4492  0.0445
29386SOL    HW190696   5.510   7.479   2.709 -0.6109 -0.5990  1.0888
29386SOL    HW290697   5.373   7.527   2.750 -0.8779 -0.3834 -0.0388
29387SOL     OW90698   0.083   2.114   9.892  0.0254  0.0784 -0.1382
29387SOL    HW190699   0.168   2.093   9.853 -0.1522  1.0982 -1.0816
29387SOL    HW290700   0.027   2.041   9.866  1.2010 -1.8477  2.5103
29388SOL     OW90701   8.597   7.254   2.352  0.3835 -0.1343 -0.0741
29388SOL    HW190702   8.600   7.178   2.295  0.4921  0.1615 -0.4636
29388SOL    HW290703   8.685   7.292   2.347  0.9311 -1.1400  1.7091
29389SOL     OW90704   3.219   4.822   3.215 -0.7452 -0.3343  0.1920
29389SOL    HW190705   3.293   4.862   3.260 -1.0359  1.3718 -0.8052
29389SOL    HW290706   3.142   4.851   3.264 -0.8678 -0.7305  0.2348
29390SOL     OW90707   0.386   3.272   1.631  0.5747 -0.7785 -0.3802
29390SOL    HW190708   0.378   3.358   1.591  2.3649 -0.5348 -0.2375
29390SOL    HW290709   0.329   3.277   1.708 -0.3381 -0.1689 -1.0849
29391SOL     OW90710   8.426   5.350   2.172  0.3922  0.0267 -0.1498
29391SOL    HW190711   8.486   5.411   2.214  1.9729 -1.7107  0.2031
29391SOL    HW290712   8.464   5.264   2.188 -2.9981 -1.2985  1.4204
29392SOL     OW90713   1.516   9.942   8.370  0.4558  0.1228  0.0824
29392SOL    HW190714   1.442   9.982   8.415  1.1558 -0.2955  1.6332
29392SOL    HW290715   1.477   9.874   8.316 -0.5521  1.6072 -1.1172
29393SOL     OW90716  10.003   9.614   1.314  0.8368  0.1124  0.1820
29393SOL    HW190717   9.947   9.560   1.258  0.1673 -0.0563  1.0135
29393SOL    HW290718  10.092   9.595   1.284  0.5622 -1.0035  0.0708
29394SOL     OW90719   7.455   8.830   3.828  0.3498 -0.1744 -0.1921
29394SOL    HW190720   7.540   8.873   3.820 -1.1593  2.9214 -0.4659
29394SOL    HW290721   7.459   8.784   3.912  2.6268 -0.8913 -0.6747
29395SOL     OW90722   9.103   4.125   7.809  0.1906 -0.0196  0.2311
29395SOL    HW190723   9.167   4.195   7.823 -0.3211  0.3699  0.6511
29395SOL    HW290724   9.033   4.167   7.758 -1.1032  0.3533  2.2395
29396SOL     OW90725   8.765   1.391   5.347 -0.2162 -0.1542 -0.2916
29396SOL    HW190726   8.689   1.447   5.330  0.7758  1.0836 -0.6982
29396SOL    HW290727   8.835   1.429   5.294  1.0011 -0.6055  0.9705
29397SOL     OW90728   8.597   9.640   2.828  0.5855  0.0149 -0.0321
29397SOL    HW190729   8.630   9.703   2.764 -0.5529  0.5608 -0.0903
29397SOL    HW290730   8.597   9.688   2.911 -0.3020  0.1005 -0.0804
29398SOL     OW90731   8.302   4.535   0.864  0.0532 -0.3801  0.2346
29398SOL    HW190732   8.337   4.516   0.777 -0.4138  0.3089 -0.1106
29398SOL    HW290733   8.304   4.452   0.911 -2.2101 -1.3299 -1.3014
29399SOL     OW90734   8.811   0.912   6.327 -0.6123 -0.6997 -0.5812
29399SOL    HW190735   8.882   0.874   6.276  0.2304  0.5942 -0.3876
29399SOL    HW290736   8.838   0.902   6.418  0.2362  1.5158 -0.5648
29400SOL     OW90737   3.028   1.277   5.554  0.1119 -0.1821  0.2765
29400SOL    HW190738   2.991   1.201   5.600  1.2446  0.8490  2.9944
29400SOL    HW290739   2.958   1.343   5.559 -0.4622 -0.6639 -1.1426
29401SOL     OW90740   8.054   3.506   0.104  0.4602  0.4195 -0.2528
29401SOL    HW190741   8.025   3.492   0.014  2.1017 -1.2524 -0.5336
29401SOL    HW290742   8.089   3.422   0.132  0.3849  1.0445  1.8173
29402SOL     OW90743   0.823   2.335   1.421 -0.4001  0.0545  0.5468
29402SOL    HW190744   0.795   2.418   1.461 -0.1455  0.5882 -0.3859
29402SOL    HW290745   0.784   2.268   1.478 -2.1621  0.7973  0.2661
29403SOL     OW90746   0.141   8.711   1.377 -0.0052  0.4136 -0.0996
29403SOL    HW190747   0.088   8.632   1.362  0.8272  0.1385 -1.6316
29403SOL    HW290748   0.224   8.693   1.333  0.2611  2.0957 -0.3027
29404SOL     OW90749   9.105   5.071   4.772 -0.0074  0.0995  0.4446
29404SOL    HW190750   9.189   5.078   4.818 -0.6279 -0.1902  1.6282
29404SOL    HW290751   9.041   5.058   4.841 -1.0036  0.0549 -0.4828
29405SOL     OW90752   5.737   7.868   2.835 -0.4079  0.0455  0.0823
29405SOL    HW190753   5.693   7.792   2.873 -0.9524 -0.1811 -0.9609
29405SOL    HW290754   5.775   7.835   2.753  1.4794  0.3087  0.8171
29406SOL     OW90755   0.626   7.735   5.660 -0.1660 -0.2276 -0.0935
29406SOL    HW190756   0.671   7.778   5.733 -1.2687  0.7441  0.0337
29406SOL    HW290757   0.629   7.642   5.680 -0.0289  0.0010  0.9482
29407SOL     OW90758   7.557   2.484   9.158  0.3147 -0.1057 -0.3312
29407SOL    HW190759   7.546   2.391   9.141 -2.1940  0.0357  0.3319
29407SOL    HW290760   7.482   2.525   9.116  0.6370  1.4817  0.6026
29408SOL     OW90761   9.951   7.539   5.781  0.4386  0.0001  0.5923
29408SOL    HW190762  10.034   7.554   5.826  1.4485  0.2777 -1.3303
29408SOL    HW290763   9.972   7.478   5.711 -1.7439 -2.9380  2.3838
29409SOL     OW90764   9.469   5.109   4.257  0.5811  0.0521  0.0973
29409SOL    HW190765   9.463   5.027   4.306 -1.4202  0.0480 -0.1008
29409SOL    HW290766   9.505   5.172   4.320  1.1730 -0.7267  0.5534
29410SOL     OW90767   5.713   2.039   5.340  0.2034  0.1670 -0.0376
29410SOL    HW190768   5.761   2.074   5.415 -0.1209 -0.4826  0.4723
29410SOL    HW290769   5.709   1.945   5.355  2.0605 -0.2757 -1.9721
29411SOL     OW90770   7.981   6.773   3.462 -0.0375 -0.0511 -0.0622
29411SOL    HW190771   7.895   6.816   3.457  0.5326  1.1622  0.4014
29411SOL    HW290772   8.034   6.818   3.395  0.8127  0.5392  0.9941
29412SOL     OW90773   1.540  10.113   7.687 -0.2074  0.0907  0.2583
29412SOL    HW190774   1.455  10.075   7.710 -0.3069 -0.0947 -0.4055
29412SOL    HW290775   1.602  10.041   7.696 -0.2953 -0.0665 -0.3506
29413SOL     OW90776   1.166   7.377   8.800  0.2272  0.2350  0.5338
29413SOL    HW190777   1.132   7.356   8.887  0.6680 -0.5761  0.5051
29413SOL    HW290778   1.190   7.470   8.806 -1.5540  0.6934  0.6902
29414SOL     OW90779   6.932   5.010   9.401  0.1073 -0.0262  0.1743
29414SOL    HW190780   6.976   5.045   9.324  0.3963 -1.4562 -0.3099
29414SOL    HW290781   7.003   4.975   9.455 -0.1551  0.3938  0.7999
29415SOL     OW90782   9.097   6.480   7.110 -0.9233 -0.1030  0.3789
29415SOL    HW190783   9.190   6.461   7.119 -0.8099  0.3865  0.2326
29415SOL    HW290784   9.094   6.566   7.068 -1.4328 -1.3596 -2.2089
29416SOL     OW90785   5.850   9.194   5.342 -0.1510  0.1720  0.4970
29416SOL    HW190786   5.819   9.167   5.429  0.0051 -1.5783  0.0320
29416SOL    HW290787   5.772   9.232   5.300 -0.4048  0.3864  1.1576
29417SOL     OW90788   3.999   6.464   3.897 -0.6288  0.0599  0.1468
29417SOL    HW190789   3.952   6.506   3.825 -2.1146 -0.1914  0.9535
29417SOL    HW290790   4.022   6.535   3.955 -1.0676  0.0480  0.3386
29418SOL     OW90791   3.037   4.579   5.042  0.2680 -0.7918  0.1688
29418SOL    HW190792   2.943   4.599   5.044 -0.2318 -2.5819 -2.2639
29418SOL    HW290793   3.067   4.596   5.131 -2.0572  1.2068  0.6358
29419SOL     OW90794   0.201   3.739   9.579  0.4028  0.9753 -0.0548
29419SOL    HW190795   0.288   3.702   9.569  0.3437  1.1358 -1.2092
29419SOL    HW290796   0.148   3.693   9.514 -0.3776  0.8951  0.6231
29420SOL     OW90797   2.380   4.983   2.535 -0.0901 -0.5842  0.2249
29420SOL    HW190798   2.368   5.072   2.500  1.8706  0.2359  1.5516
29420SOL    HW290799   2.444   4.944   2.477 -0.8134 -1.0856 -0.2441
29421SOL     OW90800   5.968   2.122  10.114 -0.5351 -0.4981 -0.0402
29421SOL    HW190801   5.985   2.177  10.191 -1.2200  0.2485 -0.4060
29421SOL    HW290802   5.972   2.183  10.040  0.6659 -1.3066 -0.6625
29422SOL     OW90803   1.876   1.749   9.728 -0.5003 -0.3767  0.0586
29422SOL    HW190804   1.942   1.782   9.789  0.0418 -0.1887 -0.6225
29422SOL    HW290805   1.918   1.673   9.688 -0.3481  0.2820 -1.0422
29423SOL     OW90806   3.702   8.775   3.049  0.0701 -0.2985  0.3601
29423SOL    HW190807   3.645   8.736   3.116 -0.8153  0.1788 -0.1040
29423SOL    HW290808   3.781   8.721   3.051 -0.7411 -1.5132  0.4096
29424SOL     OW90809   9.514   5.752   4.452 -0.3447  0.1105  0.5556
29424SOL    HW190810   9.552   5.671   4.418 -0.5536 -0.1053  0.8281
29424SOL    HW290811   9.581   5.789   4.508 -0.1283  0.2902  0.1843
29425SOL     OW90812   9.802  10.195   2.471 -0.2181  0.1304 -0.0934
29425SOL    HW190813   9.897  10.194   2.484 -0.0457 -1.2764 -1.2635
29425SOL    HW290814   9.782  10.282   2.438  0.8258  0.0929 -0.8320
29426SOL     OW90815   0.499   8.331   8.283 -0.0069  0.6905  0.2548
29426SOL    HW190816   0.590   8.360   8.296 -0.2769  1.5988  0.1500
29426SOL    HW290817   0.482   8.348   8.190  0.3727 -1.3891 -0.2348
29427SOL     OW90818   4.912   0.401   1.312 -0.5176  0.5565  1.1972
29427SOL    HW190819   4.983   0.411   1.376 -2.2335  1.0994  3.0332
29427SOL    HW290820   4.839   0.450   1.349 -1.5287  0.9244 -1.2198
29428SOL     OW90821   1.824   3.689   8.908  0.6330 -0.6832 -0.9745
29428SOL    HW190822   1.834   3.701   8.814 -0.8804  1.1919 -0.9494
29428SOL    HW290823   1.738   3.648   8.918  0.2607  0.2232 -0.3649
29429SOL     OW90824   1.100   4.501   0.507  0.0532  0.4838 -0.0425
29429SOL    HW190825   1.105   4.417   0.460  0.6887  1.1088 -1.1254
29429SOL    HW290826   1.192   4.526   0.521 -0.1253  1.3510 -0.3785
29430SOL     OW90827   2.592   8.283   8.717  1.0220  0.2085 -0.6912
29430SOL    HW190828   2.674   8.235   8.720  1.7833  1.3574 -2.6503
29430SOL    HW290829   2.590   8.323   8.630  0.5491  3.9250  0.9165
29431SOL     OW90830   5.212   5.737   0.284  0.2905  0.4899  0.6130
29431SOL    HW190831   5.125   5.777   0.284 -0.8210 -1.8713  1.1099
29431SOL    HW290832   5.235   5.729   0.192 -0.0796  0.9749  0.4786
29432SOL     OW90833   9.176   8.719   2.107 -0.1253  0.1917  0.2847
29432SOL    HW190834   9.215   8.673   2.181  0.8277  1.4102  0.5609
29432SOL    HW290835   9.089   8.744   2.137 -1.9710 -4.1673 -0.9676
29433SOL     OW90836   6.042   6.287   5.494 -0.7754 -0.6511  0.5277
29433SOL    HW190837   5.968   6.347   5.503  1.6368  2.4194  0.5120
29433SOL    HW290838   6.072   6.272   5.584  0.6075  0.7863  0.3300
29434SOL     OW90839   6.362   6.659   7.219  0.7380 -0.2206  0.0693
29434SOL    HW190840   6.418   6.735   7.204  1.7077 -0.7614  0.8878
29434SOL    HW290841   6.370   6.642   7.313 -0.1015 -0.8544  0.0331
29435SOL     OW90842   9.994   2.707   3.307 -0.1664  0.1881 -0.1234
29435SOL    HW190843   9.930   2.650   3.351  0.0669  0.6212  0.8034
29435SOL    HW290844  10.050   2.647   3.258 -1.2585 -0.2000 -0.9091
29436SOL     OW90845   8.605   3.100   3.867 -1.0782  1.1610 -0.1286
29436SOL    HW190846   8.554   3.079   3.945 -1.6730  0.8170 -0.6108
29436SOL    HW290847   8.540   3.110   3.797 -0.3793 -0.9148 -1.1089
29437SOL     OW90848   3.021   3.366   4.340 -0.0664 -0.0324  0.3412
29437SOL    HW190849   2.926   3.360   4.332  0.0600 -0.8046 -0.5846
29437SOL    HW290850   3.045   3.292   4.396  0.0793 -0.2955 -0.0737
29438SOL     OW90851   4.411   9.720   7.100  0.1531  0.3985  0.1056
29438SOL    HW190852   4.438   9.724   7.192 -1.5299 -2.3070  0.7776
29438SOL    HW290853   4.481   9.673   7.056 -0.2561 -0.6258  0.5350
29439SOL     OW90854   0.309   5.755   5.801 -0.1936 -0.2262  0.2638
29439SOL    HW190855   0.271   5.699   5.868 -0.5652 -0.0060  0.2380
29439SOL    HW290856   0.385   5.706   5.769  0.4750  0.0457  1.4255
29440SOL     OW90857   6.012   5.277   3.646 -0.2802 -0.6899  0.0128
29440SOL    HW190858   5.986   5.257   3.736  1.1879  1.1790  0.8850
29440SOL    HW290859   6.092   5.225   3.633  0.7436  0.7168  0.5694
29441SOL     OW90860   5.338   1.201   4.910  0.2583  0.5638 -0.1313
29441SOL    HW190861   5.300   1.271   4.856  0.4077  1.0591  0.4029
29441SOL    HW290862   5.388   1.148   4.848  0.3444  1.0688 -0.5001
29442SOL     OW90863   7.882   6.073   4.869 -0.1996  0.4682 -0.0248
29442SOL    HW190864   7.936   6.140   4.910  0.2617  0.9679 -1.4348
29442SOL    HW290865   7.927   5.991   4.890  1.5549  0.9317 -1.7975
29443SOL     OW90866   6.030   4.220   3.347 -0.0192 -0.0668  0.1725
29443SOL    HW190867   6.112   4.205   3.300  0.1256  0.4509  0.2518
29443SOL    HW290868   5.981   4.280   3.291  1.3725  2.9157  1.9926
29444SOL     OW90869   0.164   7.731   4.297  0.0600  0.5666  0.2119
29444SOL    HW190870   0.220   7.686   4.361 -2.7276 -2.2241  0.8032
29444SOL    HW290871   0.097   7.774   4.350 -1.3169 -0.4045 -0.7079
29445SOL     OW90872   5.375   6.210   6.249  0.5064  0.0421  0.3616
29445SOL    HW190873   5.423   6.127   6.239  0.1003 -0.4610  2.3163
29445SOL    HW290874   5.408   6.246   6.332  0.1903  1.5057 -0.1495
29446SOL     OW90875   1.418   9.235  10.156  0.3496  0.8631  0.4866
29446SOL    HW190876   1.396   9.145  10.182  0.1266  1.2555  1.6934
29446SOL    HW290877   1.459   9.273  10.234  4.4375  0.4887 -1.3136
29447SOL     OW90878   6.007   6.194   4.489  0.0061 -0.3126 -0.2520
29447SOL    HW190879   6.089   6.172   4.445  2.1359  1.4151  2.7068
29447SOL    HW290880   5.980   6.112   4.531  0.1653 -0.9162 -1.3112
29448SOL     OW90881   3.011   1.774   2.440 -0.2154 -0.1500  0.1029
29448SOL    HW190882   2.936   1.825   2.410 -0.8298  0.1879  2.1473
29448SOL    HW290883   2.979   1.725   2.516  1.5939 -0.0952  0.9355
29449SOL     OW90884   6.673   4.705   3.035  0.2213 -0.3218  0.0579
29449SOL    HW190885   6.707   4.769   2.973 -1.7344 -0.0188 -0.7440
29449SOL    HW290886   6.582   4.730   3.048  0.5605 -0.4354  3.0176
29450SOL     OW90887  10.172   3.465   7.532 -0.2489  0.8695  0.0076
29450SOL    HW190888  10.164   3.421   7.617  2.2039 -0.8611 -0.5848
29450SOL    HW290889  10.224   3.543   7.551 -1.1321  1.3642  0.3856
29451SOL     OW90890   5.512   9.978   2.754  0.3207 -0.4335 -0.1482
29451SOL    HW190891   5.560  10.051   2.715  0.6594 -0.8635 -0.5369
29451SOL    HW290892   5.558   9.959   2.835 -0.8329  0.9643  0.8800
29452SOL     OW90893   0.617   7.627   0.293 -0.3680  0.0201  0.1467
29452SOL    HW190894   0.652   7.716   0.298 -0.0824 -0.1227  0.6332
29452SOL    HW290895   0.529   7.634   0.331  0.1269 -0.1575  1.3536
29453SOL     OW90896   7.827   5.236   0.833  0.3347 -0.0438  0.6961
29453SOL    HW190897   7.888   5.305   0.806  0.6008 -0.7644 -0.5682
29453SOL    HW290898   7.843   5.225   0.927  2.1215 -0.2193  0.3680
29454SOL     OW90899   9.568   1.267   7.706  0.6357  0.7516 -0.6346
29454SOL    HW190900   9.480   1.304   7.719  0.0941 -0.6696 -0.1369
29454SOL    HW290901   9.582   1.270   7.611  0.0665  1.0426 -0.7097
29455SOL     OW90902   8.576   4.985   3.297  0.5955 -0.5605  0.4127
29455SOL    HW190903   8.536   5.063   3.260  0.4096 -1.3855 -1.1331
29455SOL    HW290904   8.670   5.005   3.298  0.7363 -1.0264 -1.7213
29456SOL     OW90905   4.059   0.895   0.085 -0.0059 -0.8488  0.3351
29456SOL    HW190906   4.146   0.869   0.117  0.2993  0.2681  0.4475
29456SOL    HW290907   3.999   0.835   0.128  0.7036 -1.5273  0.3936
29457SOL     OW90908   9.757  10.020   0.652 -0.2413 -0.0868  0.5319
29457SOL    HW190909   9.832  10.054   0.700 -0.7751  0.1402  1.2209
29457SOL    HW290910   9.765  10.057   0.565  1.0845 -1.0130  0.2575
29458SOL     OW90911   4.762   0.872   5.658  0.1261 -0.0036 -0.1506
29458SOL    HW190912   4.828   0.834   5.717 -0.1045 -0.5241 -0.2210
29458SOL    HW290913   4.723   0.943   5.708 -1.1605 -1.4271  0.9301
29459SOL     OW90914   0.651   2.164   7.636  0.2152 -0.0532  0.1343
29459SOL    HW190915   0.686   2.248   7.667 -1.2659  0.4570  0.4870
29459SOL    HW290916   0.628   2.180   7.545 -2.0020  0.5800  0.7667
29460SOL     OW90917   6.440   6.600   4.395  0.5033  0.1702  0.1107
29460SOL    HW190918   6.448   6.539   4.321 -1.6454  0.9531 -0.8419
29460SOL    HW290919   6.491   6.560   4.465  0.7072 -1.7586 -1.0888
29461SOL     OW90920   7.579   0.972   9.425 -0.0415  0.3241 -0.2087
29461SOL    HW190921   7.519   0.915   9.474  0.7334 -1.1522 -0.9674
29461SOL    HW290922   7.662   0.965   9.472  1.0012 -1.9413 -2.3132
29462SOL     OW90923   9.029   3.699   5.647  0.0834 -0.3558  0.5806
29462SOL    HW190924   9.055   3.686   5.555  0.1158  2.1441  0.1809
29462SOL    HW290925   8.935   3.686   5.648  0.2340 -1.5160  0.4349
29463SOL     OW90926   5.871   1.765   7.430  0.2597 -0.1871 -0.0086
29463SOL    HW190927   5.918   1.691   7.390 -0.1374  0.0435 -0.9164
29463SOL    HW290928   5.799   1.724   7.477  0.2747 -0.4114 -0.1760
29464SOL     OW90929   9.036   0.399   0.679  0.7310  1.4422  0.1136
29464SOL    HW190930   8.948   0.386   0.715  0.7925  0.9463  0.0894
29464SOL    HW290931   9.066   0.310   0.658  1.3292  1.5928  0.3458
29465SOL     OW90932   6.773   4.419   9.893  0.0471 -0.0906 -0.1743
29465SOL    HW190933   6.722   4.344   9.922 -1.7596  1.9738  2.2102
29465SOL    HW290934   6.743   4.436   9.803 -1.5100 -0.5449  0.2541
29466SOL     OW90935   7.218   1.548   6.443  0.5217  0.0262  0.1901
29466SOL    HW190936   7.275   1.603   6.497  4.1281 -2.1980 -1.1886
29466SOL    HW290937   7.232   1.580   6.354 -1.4807  0.3254 -0.0390
29467SOL     OW90938   0.004   9.781   2.953  0.1523 -0.7620 -0.2369
29467SOL    HW190939  -0.051   9.725   3.008  0.0569  0.8335  1.3408
29467SOL    HW290940   0.013   9.733   2.871 -3.9457 -0.8714 -0.6900
29468SOL     OW90941   4.359   4.600   2.846  0.4653  0.0592 -0.4555
29468SOL    HW190942   4.294   4.534   2.871  1.0149 -0.7830 -1.2094
29468SOL    HW290943   4.314   4.684   2.855 -0.1412 -0.3929  0.8426
29469SOL     OW90944   3.710   8.729   5.050 -0.4328  0.4349 -0.3969
29469SOL    HW190945   3.665   8.793   4.993  0.1337  1.5510  0.3867
29469SOL    HW290946   3.793   8.771   5.072 -0.8430  0.2386  1.6412
29470SOL     OW90947   0.924   0.551   9.397 -0.2121  0.1515 -0.3672
29470SOL    HW190948   0.840   0.510   9.418  1.1938 -2.7303 -0.1839
29470SOL    HW290949   0.965   0.568   9.483  0.3774 -0.6098 -0.4901
29471SOL     OW90950   7.350   7.112   6.005  0.1777 -0.2629  0.5357
29471SOL    HW190951   7.282   7.145   6.063  0.4010  1.0256  0.0776
29471SOL    HW290952   7.331   7.018   5.998  0.6331 -0.6058  3.3141
29472SOL     OW90953   0.122   0.449   8.182 -0.0221  0.5507  0.0224
29472SOL    HW190954   0.078   0.532   8.164  0.4532  0.6417 -0.7126
29472SOL    HW290955   0.207   0.456   8.139  0.3120 -0.0315  0.5731
29473SOL     OW90956   0.383   7.671   6.900  0.3676  0.2733 -0.1680
29473SOL    HW190957   0.370   7.601   6.837  1.3519 -0.1160  0.0460
29473SOL    HW290958   0.428   7.630   6.974 -1.8588  0.4666  1.3351
29474SOL     OW90959   1.024   8.587   9.971 -0.1847 -0.0535  0.3147
29474SOL    HW190960   1.089   8.642   9.928 -0.2035 -0.1099  0.2130
29474SOL    HW290961   0.992   8.640  10.044 -0.4526  0.2041  0.0071
29475SOL     OW90962   1.705   7.310   5.783 -0.0989  0.0642  0.7849
29475SOL    HW190963   1.765   7.238   5.803  2.0652  1.2760 -1.0509
29475SOL    HW290964   1.714   7.322   5.688 -3.5411  0.0782  0.3985
29476SOL     OW90965   0.640   8.983   2.219 -0.0211  0.3707  0.1656
29476SOL    HW190966   0.673   9.062   2.261  0.5583 -0.0842  0.5799
29476SOL    HW290967   0.602   9.013   2.136 -1.1653  1.2651  1.0077
29477SOL     OW90968   4.551   5.244   0.843 -0.2156 -0.0481 -0.3201
29477SOL    HW190969   4.547   5.332   0.881 -2.7634  0.4974 -1.7562
29477SOL    HW290970   4.533   5.185   0.916 -1.9807  0.8290 -0.0186
29478SOL     OW90971   6.937   7.813   5.211 -0.1727 -0.7202  0.0625
29478SOL    HW190972   7.015   7.775   5.171  0.5834  1.2720 -0.4099
29478SOL    HW290973   6.872   7.816   5.141  0.2616  0.2399 -0.3030
29479SOL     OW90974   9.739   7.635   1.012  0.0510  0.0255 -0.7259
29479SOL    HW190975   9.672   7.700   1.032 -0.6647 -0.3429 -1.8811
29479SOL    HW290976   9.775   7.611   1.098 -0.4724  1.0804 -0.1929
29480SOL     OW90977   0.389   4.164   8.130  0.4095 -0.2352 -0.1299
29480SOL    HW190978   0.408   4.194   8.041 -0.6117 -0.4799 -0.4409
29480SOL    HW290979   0.425   4.075   8.133  0.8700 -0.0514 -0.1434
29481SOL     OW90980   1.641   0.998   7.972 -0.2358  0.6464  0.0402
29481SOL    HW190981   1.627   1.025   8.063  2.0040 -0.1685  0.6612
29481SOL    HW290982   1.666   0.906   7.978 -0.3536  0.5079 -1.4391
29482SOL     OW90983   5.702   9.762   5.318 -0.6403 -0.0214  0.0191
29482SOL    HW190984   5.696   9.790   5.227 -0.9543 -2.0221 -0.6153
29482SOL    HW290985   5.612   9.770   5.352 -0.6425  0.1646 -0.0371
29483SOL     OW90986   7.178   6.176   1.897 -0.0657  0.7538  0.9547
29483SOL    HW190987   7.245   6.113   1.924 -2.2888 -1.5616  1.2041
29483SOL    HW290988   7.171   6.236   1.972  2.8333  2.0412  0.2795
29484SOL     OW90989   4.498   3.406   8.508  0.2714  0.2867  0.1159
29484SOL    HW190990   4.448   3.416   8.588 -0.4611  1.7621 -0.5087
29484SOL    HW290991   4.438   3.363   8.447  1.0819 -1.5472  0.5803
29485SOL     OW90992   4.528   2.965   3.377 -0.3038  0.1626  0.8809
29485SOL    HW190993   4.461   3.031   3.396  1.0402  2.1388 -1.0578
29485SOL    HW290994   4.610   3.007   3.403  0.5294 -0.8510 -0.0946
29486SOL     OW90995   5.513   1.421   6.632  0.5184 -0.0762  0.4068
29486SOL    HW190996   5.551   1.441   6.546 -0.1242 -1.1718 -0.1446
29486SOL    HW290997   5.419   1.436   6.622  0.2965 -1.3028  0.5815
29487SOL     OW90998   7.454   5.917   2.396 -0.7452 -0.1326  0.0292
29487SOL    HW190999   7.376   5.939   2.345 -0.9197  0.1016  0.3973
29487SOL    HW291000   7.506   5.998   2.398 -0.8857 -0.0505  0.4842
29488SOL     OW91001   7.483   3.848   6.445  0.4071 -0.5409  0.0017
29488SOL    HW191002   7.404   3.794   6.441 -0.0649  0.2028 -0.8282
29488SOL    HW291003   7.501   3.871   6.354  0.3593  1.0492  0.3783
29489SOL     OW91004   0.933   3.032  10.034  0.3986 -0.4628 -0.1915
29489SOL    HW191005   0.920   2.966  10.102  0.7883 -1.6591 -1.2441
29489SOL    HW291006   0.865   3.014   9.970  1.0094 -0.3710 -0.8793
29490SOL     OW91007   3.778   3.974   7.581  0.0714  0.1431 -0.1750
29490SOL    HW191008   3.863   3.967   7.625  0.2163  0.2940 -0.4320
29490SOL    HW291009   3.726   4.029   7.639  0.3660  0.6094 -0.3519
29491SOL     OW91010   1.033   7.727   1.501  0.3808  0.5693  0.2359
29491SOL    HW191011   1.119   7.739   1.459  0.0986  1.7939 -0.0102
29491SOL    HW291012   1.009   7.815   1.530 -0.3504  0.0576  1.1745
29492SOL     OW91013   7.998   1.462   1.979 -0.0993 -0.4273  0.1661
29492SOL    HW191014   7.979   1.392   1.915 -0.8079 -0.3772  0.3195
29492SOL    HW291015   8.070   1.511   1.939 -1.5471  0.5430 -1.3256
29493SOL     OW91016   4.424   3.413   4.611 -0.1313  0.2939 -0.4277
29493SOL    HW191017   4.384   3.360   4.543 -2.5044  0.9376  0.4224
29493SOL    HW291018   4.352   3.464   4.648  1.6235  2.1239  0.5877
29494SOL     OW91019   8.701   5.200   2.948 -0.2798 -0.0222  0.4086
29494SOL    HW191020   8.782   5.240   2.980 -0.8904  2.3873 -0.8926
29494SOL    HW291021   8.634   5.267   2.963 -1.2152 -0.2158 -2.5146
29495SOL     OW91022   5.180   7.791   1.394 -0.4262  0.0899 -0.0801
29495SOL    HW191023   5.163   7.881   1.363  0.4907  0.2469 -0.1600
29495SOL    HW291024   5.104   7.768   1.446 -1.0810  0.5852 -0.8127
29496SOL     OW91025   9.181   9.904   6.691  0.3590  0.2115  0.3596
29496SOL    HW191026   9.218   9.834   6.745 -3.0063 -0.6730  1.6386
29496SOL    HW291027   9.134   9.857   6.621  1.2367  1.2846 -0.9749
29497SOL     OW91028   0.353   7.527   6.660  0.3672  0.2380 -0.3622
29497SOL    HW191029   0.318   7.460   6.602  0.2715  0.4257 -0.5235
29497SOL    HW291030   0.277   7.580   6.684  0.6429  1.0551 -1.2527
29498SOL     OW91031   3.636   5.557   2.843  0.1214 -0.1773  0.1213
29498SOL    HW191032   3.546   5.587   2.855 -0.2873 -1.4832  0.2973
29498SOL    HW291033   3.664   5.530   2.930  0.3904 -0.6100 -0.1004
29499SOL     OW91034   5.482   2.755   2.650  0.3054 -0.4584  0.0343
29499SOL    HW191035   5.562   2.801   2.677 -0.9980  1.6565  0.4777
29499SOL    HW291036   5.466   2.691   2.719  1.1614 -0.3044  0.3741
29500SOL     OW91037   0.836   9.611   1.895 -0.0758  0.0769 -0.1369
29500SOL    HW191038   0.822   9.518   1.877 -0.3171  0.2528 -0.8862
29500SOL    HW291039   0.931   9.619   1.906 -0.0614 -0.2705 -0.0053
29501SOL     OW91040   6.311   0.023   1.440 -0.0470 -0.4362 -0.2370
29501SOL    HW191041   6.397   0.060   1.420  0.6240 -1.6203  0.4040
29501SOL    HW291042   6.295  -0.040   1.370  0.1216 -1.0446  0.2720
29502SOL     OW91043  10.069   7.337   2.086 -0.3256  0.0205 -0.2654
29502SOL    HW191044  10.001   7.335   2.018 -0.4489 -0.6761 -0.1242
29502SOL    HW291045  10.020   7.342   2.168 -0.2150 -0.5952 -0.1578
29503SOL     OW91046   6.588   0.266   2.175 -0.3203  0.0751 -0.1442
29503SOL    HW191047   6.493   0.274   2.173 -0.2170  1.2877 -0.7522
29503SOL    HW291048   6.617   0.332   2.238  0.3472  2.5483 -2.8656
29504SOL     OW91049   5.696   6.459   7.690 -0.0782  0.5027 -0.2653
29504SOL    HW191050   5.687   6.401   7.765 -0.4751 -0.4955 -1.0830
29504SOL    HW291051   5.765   6.521   7.716  0.7451 -0.6736  0.3850
29505SOL     OW91052   2.864   5.788   9.180 -0.0008  0.1113 -0.0678
29505SOL    HW191053   2.831   5.704   9.212  2.1731  0.3520  2.9749
29505SOL    HW291054   2.880   5.772   9.086  0.6975 -3.0167  0.5017
29506SOL     OW91055   8.895   0.265   4.090  0.0237  0.2808 -0.2612
29506SOL    HW191056   8.888   0.293   4.181 -1.3946  0.6910 -0.4833
29506SOL    HW291057   8.880   0.346   4.040  2.0683  0.3231 -0.8584
29507SOL     OW91058   7.790   2.253   6.895 -0.3922  0.1731 -0.1669
29507SOL    HW191059   7.840   2.171   6.891  2.3719  1.7279  0.8109
29507SOL    HW291060   7.780   2.270   6.989 -0.8667  0.9974 -0.3654
29508SOL     OW91061   6.901   9.848   0.293 -0.2833  0.1912 -0.2712
29508SOL    HW191062   6.966   9.882   0.232 -0.4844 -2.9707 -2.3573
29508SOL    HW291063   6.819   9.891   0.267  0.0277  0.3726 -0.9524
29509SOL     OW91064   0.265   8.165   8.267 -0.3459  0.5488  0.0183
29509SOL    HW191065   0.185   8.196   8.308 -1.6601 -0.6388 -1.5805
29509SOL    HW291066   0.326   8.239   8.273 -0.5912  0.5381  3.7175
29510SOL     OW91067  10.114   4.128   4.664  0.0628 -0.1317 -0.0919
29510SOL    HW191068  10.114   4.119   4.759 -0.7402  1.0880  0.0400
29510SOL    HW291069  10.167   4.055   4.632 -0.0480 -0.8158  1.2671
29511SOL     OW91070   3.205   4.526   8.589  0.2246  0.1597  0.0687
29511SOL    HW191071   3.210   4.613   8.627  1.0947 -0.1969  0.8014
29511SOL    HW291072   3.289   4.515   8.544 -0.6918  0.4754 -1.7389
29512SOL     OW91073   4.099   1.299   3.875 -0.4230 -0.0165  0.0744
29512SOL    HW191074   4.138   1.368   3.821  0.2259  0.4306  1.0946
29512SOL    HW291075   4.145   1.306   3.959 -1.2852 -0.8249  0.6198
29513SOL     OW91076   3.418   1.633   8.834 -0.2660  0.2320  0.4611
29513SOL    HW191077   3.350   1.567   8.849 -0.5694  0.4231 -0.0712
29513SOL    HW291078   3.432   1.632   8.740 -1.3663  1.9967  0.2442
29514SOL     OW91079   3.174   9.323   4.623  0.1028 -0.1496  0.8150
29514SOL    HW191080   3.169   9.403   4.571  0.3646 -1.4038 -1.2197
29514SOL    HW291081   3.256   9.282   4.596 -1.6842 -2.8067 -0.8143
29515SOL     OW91082   8.639   6.973   6.564 -0.6011 -0.0972 -0.3744
29515SOL    HW191083   8.725   6.978   6.607 -1.0980 -0.5303  0.6639
29515SOL    HW291084   8.592   6.904   6.610 -2.2048  1.4196  0.3208
29516SOL     OW91085   6.636   1.375   6.821 -0.3522 -0.0656  0.2160
29516SOL    HW191086   6.710   1.317   6.803 -0.2005 -0.2076  1.2658
29516SOL    HW291087   6.677   1.457   6.849 -0.5704  0.3997 -0.8079
29517SOL     OW91088   2.371   2.328   4.329  0.1846  0.5054 -0.2007
29517SOL    HW191089   2.431   2.294   4.396  0.4421  1.8609  0.2586
29517SOL    HW291090   2.422   2.394   4.283 -0.3599  0.3526 -1.0230
29518SOL     OW91091   0.155   2.461   9.608 -0.1642 -0.2624 -0.3889
29518SOL    HW191092   0.147   2.505   9.693  0.3142  1.1003 -1.0339
29518SOL    HW291093   0.149   2.368   9.629  3.2661 -0.1540  1.5762
29519SOL     OW91094  10.054   0.568   8.439  0.8457 -0.0185 -0.5434
29519SOL    HW191095  10.120   0.504   8.410  0.9807 -0.4704  0.7499
29519SOL    HW291096  10.057   0.565   8.534 -0.2298  0.8151 -0.4698
29520SOL     OW91097   3.661   6.422   0.813 -0.0366  0.2072 -0.4400
29520SOL    HW191098   3.583   6.427   0.758 -0.8281 -0.4357  0.5858
29520SOL    HW291099   3.657   6.500   0.867 -1.4652 -1.1429  1.4961
29521SOL     OW91100   0.643   6.803   8.850 -0.4217 -0.1288  0.0379
29521SOL    HW191101   0.702   6.861   8.802  0.3648 -1.2681 -0.3833
29521SOL    HW291102   0.604   6.747   8.784  0.9120 -1.9241  0.7079
29522SOL     OW91103   5.989   2.726   6.008 -0.1760 -0.0256 -0.0893
29522SOL    HW191104   5.939   2.794   5.962 -0.5040 -0.7339 -0.7998
29522SOL    HW291105   6.061   2.773   6.050 -0.9041  0.8797  0.1540
29523SOL     OW91106   2.036   8.576   6.451 -0.2445 -0.3870  0.0829
29523SOL    HW191107   2.123   8.537   6.458  0.2328  0.8810  1.5014
29523SOL    HW291108   2.052   8.669   6.436 -1.3710 -0.5430 -2.3444
29524SOL     OW91109   3.866   6.819   4.214 -0.7456  0.2271 -0.6332
29524SOL    HW191110   3.869   6.823   4.310 -1.6779 -1.3870 -0.5295
29524SOL    HW291111   3.773   6.828   4.193 -0.5572  0.4390 -1.3819
29525SOL     OW91112   7.260   2.140   0.032  0.1300  0.0878  0.1051
29525SOL    HW191113   7.272   2.201  -0.042 -1.0506 -0.7360 -0.7935
29525SOL    HW291114   7.216   2.193   0.099 -0.5968  0.3369 -0.5498
29526SOL     OW91115   7.394   0.383   6.096 -0.3533 -0.5418 -0.4172
29526SOL    HW191116   7.317   0.350   6.049  0.1108 -1.1008 -0.8010
29526SOL    HW291117   7.416   0.465   6.051  0.7843 -1.6562 -1.9505
29527SOL     OW91118   1.898   8.869   9.834  0.0517 -0.2403 -0.2639
29527SOL    HW191119   1.907   8.799   9.769 -0.4196 -0.8322  0.3015
29527SOL    HW291120   1.804   8.879   9.846  0.1377 -0.6282  0.8431
29528SOL     OW91121   1.175   8.768   1.143 -0.2360  0.2769 -0.6416
29528SOL    HW191122   1.094   8.728   1.173 -0.0651  3.1891  4.3864
29528SOL    HW291123   1.244   8.710   1.175 -0.1954  1.1162  0.8398
29529SOL     OW91124   3.292   0.701   8.219 -0.6706 -0.7906  0.1451
29529SOL    HW191125   3.312   0.686   8.127 -2.8372  0.3483 -0.5467
29529SOL    HW291126   3.266   0.615   8.253  1.7221 -1.5437  0.1458
29530SOL     OW91127   7.962   2.962   8.092  0.9076  0.4865  0.7881
29530SOL    HW191128   7.885   2.914   8.121  0.0959  1.3088  0.0397
29530SOL    HW291129   7.997   3.002   8.172 -0.0642  0.9776  0.9791
29531SOL     OW91130   7.338   5.631   7.486  0.1495  0.0075  0.2580
29531SOL    HW191131   7.373   5.563   7.429 -1.4665 -0.8248  0.2325
29531SOL    HW291132   7.316   5.703   7.425 -0.8019 -0.5612 -0.0864
29532SOL     OW91133   3.481   9.334   9.375  0.3370  0.4252 -0.2203
29532SOL    HW191134   3.552   9.390   9.344  0.7625 -0.6517 -1.2191
29532SOL    HW291135   3.419   9.332   9.302 -1.0726  1.9205  0.9102
29533SOL     OW91136   2.979   9.012   7.580 -0.0609  0.1327 -0.3909
29533SOL    HW191137   3.022   8.934   7.544  0.8402  0.0062  0.9283
29533SOL    HW291138   3.030   9.085   7.546  0.6990  0.0207  0.4937
29534SOL     OW91139   3.744   3.735   4.429  0.1588 -0.1893 -0.1582
29534SOL    HW191140   3.731   3.819   4.473  1.7487 -0.0465  0.0826
29534SOL    HW291141   3.838   3.719   4.436 -0.4337 -3.2259  2.1103
29535SOL     OW91142   6.479   5.178   7.310 -0.2118  0.2138  0.5524
29535SOL    HW191143   6.568   5.197   7.280 -1.2004  1.7992 -1.5249
29535SOL    HW291144   6.458   5.249   7.371  0.2033 -0.5379  1.5616
29536SOL     OW91145   7.795   8.458   8.076  0.5481 -0.3838  0.0560
29536SOL    HW191146   7.766   8.473   7.986 -1.0249  0.0966  0.6368
29536SOL    HW291147   7.819   8.365   8.078  0.4581 -0.4307 -0.8152
29537SOL     OW91148   2.574   1.271   7.612  0.6775  0.3678 -0.2637
29537SOL    HW191149   2.553   1.334   7.543  1.1259  0.1863 -0.5696
29537SOL    HW291150   2.664   1.245   7.594  0.9326  0.6118  0.6166
29538SOL     OW91151   8.872   1.327   6.254  0.0206 -0.1200 -0.4531
29538SOL    HW191152   8.906   1.320   6.344 -0.5275 -1.6170 -0.3372
29538SOL    HW291153   8.943   1.367   6.204  1.7021 -2.4503 -0.0524
29539SOL     OW91154   0.447   7.625   8.788 -0.1227  0.3758  0.5362
29539SOL    HW191155   0.379   7.605   8.724  0.4893  1.1829 -0.3810
29539SOL    HW291156   0.526   7.639   8.736  0.8234 -0.8250  1.6044
29540SOL     OW91157   9.769   9.437   2.689 -0.0708  0.1357 -0.3006
29540SOL    HW191158   9.701   9.471   2.630  0.0296 -1.2992 -1.2599
29540SOL    HW291159   9.720   9.399   2.762 -0.1975  1.7826  0.4965
29541SOL     OW91160   7.894   9.851   2.315 -0.4647  0.0444  0.2763
29541SOL    HW191161   7.828   9.898   2.365  0.3359  0.5880  0.8387
29541SOL    HW291162   7.861   9.762   2.310 -0.6731  0.0253  1.5999
29542SOL     OW91163   9.973   4.053   5.092 -0.0813 -0.1755 -0.2047
29542SOL    HW191164   9.900   4.103   5.128  1.2266  1.0159  0.8468
29542SOL    HW291165   9.944   3.961   5.096 -0.5878  0.0725  2.4267
29543SOL     OW91166   5.258   8.102   8.474  0.3418 -0.0514 -0.3326
29543SOL    HW191167   5.263   8.197   8.483  0.2723 -0.1371  0.6749
29543SOL    HW291168   5.165   8.081   8.487 -0.1294 -0.0172 -3.2097
29544SOL     OW91169   4.601   7.370   9.473  0.0922  0.7246  0.1820
29544SOL    HW191170   4.617   7.363   9.379  1.4613 -0.5926  0.4835
29544SOL    HW291171   4.676   7.325   9.513 -0.7739  0.7587  1.8806
29545SOL     OW91172   2.553   8.582   0.603  0.1526  0.1930 -0.2486
29545SOL    HW191173   2.575   8.502   0.652  0.1475  1.1239  1.3124
29545SOL    HW291174   2.636   8.627   0.592  0.0763  0.2282 -0.6536
29546SOL     OW91175   8.074   8.225   5.729 -0.8146 -0.5904 -0.3415
29546SOL    HW191176   8.066   8.130   5.739  2.6428 -1.1030 -1.4711
29546SOL    HW291177   8.113   8.255   5.811 -1.2895 -0.2292 -0.2455
29547SOL     OW91178   0.175   8.308   0.102  0.0984  0.0012 -0.3640
29547SOL    HW191179   0.206   8.364   0.031  0.1491  1.5344  0.8254
29547SOL    HW291180   0.129   8.368   0.161 -1.8563 -1.5957 -0.2052
29548SOL     OW91181   0.352   1.304   3.032 -0.1663 -0.2922 -0.8417
29548SOL    HW191182   0.334   1.386   2.987 -1.2480  0.2690  0.5518
29548SOL    HW291183   0.441   1.281   3.006  0.5030  1.8154 -0.5128
29549SOL     OW91184   0.999   6.791   4.096 -0.3794 -0.0657  0.1594
29549SOL    HW191185   1.094   6.800   4.090 -0.3051  0.3101  1.6461
29549SOL    HW291186   0.965   6.865   4.044  0.1200 -0.4809 -0.7785
29550SOL     OW91187   9.416   6.967   2.001 -0.1194  0.0570 -0.2882
29550SOL    HW191188   9.479   7.034   1.975 -0.2254  0.2772  0.0313
29550SOL    HW291189   9.452   6.930   2.081 -0.0515 -0.2845 -0.4742
29551SOL     OW91190   0.876  10.159   7.443 -0.4343  0.0479 -0.2645
29551SOL    HW191191   0.792  10.204   7.441 -1.7236 -2.3328 -1.9844
29551SOL    HW291192   0.914  10.174   7.356 -0.0334 -0.6700 -0.2161
29552SOL     OW91193   6.552   7.782   6.211  0.1434  0.0813  0.0430
29552SOL    HW191194   6.554   7.719   6.139 -2.0119  0.2630 -0.1870
29552SOL    HW291195   6.511   7.735   6.283 -0.7794  0.9535  0.1050
29553SOL     OW91196   0.803   8.808   2.061  0.2363  0.1925 -0.5827
29553SOL    HW191197   0.739   8.856   2.113 -0.6259 -0.9409 -0.5809
29553SOL    HW291198   0.791   8.842   1.972 -0.9022 -0.5380 -0.7224
29554SOL     OW91199   5.007   2.852   2.761 -0.2046 -0.3792 -0.0860
29554SOL    HW191200   4.954   2.805   2.825 -0.7529 -1.4352 -1.2793
29554SOL    HW291201   4.945   2.913   2.720  0.2719  0.6770  0.7695
29555SOL     OW91202   7.444   2.906   3.062 -0.4036  0.1175 -0.6028
29555SOL    HW191203   7.515   2.843   3.071 -1.4186 -0.9727 -0.0197
29555SOL    HW291204   7.451   2.962   3.140  0.9209  1.1818 -1.4695
29556SOL     OW91205   0.237   7.858   8.722  0.0239  0.2423 -0.0921
29556SOL    HW191206   0.235   7.762   8.725  0.5354  0.2548  0.7439
29556SOL    HW291207   0.208   7.879   8.633  3.1606 -0.8039 -1.4227
29557SOL     OW91208   9.087  10.201   7.076 -0.1920 -0.4255 -1.0519
29557SOL    HW191209   9.087  10.220   7.169  1.8362 -0.8835 -0.9328
29557SOL    HW291210   9.069  10.107   7.071 -0.4075 -0.3799 -1.1261
29558SOL     OW91211   7.118   4.447   7.513 -0.2894  0.0104 -0.0430
29558SOL    HW191212   7.165   4.385   7.568 -0.4534  1.7079  2.0861
29558SOL    HW291213   7.036   4.403   7.492 -1.3165  0.2579  3.1751
29559SOL     OW91214   5.572   2.556   3.222  0.0372  1.0688  0.4502
29559SOL    HW191215   5.636   2.627   3.212 -0.4319  1.5584  0.9669
29559SOL    HW291216   5.609   2.500   3.290  1.0732  0.0786 -0.8833
29560SOL     OW91217   8.970   4.790   4.899 -0.1241  0.1404  0.2422
29560SOL    HW191218   8.908   4.835   4.956  0.5061  2.6917 -0.9688
29560SOL    HW291219   9.051   4.784   4.950 -0.3947 -0.0975  0.6310
29561SOL     OW91220   5.357   9.452   0.918  0.1935  0.3726 -0.6296
29561SOL    HW191221   5.443   9.494   0.921  0.2231  0.2279  0.7252
29561SOL    HW291222   5.302   9.506   0.975 -0.0762 -0.7269  0.1555
29562SOL     OW91223   8.278   8.474   5.662  0.1269 -0.0557 -0.1071
29562SOL    HW191224   8.251   8.430   5.742 -0.1013  0.5430  0.1534
29562SOL    HW291225   8.239   8.423   5.591 -0.8522  0.2322  0.2267
29563SOL     OW91226   4.004   8.648   3.579  0.3741  0.1200 -0.0502
29563SOL    HW191227   3.913   8.658   3.608  0.4153 -0.4838  0.3052
29563SOL    HW291228   4.048   8.728   3.607  0.1237  0.0842  0.4493
29564SOL     OW91229   6.145   6.014   9.317 -0.3039 -0.6421 -0.4268
29564SOL    HW191230   6.110   6.103   9.309  1.1309 -0.1154 -1.2326
29564SOL    HW291231   6.238   6.024   9.296  0.5130 -1.8481  2.4984
29565SOL     OW91232   8.185   4.091   5.142  0.0683  0.8411 -0.0951
29565SOL    HW191233   8.212   4.083   5.051  0.3277 -0.5702  0.0891
29565SOL    HW291234   8.217   4.177   5.169 -0.0171  1.2697 -1.3342
29566SOL     OW91235   0.354   0.531   0.659  0.5512 -0.5349 -0.3761
29566SOL    HW191236   0.383   0.509   0.748 -2.0458  0.3163  0.7159
29566SOL    HW291237   0.364   0.449   0.610 -0.9358 -1.8927  1.5110
29567SOL     OW91238   1.457   5.627   8.294 -0.3059  0.1256 -0.1778
29567SOL    HW191239   1.464   5.691   8.223 -0.1199  0.4286  0.1162
29567SOL    HW291240   1.513   5.555   8.267  1.0710  0.9531  0.4413
29568SOL     OW91241   1.832   0.407   4.782 -0.6346  0.0043 -0.0578
29568SOL    HW191242   1.848   0.468   4.710  0.2608 -0.7218 -0.4947
29568SOL    HW291243   1.749   0.365   4.760 -1.2923  1.1233  0.2891
29569SOL     OW91244   5.566   5.537   8.885  0.7204 -0.2044 -0.4557
29569SOL    HW191245   5.581   5.480   8.809  0.0748  1.5444 -1.9333
29569SOL    HW291246   5.652   5.549   8.924  0.9965 -1.4418 -0.6585
29570SOL     OW91247   2.894   2.182   5.455 -0.6152  0.6201  0.1612
29570SOL    HW191248   2.899   2.230   5.538 -0.0398 -0.8811  1.0196
29570SOL    HW291249   2.813   2.131   5.463  0.5159 -1.1374  0.7172
29571SOL     OW91250   0.205   9.532   4.887 -0.1393  0.1703  0.0957
29571SOL    HW191251   0.206   9.437   4.873  1.7114 -0.3446  3.1225
29571SOL    HW291252   0.121   9.561   4.851  0.3038 -2.2183 -3.0874
29572SOL     OW91253   3.619   1.754   7.281  0.2149 -0.0210  0.0497
29572SOL    HW191254   3.641   1.679   7.336 -0.3133 -1.0197 -1.0805
29572SOL    HW291255   3.642   1.726   7.193  0.7552  1.4480 -0.2920
29573SOL     OW91256   4.374   0.558   3.930  0.1993  0.2584 -0.2016
29573SOL    HW191257   4.369   0.600   3.844 -0.7557  1.8900  0.6469
29573SOL    HW291258   4.461   0.582   3.963 -0.3166  1.5396  0.2522
29574SOL     OW91259   8.945   7.538   9.634  0.1716  0.6731 -0.1242
29574SOL    HW191260   8.882   7.477   9.595 -0.4240  0.9935  0.3216
29574SOL    HW291261   8.959   7.506   9.723  1.8396 -0.2826 -0.7112
29575SOL     OW91262   6.771   4.391   2.917 -0.7047 -0.1350 -0.2223
29575SOL    HW191263   6.813   4.306   2.905  1.3016  0.8514 -0.3517
29575SOL    HW291264   6.751   4.422   2.829 -1.0227 -0.2666 -0.1970
29576SOL     OW91265   9.844   8.928   3.204  0.6557 -0.7652 -0.2447
29576SOL    HW191266   9.788   9.003   3.224  0.1051 -1.1921 -0.1523
29576SOL    HW291267   9.792   8.876   3.141  2.0361  0.1819 -2.2236
29577SOL     OW91268   9.543   4.679   0.144 -0.2357 -0.1654 -0.5187
29577SOL    HW191269   9.607   4.717   0.085 -2.3932  1.0321 -2.1725
29577SOL    HW291270   9.516   4.751   0.201 -1.2009 -0.2737 -0.8328
29578SOL     OW91271   1.272   8.574   0.498 -0.1100 -0.3518  0.2697
29578SOL    HW191272   1.353   8.523   0.494 -0.3959 -0.7579 -0.3114
29578SOL    HW291273   1.291   8.642   0.562  1.6045  1.1090 -1.6837
29579SOL     OW91274   0.851   1.097   3.504  0.1261  0.1158 -0.1685
29579SOL    HW191275   0.916   1.147   3.455 -1.3934  1.6334 -0.6898
29579SOL    HW291276   0.862   1.126   3.595 -0.1619  0.7594 -0.3354
29580SOL     OW91277   8.803   0.035   6.099  0.5447  0.1034  0.0352
29580SOL    HW191278   8.874   0.008   6.041  1.8423 -0.2466  1.7481
29580SOL    HW291279   8.737   0.071   6.040  0.7682 -2.4525 -1.8693
29581SOL     OW91280   6.065   7.737   3.350  0.7737  0.3240  0.4994
29581SOL    HW191281   6.000   7.725   3.281  1.6832  0.0867 -0.3405
29581SOL    HW291282   6.116   7.656   3.349  0.4556  0.0939  1.8276
29582SOL     OW91283   4.315   5.531   6.919 -0.1481  0.1439 -0.5378
29582SOL    HW191284   4.330   5.600   6.855  1.7579  0.0203 -0.2642
29582SOL    HW291285   4.352   5.452   6.880  0.7888  0.0123  0.5853
29583SOL     OW91286   8.981   5.186   4.344  0.5570 -0.1815 -0.0446
29583SOL    HW191287   9.026   5.197   4.427  0.0908  1.2961  0.0428
29583SOL    HW291288   8.897   5.147   4.367  0.0966  0.9864  0.2801
29584SOL     OW91289   5.763   2.905   0.804  0.1375 -0.6299 -0.2069
29584SOL    HW191290   5.842   2.852   0.798  0.7047  0.1912  0.0175
29584SOL    HW291291   5.755   2.926   0.897 -0.4438 -0.8589 -0.2004
29585SOL     OW91292   0.631   8.357   3.183  0.3422  0.1548  0.7686
29585SOL    HW191293   0.702   8.343   3.245  0.8299 -0.6014  0.0499
29585SOL    HW291294   0.671   8.412   3.114 -0.0415  0.5329  0.8465
29586SOL     OW91295   7.649   5.851   6.809  0.5983  0.3826 -0.0644
29586SOL    HW191296   7.717   5.917   6.822  0.2151  0.7148  0.2356
29586SOL    HW291297   7.587   5.891   6.748 -0.4096  0.8667  1.2702
29587SOL     OW91298   9.707   6.824   3.005 -0.3652  0.0693 -0.0848
29587SOL    HW191299   9.613   6.824   2.986 -0.2837  1.7279 -0.5216
29587SOL    HW291300   9.720   6.895   3.068  0.7956  0.7593 -1.0787
29588SOL     OW91301   4.136   2.522   4.426  0.0406 -0.1960 -0.4607
29588SOL    HW191302   4.135   2.570   4.509  0.8326  0.3177 -0.7362
29588SOL    HW291303   4.100   2.436   4.448  3.3686 -1.2655  1.2029
29589SOL     OW91304   0.240   3.995   3.452  0.0034 -0.5473  0.0570
29589SOL    HW191305   0.210   4.083   3.477 -0.7097 -0.2447 -1.7867
29589SOL    HW291306   0.249   3.948   3.536  0.9346  1.4377  1.1038
29590SOL     OW91307   0.713   8.756   9.385 -0.4238 -0.1088  0.4879
29590SOL    HW191308   0.766   8.836   9.377 -0.6813 -0.1264 -1.7585
29590SOL    HW291309   0.768   8.695   9.433  0.9461  0.4373 -0.3605
29591SOL     OW91310   0.924   4.452   7.047 -0.4522 -0.4858  0.0503
29591SOL    HW191311   0.865   4.510   6.998 -2.9151 -2.3227  0.7163
29591SOL    HW291312   1.006   4.456   6.999 -1.0432  2.2677 -0.8458
29592SOL     OW91313   7.474   7.578   7.788  0.4927  0.5146  0.1876
29592SOL    HW191314   7.431   7.658   7.819 -1.4390  0.0417 -1.1421
29592SOL    HW291315   7.566   7.603   7.776  0.0541  2.3370  0.4532
29593SOL     OW91316   1.437   7.876   7.151 -0.2257  0.5660 -0.3966
29593SOL    HW191317   1.501   7.924   7.100  0.3583  1.2514  0.9622
29593SOL    HW291318   1.480   7.794   7.174 -0.0746  0.7449 -0.0409
29594SOL     OW91319   0.472   1.016   7.326  0.5671 -0.3832 -0.6824
29594SOL    HW191320   0.519   1.095   7.299  1.0233 -0.1694  0.6671
29594SOL    HW291321   0.421   0.990   7.249 -0.2603  1.7107 -0.8772
29595SOL     OW91322   4.852   8.062   4.305 -0.4182 -0.2456  0.7776
29595SOL    HW191323   4.919   8.112   4.351  1.0620 -1.5464  0.0733
29595SOL    HW291324   4.879   8.064   4.213 -0.0546 -2.6990  0.7860
29596SOL     OW91325   8.507   8.865   9.649  0.3303 -0.1126  0.1662
29596SOL    HW191326   8.555   8.935   9.693 -0.8333  0.6755  0.2200
29596SOL    HW291327   8.537   8.784   9.692  2.5119  0.2352 -0.6583
29597SOL     OW91328   0.638   4.153   8.572 -0.0125 -0.0865  0.2977
29597SOL    HW191329   0.604   4.241   8.562  0.5347  0.2191  1.1021
29597SOL    HW291330   0.561   4.096   8.565 -0.6491  0.5736  1.7605
29598SOL     OW91331   1.199   0.233   1.818 -0.5586 -0.1602 -0.2301
29598SOL    HW191332   1.199   0.139   1.836 -2.6128 -0.0516  0.4883
29598SOL    HW291333   1.237   0.241   1.731  0.2282 -1.5943 -0.0352
29599SOL     OW91334   5.425   6.630   0.843  0.1244  0.4337 -0.2810
29599SOL    HW191335   5.422   6.632   0.748  1.8523 -0.3940 -0.3756
29599SOL    HW291336   5.474   6.550   0.864 -1.1204  0.0679  1.3252
29600SOL     OW91337   7.242   0.227   2.544  0.4243  0.2821  0.1869
29600SOL    HW191338   7.316   0.167   2.543 -1.8821 -2.8527  2.6770
29600SOL    HW291339   7.242   0.264   2.633  0.0984  1.7314 -0.3971
29601SOL     OW91340   6.116   1.045   5.874  0.0607  0.1218  0.2903
29601SOL    HW191341   6.210   1.044   5.892 -0.0147  2.2904  1.0200
29601SOL    HW291342   6.094   0.954   5.854  2.1645 -0.5438  0.8533
29602SOL     OW91343   3.178   0.984   5.468  0.3208 -0.1506  0.7162
29602SOL    HW191344   3.244   1.050   5.488  0.1820  0.4941 -0.8554
29602SOL    HW291345   3.095   1.028   5.482  0.2258 -0.4508  1.0984
29603SOL     OW91346   5.497   6.030   2.797 -0.1530 -0.2923  0.0884
29603SOL    HW191347   5.414   6.068   2.827 -0.8085 -0.2296 -1.7548
29603SOL    HW291348   5.524   6.085   2.724  1.2110 -0.6840  0.2782
29604SOL     OW91349   3.704   1.811   9.622 -0.1571 -0.0995 -0.0817
29604SOL    HW191350   3.624   1.764   9.599 -0.7699  1.0675 -0.3772
29604SOL    HW291351   3.709   1.883   9.559  0.0187  1.0540  1.2155
29605SOL     OW91352   8.937   1.771   4.229  0.5098  0.5473  0.0697
29605SOL    HW191353   8.997   1.702   4.203 -0.7309 -0.3115 -0.5856
29605SOL    HW291354   8.900   1.740   4.312 -0.4157  0.1689 -0.4732
29606SOL     OW91355   3.845   4.929   0.630 -0.2427  0.2372 -0.5221
29606SOL    HW191356   3.928   4.882   0.622 -0.4939 -0.5383  1.3862
29606SOL    HW291357   3.790   4.873   0.684 -1.4286  1.5487 -0.3417
29607SOL     OW91358   2.592   2.287   9.410  0.2013  0.0350 -0.6748
29607SOL    HW191359   2.513   2.339   9.396 -0.7310 -0.9014  0.9950
29607SOL    HW291360   2.591   2.223   9.339 -0.3963  0.1889 -0.8102
29608SOL     OW91361   3.180   7.386   9.810 -0.3519  0.3037  0.1008
29608SOL    HW191362   3.110   7.326   9.783  0.0927 -0.3194  0.3262
29608SOL    HW291363   3.171   7.461   9.751 -0.6563 -0.1582 -0.4523
29609SOL     OW91364   0.244   1.621   8.828  0.0428  0.2456  0.1813
29609SOL    HW191365   0.171   1.631   8.766 -1.8749  1.2208  2.5085
29609SOL    HW291366   0.241   1.529   8.854  0.2455  0.0661 -0.4104
29610SOL     OW91367   1.472   8.097   9.189  0.0860  0.1608 -0.3990
29610SOL    HW191368   1.544   8.154   9.160  1.6663 -2.4240 -1.8073
29610SOL    HW291369   1.413   8.093   9.114  2.0543 -3.2101 -1.8633
29611SOL     OW91370   0.203   0.661   2.040 -0.2759 -0.2200 -0.5190
29611SOL    HW191371   0.213   0.567   2.053  1.3610  0.1546  1.1006
29611SOL    HW291372   0.110   0.678   2.051 -0.2665 -1.3338  1.3409
29612SOL     OW91373   7.272   3.043   9.317 -0.1883  0.1308  0.0377
29612SOL    HW191374   7.347   3.053   9.258 -0.7763  0.6926 -0.6297
29612SOL    HW291375   7.225   3.126   9.309 -0.8619 -0.2114  0.4668
29613SOL     OW91376   4.240   7.072   7.435 -0.0421 -0.0317  0.5182
29613SOL    HW191377   4.225   7.165   7.422  0.2369  0.2189  1.8843
29613SOL    HW291378   4.220   7.032   7.350 -2.7827  0.9585  0.6271
29614SOL     OW91379   9.546   2.311   2.761 -0.6523  0.1973 -0.0106
29614SOL    HW191380   9.541   2.402   2.790 -2.8306  0.2920 -0.5701
29614SOL    HW291381   9.466   2.270   2.795  0.7970 -1.7772  1.0899
29615SOL     OW91382   0.451   2.440   4.424 -0.2990 -0.2490  0.3272
29615SOL    HW191383   0.544   2.422   4.429 -0.2970 -0.3482 -0.0941
29615SOL    HW291384   0.441   2.496   4.347 -0.7592 -1.3127 -0.3907
29616SOL     OW91385   8.367   2.527   7.774  0.3805 -0.5220  0.2794
29616SOL    HW191386   8.445   2.524   7.830  0.6402  2.8100  0.1835
29616SOL    HW291387   8.402   2.538   7.685 -0.1501 -2.1200 -0.1470
29617SOL     OW91388   4.562   9.480   4.453 -0.1307  0.2787  0.0417
29617SOL    HW191389   4.476   9.500   4.417 -0.1467 -2.3958 -1.5671
29617SOL    HW291390   4.619   9.549   4.418 -1.3380  1.2896  0.0199
29618SOL     OW91391   0.310   1.940   9.821  0.2877  0.0457 -0.5728
29618SOL    HW191392   0.281   1.857   9.784 -2.1201 -0.2811  1.8117
29618SOL    HW291393   0.353   1.916   9.903 -0.2864  1.1154  0.0591
29619SOL     OW91394   3.898   6.088   8.961  0.0576 -0.1434 -0.0078
29619SOL    HW191395   3.990   6.111   8.968  0.4738 -1.7048 -0.0597
29619SOL    HW291396   3.868   6.082   9.052 -0.1105  0.7704  0.0028
29620SOL     OW91397   8.982   5.149   7.613 -0.0994  0.3523  0.0103
29620SOL    HW191398   8.947   5.138   7.702 -0.5591  1.7339  0.0139
29620SOL    HW291399   8.943   5.231   7.582 -0.9595 -0.7929 -1.9691
29621SOL     OW91400  10.083   2.754   5.191  0.3402  0.3361  0.3012
29621SOL    HW191401  10.034   2.686   5.146  1.7163 -1.1194  0.9482
29621SOL    HW291402  10.096   2.822   5.126 -0.0556 -0.5366 -0.6922
29622SOL     OW91403   8.906   4.432   9.655  0.0912 -0.0956  0.0492
29622SOL    HW191404   8.874   4.488   9.585  3.2186  0.0661 -1.3692
29622SOL    HW291405   8.898   4.343   9.619 -0.4258 -0.1834  0.3875
29623SOL     OW91406   6.352   8.964  10.016  0.5706  0.4555 -0.4847
29623SOL    HW191407   6.411   8.993  10.085  0.7580 -0.8949 -0.0516
29623SOL    HW291408   6.264   8.988  10.046  0.7553  0.9069 -0.3161
29624SOL     OW91409   3.895   4.406   7.733  0.4325  0.2788 -0.2904
29624SOL    HW191410   3.829   4.337   7.737 -0.9356  1.4817 -1.9229
29624SOL    HW291411   3.977   4.361   7.755 -0.7215 -1.4652  0.5757
29625SOL     OW91412   4.444   3.203   4.086 -0.7367  0.7644  0.0882
29625SOL    HW191413   4.406   3.264   4.022 -3.5107 -0.0945  0.8280
29625SOL    HW291414   4.403   3.119   4.067  3.3811 -1.0689 -1.1978
29626SOL     OW91415   2.257   1.023   3.429  0.2190  0.3976 -0.2655
29626SOL    HW191416   2.165   1.031   3.452  0.2507 -1.0157  0.3918
29626SOL    HW291417   2.288   1.113   3.423 -1.0806  0.8705 -0.0193
29627SOL     OW91418   1.369   8.519   6.645  0.1514 -0.3496 -0.0933
29627SOL    HW191419   1.338   8.432   6.671 -0.9027 -0.0057 -0.1883
29627SOL    HW291420   1.354   8.522   6.551  1.7724 -0.6963 -0.3810
29628SOL     OW91421   3.803   4.488   2.997  0.2069  0.1685 -0.4389
29628SOL    HW191422   3.890   4.502   3.033 -0.3297  1.2856  0.4683
29628SOL    HW291423   3.745   4.540   3.053 -1.2553 -1.8690  0.0183
29629SOL     OW91424   9.102   1.035   8.047  0.3585 -0.1542 -0.4458
29629SOL    HW191425   9.098   1.118   8.094 -0.5169  0.5395 -1.7057
29629SOL    HW291426   9.019   0.993   8.066  0.6245 -0.5521 -0.1614
29630SOL     OW91427   4.970   9.486   4.239  0.1188  0.1713 -0.0195
29630SOL    HW191428   5.054   9.443   4.251  0.7980  1.2970 -0.6999
29630SOL    HW291429   4.988   9.561   4.182 -1.3922  0.2413 -0.4492
29631SOL     OW91430   6.900   3.453   3.891  0.3079  0.1044  0.0882
29631SOL    HW191431   6.838   3.391   3.929 -1.4528  1.3781 -0.6606
29631SOL    HW291432   6.972   3.398   3.860 -0.0719 -1.3134  1.6527
29632SOL     OW91433   4.450   2.891   1.328  0.4077 -0.4132 -0.9169
29632SOL    HW191434   4.376   2.937   1.287  0.7406  0.2014 -0.8454
29632SOL    HW291435   4.519   2.957   1.332  0.5743 -0.6401  0.0959
29633SOL     OW91436   0.625   1.473  10.009  0.1310 -0.1549  0.0429
29633SOL    HW191437   0.594   1.417   9.937  0.1119 -1.4182  1.0066
29633SOL    HW291438   0.547   1.486  10.063  0.1155  0.8979 -0.2344
29634SOL     OW91439   8.549   1.134   3.291  0.3268 -0.1276  0.3275
29634SOL    HW191440   8.617   1.129   3.223  0.7397 -1.0595  0.7944
29634SOL    HW291441   8.596   1.158   3.371 -0.1611  0.9761  0.2905
29635SOL     OW91442   6.728   5.263   8.280 -0.0416  1.0160  0.5886
29635SOL    HW191443   6.723   5.176   8.242  1.8526  0.6590  1.0631
29635SOL    HW291444   6.693   5.322   8.213 -0.8118 -0.0541  0.0490
29636SOL     OW91445   9.872   7.089   9.291 -0.4824  1.1045 -0.1267
29636SOL    HW191446   9.950   7.100   9.345  0.3922 -3.3159 -0.3050
29636SOL    HW291447   9.803   7.068   9.354 -0.3947  0.1103 -0.3526
29637SOL     OW91448   5.682   6.783   1.418 -0.2734  0.5964 -0.4503
29637SOL    HW191449   5.662   6.779   1.324 -2.0783  0.1427 -0.0821
29637SOL    HW291450   5.599   6.808   1.458  0.3829  0.3914  1.0597
29638SOL     OW91451   9.793   5.048   4.908 -0.3639  0.2838 -0.3590
29638SOL    HW191452   9.864   5.019   4.966  0.5579  2.4344 -0.3710
29638SOL    HW291453   9.737   5.102   4.963 -1.5724 -0.7399 -0.5596
29639SOL     OW91454   7.351   7.958   2.023  0.1534 -0.2236 -0.3980
29639SOL    HW191455   7.413   7.928   1.957  0.2532 -1.4266  0.2222
29639SOL    HW291456   7.402   7.963   2.104 -0.7800 -2.3366  0.3728
29640SOL     OW91457  10.117   3.655   0.468 -0.9944 -0.4274  1.0955
29640SOL    HW191458  10.195   3.628   0.420 -0.6105  0.1664  1.3812
29640SOL    HW291459  10.103   3.746   0.442 -3.0266 -1.2350 -0.8556
29641SOL     OW91460   2.623   4.355   2.086 -0.2740  0.1279 -0.3970
29641SOL    HW191461   2.612   4.444   2.121  0.1511  0.0455 -0.0456
29641SOL    HW291462   2.537   4.331   2.054 -1.3835 -0.8951  3.1821
29642SOL     OW91463   4.152   6.052   6.819  0.0807 -0.2477 -0.1075
29642SOL    HW191464   4.157   5.964   6.859 -0.2370  0.4718  1.5616
29642SOL    HW291465   4.231   6.096   6.849 -0.6978  0.6641  0.6329
29643SOL     OW91466   1.797   3.102   4.445  0.0466 -0.0560 -0.8708
29643SOL    HW191467   1.789   3.114   4.540  0.8673 -1.9199 -0.5599
29643SOL    HW291468   1.866   3.164   4.419 -0.1434  0.4248 -0.2626
29644SOL     OW91469   6.029   3.279   3.161  0.3596 -0.3438  0.1259
29644SOL    HW191470   6.120   3.279   3.191  0.5064  1.9640 -0.1877
29644SOL    HW291471   5.982   3.327   3.230 -0.5267 -1.0908  0.0403
29645SOL     OW91472   5.207   6.587   2.627  0.0788 -0.2478 -0.0657
29645SOL    HW191473   5.251   6.654   2.575  1.0880 -0.1244  0.9571
29645SOL    HW291474   5.275   6.550   2.683 -0.4585 -2.1522 -0.6345
29646SOL     OW91475   4.327   3.034   5.024 -0.0614 -0.2313  0.0223
29646SOL    HW191476   4.326   3.125   4.995  2.6443 -0.3359 -0.4897
29646SOL    HW291477   4.395   3.030   5.091 -0.8363 -1.6815  0.7597
29647SOL     OW91478   4.443   9.866   1.653  0.3646  0.4352 -0.6231
29647SOL    HW191479   4.422   9.895   1.742 -1.8211  2.6688 -1.8215
29647SOL    HW291480   4.531   9.902   1.637  1.2009 -0.8153  0.9297
29648SOL     OW91481   2.365   4.725   9.690  0.4498  0.1848  0.1514
29648SOL    HW191482   2.274   4.733   9.663  0.2657 -3.1423 -0.4033
29648SOL    HW291483   2.415   4.730   9.608  0.6086 -0.3067  0.2203
29649SOL     OW91484   7.833   0.393  10.097  0.0068  0.1691 -0.2919
29649SOL    HW191485   7.851   0.387  10.003 -0.9207  0.8157 -0.5124
29649SOL    HW291486   7.796   0.480  10.109 -2.4119 -0.8981  0.2461
29650SOL     OW91487   2.621   9.970   2.387  0.5001  0.0767 -0.0062
29650SOL    HW191488   2.610  10.065   2.388 -0.8134 -0.0748  0.4622
29650SOL    HW291489   2.714   9.957   2.406  0.4788  1.2424  0.9402
29651SOL     OW91490   3.809   6.264   4.420 -0.4069  0.3929 -0.1439
29651SOL    HW191491   3.743   6.208   4.460 -0.7845  0.6490 -0.4155
29651SOL    HW291492   3.840   6.319   4.493  1.9970 -2.0594  0.8062
29652SOL     OW91493   9.169   5.279   1.053  0.0645 -0.2762 -0.5217
29652SOL    HW191494   9.092   5.248   1.101 -0.8143  0.1256 -1.6428
29652SOL    HW291495   9.137   5.354   1.002  1.7126  1.3047  0.6931
29653SOL     OW91496   7.651   0.158   4.429 -0.0668 -0.2375 -0.4894
29653SOL    HW191497   7.627   0.106   4.506 -0.3938 -0.3366 -0.6582
29653SOL    HW291498   7.650   0.095   4.356  0.2688 -0.1503 -0.5686
29654SOL     OW91499   0.492   9.938   1.944 -0.5620  0.0394 -0.1002
29654SOL    HW191500   0.472   9.975   2.030 -0.2913 -1.3537  0.5698
29654SOL    HW291501   0.568   9.882   1.959 -0.1634  0.2338 -1.3639
29655SOL     OW91502   8.323   9.715   4.297 -0.1560 -0.0511  0.1008
29655SOL    HW191503   8.399   9.771   4.312 -0.0056  0.0669 -1.0637
29655SOL    HW291504   8.280   9.709   4.382  0.0018  1.5653  0.2974
29656SOL     OW91505   0.463   8.112   4.143  0.0784  0.0715  0.0224
29656SOL    HW191506   0.372   8.091   4.164  0.5979 -1.2436  1.0452
29656SOL    HW291507   0.481   8.063   4.063  0.0935 -0.2625  0.2263
29657SOL     OW91508   2.483   9.417   5.975  0.4023  0.4941 -0.6718
29657SOL    HW191509   2.482   9.411   6.071 -1.0530 -2.1842 -0.8133
29657SOL    HW291510   2.447   9.504   5.956 -0.1179  0.7107  1.1974
29658SOL     OW91511   3.645   2.418   5.608 -0.3889  0.4388  0.0177
29658SOL    HW191512   3.740   2.410   5.616 -0.5023  0.1244  1.1715
29658SOL    HW291513   3.623   2.365   5.532  0.4382  1.1276 -0.7162
29659SOL     OW91514   5.946   7.235   8.879  0.4294 -0.2082 -0.5718
29659SOL    HW191515   5.946   7.200   8.969 -1.4383  1.0172 -0.0698
29659SOL    HW291516   6.038   7.251   8.860  1.0053 -1.9638  0.5316
29660SOL     OW91517   4.786   5.754   6.470  0.7826 -0.4041 -0.1064
29660SOL    HW191518   4.796   5.662   6.447  2.1851 -0.0755 -0.9096
29660SOL    HW291519   4.754   5.796   6.390 -0.1075 -0.2367  0.3338
29661SOL     OW91520   9.532   6.761   3.433 -0.1635 -0.1472 -0.2476
29661SOL    HW191521   9.559   6.734   3.345  0.1838  2.1640 -0.8809
29661SOL    HW291522   9.528   6.679   3.483  1.1734 -1.3157 -1.9911
29662SOL     OW91523   1.224   4.749   9.550  0.1673 -0.1467  0.6790
29662SOL    HW191524   1.296   4.757   9.488 -0.0587  2.1018  0.6728
29662SOL    HW291525   1.267   4.741   9.635  0.4352 -0.9179  0.4796
29663SOL     OW91526   1.087   4.532   2.960  0.3541 -0.0801  0.3326
29663SOL    HW191527   1.081   4.436   2.953 -1.0475  0.1222 -1.6927
29663SOL    HW291528   1.005   4.558   3.001  1.3961  0.1677  2.3401
29664SOL     OW91529   3.897   6.834   5.863  0.4498  0.1407 -0.5918
29664SOL    HW191530   3.821   6.831   5.921  0.0542  1.2626 -1.0389
29664SOL    HW291531   3.951   6.905   5.898 -0.1250  1.2802 -2.0031
29665SOL     OW91532   5.261   4.111   1.547  0.2420 -1.0228 -0.4863
29665SOL    HW191533   5.270   4.195   1.503 -2.8023  0.0101  0.7488
29665SOL    HW291534   5.256   4.047   1.476 -0.4558  0.1619 -1.5187
29666SOL     OW91535   2.209   1.883   9.235  0.1343  0.9828  0.2309
29666SOL    HW191536   2.259   1.924   9.165  2.0290 -0.0944  0.8903
29666SOL    HW291537   2.213   1.946   9.307 -0.0148  1.1852  0.0616
29667SOL     OW91538   8.070   4.378   1.890  0.1800 -0.1622 -0.2231
29667SOL    HW191539   8.113   4.401   1.807 -1.8803 -0.3725 -1.3857
29667SOL    HW291540   8.024   4.296   1.872  0.2684 -0.5670  1.3323
29668SOL     OW91541   4.961   9.098   0.115 -0.0190 -0.5101  0.1723
29668SOL    HW191542   4.867   9.104   0.128 -0.0182  2.9026 -0.9048
29668SOL    HW291543   4.998   9.104   0.203 -0.7336  0.7644  0.3913
29669SOL     OW91544   2.892   0.606   8.752 -0.0700  0.1471 -0.4918
29669SOL    HW191545   2.804   0.589   8.787 -0.3441 -2.0736 -2.1982
29669SOL    HW291546   2.910   0.533   8.694  2.0368  1.7052 -1.8872
29670SOL     OW91547   3.875   0.426   1.209  0.3993  0.5875  0.0943
29670SOL    HW191548   3.892   0.394   1.120  0.4052 -0.0853  0.3299
29670SOL    HW291549   3.794   0.381   1.235  0.0990  1.2009  0.2281
29671SOL     OW91550   1.243   2.759   9.935 -0.4655  0.5757 -0.4882
29671SOL    HW191551   1.329   2.781   9.902 -0.5181  0.5613 -0.6340
29671SOL    HW291552   1.234   2.811  10.015  0.5972 -1.1235  0.7694
29672SOL     OW91553   2.643   4.584   1.263 -0.2502  0.3880  0.4304
29672SOL    HW191554   2.705   4.550   1.328 -1.3709 -0.8736  0.8526
29672SOL    HW291555   2.667   4.540   1.182  0.6101  1.3292  0.1664
29673SOL     OW91556   0.535   4.542   1.003 -0.3589 -0.8625  0.2274
29673SOL    HW191557   0.477   4.479   0.959  1.0291  0.8293 -4.3876
29673SOL    HW291558   0.478   4.589   1.063 -3.1034 -1.5126 -1.7476
29674SOL     OW91559   3.144   0.426   7.237  0.5489  0.1228 -0.2984
29674SOL    HW191560   3.151   0.370   7.160  3.5925 -0.7237  0.5171
29674SOL    HW291561   3.199   0.384   7.303 -2.1113  0.7444  2.4393
29675SOL     OW91562   1.701   8.984   4.166 -0.0833  0.2730 -0.3669
29675SOL    HW191563   1.655   9.042   4.106  0.6897 -0.2114 -1.4441
29675SOL    HW291564   1.730   9.041   4.237 -1.3909  0.7706 -0.2061
29676SOL     OW91565   6.872   1.475   2.516  0.5185 -0.0147 -0.0495
29676SOL    HW191566   6.851   1.562   2.550  0.4705  0.2258 -0.6909
29676SOL    HW291567   6.934   1.439   2.580 -0.3800  0.0090  0.8521
29677SOL     OW91568   8.937   3.253   9.061  0.3452 -0.4242 -0.5072
29677SOL    HW191569   9.010   3.310   9.037 -0.9020  0.9919 -1.0348
29677SOL    HW291570   8.941   3.247   9.156  1.2674 -0.5210 -0.5485
29678SOL     OW91571   5.452   6.769   7.528 -0.5093  0.2761  0.3076
29678SOL    HW191572   5.379   6.710   7.511  0.0094 -0.0074 -1.0725
29678SOL    HW291573   5.428   6.851   7.484  0.3466 -0.0854 -0.8747
29679SOL     OW91574   5.357   9.348   6.015 -0.6335  0.1636  0.5920
29679SOL    HW191575   5.426   9.303   5.965  0.1521  1.9480  0.0478
29679SOL    HW291576   5.278   9.336   5.962 -0.3119 -0.0671  0.1573
29680SOL     OW91577   6.723   9.887   6.170 -0.5816 -0.3460 -0.8856
29680SOL    HW191578   6.694   9.839   6.093 -1.0469 -1.9844  0.2788
29680SOL    HW291579   6.678   9.845   6.243  0.4983  0.6193  0.3668
29681SOL     OW91580   8.888   8.977   9.822 -0.2583  0.1923 -0.0826
29681SOL    HW191581   8.960   9.038   9.829 -0.6535  0.5473  1.0070
29681SOL    HW291582   8.872   8.969   9.728  1.2838 -0.0128 -0.3401
29682SOL     OW91583   3.764   1.682   8.011 -0.2671  0.0173 -0.2647
29682SOL    HW191584   3.794   1.594   7.991  0.8080  0.2380  0.3561
29682SOL    HW291585   3.686   1.694   7.957  0.3363 -0.8257 -1.3279
29683SOL     OW91586   6.760   5.325   2.293  0.2533 -0.2118 -0.0166
29683SOL    HW191587   6.799   5.353   2.211 -1.6619  2.5258 -0.0603
29683SOL    HW291588   6.829   5.338   2.358  0.5760  1.2474 -0.6303
29684SOL     OW91589   9.831   5.420   8.883 -0.0223  0.5189  0.4719
29684SOL    HW191590   9.875   5.338   8.907 -0.0582  0.2762 -0.2765
29684SOL    HW291591   9.882   5.488   8.928  0.1068  0.1012  0.9628
29685SOL     OW91592   0.864  10.035   7.885 -0.4820 -0.0099  0.0575
29685SOL    HW191593   0.876  10.111   7.943 -1.9023  0.5729 -0.3913
29685SOL    HW291594   0.924   9.969   7.919 -1.6899  0.1208  2.5594
29686SOL     OW91595   2.065   8.204   8.167 -0.4710 -0.3994  0.4719
29686SOL    HW191596   2.046   8.150   8.090  1.2231 -0.9801  0.4480
29686SOL    HW291597   2.077   8.292   8.131  0.4373 -0.6894  0.0430
29687SOL     OW91598   5.329   5.423   8.316  0.5612  0.4604 -0.1287
29687SOL    HW191599   5.330   5.343   8.368  1.4357 -0.2002 -1.1556
29687SOL    HW291600   5.353   5.396   8.228  1.7722  1.9816 -0.3041
29688SOL     OW91601   4.040   6.270   8.286 -0.5530  0.0076 -0.0333
29688SOL    HW191602   4.124   6.225   8.292 -0.4958  0.2026  0.6423
29688SOL    HW291603   4.016   6.263   8.193 -0.8087 -1.8746  0.1455
29689SOL     OW91604   8.501   2.705   1.902  0.0765 -0.1664  0.1165
29689SOL    HW191605   8.438   2.737   1.837  1.2933  0.5839 -0.7070
29689SOL    HW291606   8.462   2.624   1.935 -0.2581 -0.9313 -2.0386
29690SOL     OW91607   2.455   5.626   3.399 -0.5600 -0.3878  0.3086
29690SOL    HW191608   2.402   5.686   3.452  0.1229  0.1146  0.4192
29690SOL    HW291609   2.542   5.665   3.398 -0.9130  0.5309 -2.5608
29691SOL     OW91610   3.062   2.114   0.762 -0.0821  0.3752 -0.4004
29691SOL    HW191611   3.111   2.031   0.765 -0.4659  0.1385 -0.6087
29691SOL    HW291612   3.100   2.161   0.688 -1.9106 -0.9220 -2.2329
29692SOL     OW91613   8.739   6.665   0.067  0.1318  0.4660 -0.1344
29692SOL    HW191614   8.659   6.621   0.097 -0.1701  0.4596 -0.9409
29692SOL    HW291615   8.738   6.749   0.114 -0.9380  0.9409 -0.9609
29693SOL     OW91616   0.485   9.422   4.101  0.6290  0.6603  0.3137
29693SOL    HW191617   0.577   9.422   4.127  0.3410 -1.1379  1.3913
29693SOL    HW291618   0.468   9.512   4.073  2.0031  1.7052  2.6687
29694SOL     OW91619   7.146   6.021   3.673 -0.6581 -0.2112 -0.4856
29694SOL    HW191620   7.105   6.029   3.759 -0.8037  1.9746 -0.7270
29694SOL    HW291621   7.217   5.958   3.686 -0.2288  0.6265  1.4023
29695SOL     OW91622   8.904   4.236   6.682 -0.7237 -0.0383 -0.6083
29695SOL    HW191623   8.930   4.176   6.751  1.2114  1.4607  0.0215
29695SOL    HW291624   8.849   4.301   6.725  0.1601  0.6689 -0.5100
29696SOL     OW91625   0.536   2.234   1.150  0.2417  0.6485 -0.0118
29696SOL    HW191626   0.566   2.311   1.197  0.8313  1.1504 -1.1957
29696SOL    HW291627   0.567   2.246   1.060 -0.3815 -0.5589 -0.4103
29697SOL     OW91628  10.003   9.402   2.992 -0.0671 -0.2483  0.4198
29697SOL    HW191629  10.040   9.346   2.923 -0.0698  0.8774 -0.5092
29697SOL    HW291630   9.927   9.353   3.024 -0.1998 -0.6935 -0.5396
29698SOL     OW91631   7.675   8.235   6.375  0.0702  0.0104 -0.5378
29698SOL    HW191632   7.721   8.311   6.339 -1.5020  0.0190 -2.6044
29698SOL    HW291633   7.681   8.246   6.469  2.3393  1.1929 -0.7818
29699SOL     OW91634   7.175   0.968   3.056  0.1524 -0.2728 -0.3595
29699SOL    HW191635   7.112   0.897   3.043  0.8355 -0.8650 -0.4893
29699SOL    HW291636   7.205   0.958   3.146 -1.2929  1.1319  0.2935
29700SOL     OW91637   4.695   6.968   6.213  0.2398  0.2770  0.1031
29700SOL    HW191638   4.705   6.967   6.309  0.5326  0.6004  0.0780
29700SOL    HW291639   4.714   7.059   6.189  2.2571 -0.2649 -0.4772
29701SOL     OW91640   4.032   1.836   4.339  0.6273 -0.2372 -0.1332
29701SOL    HW191641   4.089   1.829   4.416  1.0828  0.2063 -0.4193
29701SOL    HW291642   4.024   1.747   4.306 -0.9287 -0.6885  1.3836
29702SOL     OW91643   9.955   1.465   0.685 -0.1022  0.1479  0.1222
29702SOL    HW191644   9.918   1.420   0.760 -1.3230  1.9085  0.6082
29702SOL    HW291645   9.950   1.401   0.614 -1.2136 -0.7018  0.9471
29703SOL     OW91646   3.908   4.960   5.104  0.3417  1.0422  0.8246
29703SOL    HW191647   3.913   4.933   5.012  1.0475  2.3002  0.4787
29703SOL    HW291648   3.834   4.910   5.139 -0.7054  1.4235 -0.7386
29704SOL     OW91649   2.518   8.409   6.877 -0.2690  0.2392 -0.4245
29704SOL    HW191650   2.592   8.436   6.823 -0.4452  1.3644 -0.1207
29704SOL    HW291651   2.540   8.321   6.905  0.1598 -0.0778 -1.7341
29705SOL     OW91652   6.579   5.047   4.949  0.4335  0.2575 -0.3011
29705SOL    HW191653   6.545   4.969   4.993 -0.2583  2.1155  2.6496
29705SOL    HW291654   6.518   5.062   4.876  1.2728 -2.5856 -1.6304
29706SOL     OW91655   1.487   1.250   6.661  0.3581 -0.1353  0.5010
29706SOL    HW191656   1.545   1.194   6.609  1.5250  1.0868  0.4538
29706SOL    HW291657   1.435   1.189   6.713  1.1396 -1.2812 -0.0362
29707SOL     OW91658   7.087  10.179   8.046  0.4028  0.2545  1.0120
29707SOL    HW191659   7.051  10.092   8.031  0.4815 -0.0856  2.6654
29707SOL    HW291660   7.103  10.182   8.141  2.2888  1.3270  0.6872
29708SOL     OW91661   1.325   3.293   7.385 -0.1326  0.3722  0.1644
29708SOL    HW191662   1.385   3.221   7.404  0.3637  0.7881  0.1901
29708SOL    HW291663   1.381   3.363   7.354 -0.6530  0.6353 -0.1838
29709SOL     OW91664   7.614   3.681   9.183  0.3558 -0.3983 -0.2573
29709SOL    HW191665   7.551   3.721   9.243  1.2879  1.4558 -0.4763
29709SOL    HW291666   7.578   3.696   9.096  0.3458 -0.6759 -0.3004
29710SOL     OW91667   0.941   0.365   1.907 -0.1870 -0.5603 -0.3070
29710SOL    HW191668   0.963   0.367   2.000  0.2254  1.8343 -0.4217
29710SOL    HW291669   1.004   0.305   1.868 -2.1354 -3.8310  1.3425
29711SOL     OW91670   0.282   0.888   6.632 -0.1004  0.5771  0.3989
29711SOL    HW191671   0.288   0.810   6.578 -1.6341 -0.6971  2.0083
29711SOL    HW291672   0.306   0.960   6.573 -0.4220 -0.9045 -1.5964
29712SOL     OW91673   9.135   6.046   8.147 -0.1557 -0.4830 -0.2932
29712SOL    HW191674   9.188   6.077   8.220  1.5445 -0.7003 -1.4187
29712SOL    HW291675   9.105   6.125   8.102 -0.5337 -0.3671  0.1645
29713SOL     OW91676   1.281   5.650   2.916  0.3613 -0.3568  0.4356
29713SOL    HW191677   1.374   5.627   2.923  0.6646  0.7335  0.0788
29713SOL    HW291678   1.266   5.660   2.822  0.2787  1.0000  0.5743
29714SOL     OW91679   6.150   5.492   2.112  0.0455  0.5485  0.1963
29714SOL    HW191680   6.088   5.554   2.073 -0.3428  0.5850  0.8551
29714SOL    HW291681   6.143   5.413   2.057  0.2588  0.9501 -0.4125
29715SOL     OW91682   6.622   2.695   2.698 -0.3902  0.2450 -0.3454
29715SOL    HW191683   6.535   2.696   2.660 -0.6327 -1.2815  0.1220
29715SOL    HW291684   6.647   2.602   2.697  1.2888  0.6847 -0.6262
29716SOL     OW91685   4.217   3.183   1.594  0.3894  0.5195 -0.5618
29716SOL    HW191686   4.151   3.145   1.652  2.2765 -0.5424  0.9434
29716SOL    HW291687   4.206   3.277   1.603 -0.9773  0.3545 -0.4068
29717SOL     OW91688   1.084   2.847   0.074 -0.3134  0.3976  0.0257
29717SOL    HW191689   1.158   2.882   0.024 -0.4904 -0.0976 -0.5873
29717SOL    HW291690   1.057   2.919   0.131  0.6488  0.5731  0.2651
29718SOL     OW91691  10.094   1.340   6.519  0.4907  0.0444 -0.5087
29718SOL    HW191692  10.143   1.279   6.574  0.6484 -0.4112 -1.1529
29718SOL    HW291693  10.063   1.408   6.580  0.3720 -0.6382  0.1979
29719SOL     OW91694   6.912   0.578  10.023 -0.1013  0.3552 -0.4515
29719SOL    HW191695   6.956   0.645   9.971  0.3181 -0.0887 -0.6741
29719SOL    HW291696   6.819   0.598  10.015 -0.0141  0.5324 -1.0385
29720SOL     OW91697   1.900   4.499   2.987 -0.0323 -0.4667 -0.1938
29720SOL    HW191698   1.921   4.503   3.080  0.4548  1.2476 -0.3608
29720SOL    HW291699   1.929   4.412   2.960  1.3207 -0.3745  0.9043
29721SOL     OW91700   9.612   4.766   6.211 -0.3295  0.5337 -0.6679
29721SOL    HW191701   9.586   4.845   6.259 -0.4976 -0.6505  1.2458
29721SOL    HW291702   9.670   4.719   6.272 -1.0346 -1.3020 -1.3905
29722SOL     OW91703   8.319   4.820   7.512 -0.5531  0.2524 -0.2675
29722SOL    HW191704   8.269   4.760   7.566  0.0599  1.1286  1.3110
29722SOL    HW291705   8.341   4.769   7.433 -0.2041 -1.5182  0.9439
29723SOL     OW91706   2.419   7.753   6.328  0.5312  0.7305  0.1150
29723SOL    HW191707   2.330   7.740   6.362  1.4415 -1.0363  1.9601
29723SOL    HW291708   2.411   7.738   6.234 -1.0207 -0.0854  0.3516
29724SOL     OW91709   1.260   2.812   2.461  0.7696 -0.3462  0.1046
29724SOL    HW191710   1.170   2.834   2.436  0.8409 -1.1841 -0.9312
29724SOL    HW291711   1.255   2.793   2.555 -0.7388 -3.2875 -0.4966
29725SOL     OW91712   9.134   0.501   0.934  0.6924  0.8313  0.2778
29725SOL    HW191713   9.110   0.451   0.855  3.5079 -0.4453  0.1525
29725SOL    HW291714   9.160   0.587   0.901 -1.0305  1.3257  0.1544
29726SOL     OW91715   8.989   8.614  10.004  0.4079 -0.0983 -0.2223
29726SOL    HW191716   8.961   8.705  10.012  0.4764 -0.0084 -0.9667
29726SOL    HW291717   8.929   8.576   9.939  2.2840  0.2146 -2.1922
29727SOL     OW91718   7.418   8.311   9.510 -0.0890  0.5530  0.0044
29727SOL    HW191719   7.465   8.231   9.487  1.2791  1.3178  0.0898
29727SOL    HW291720   7.389   8.297   9.600  0.1657  0.1558  0.0268
29728SOL     OW91721   7.369   8.393  10.138 -0.4073 -0.0295 -0.2088
29728SOL    HW191722   7.458   8.373  10.109 -0.5012 -0.0661 -0.4698
29728SOL    HW291723   7.316   8.321  10.103 -0.4759 -0.2219  0.2855
29729SOL     OW91724   4.175   7.196   5.139  0.0634 -0.4973  0.1183
29729SOL    HW191725   4.083   7.176   5.156 -0.8277  1.9004 -1.4907
29729SOL    HW291726   4.205   7.240   5.218 -1.0248  1.2035 -0.3729
29730SOL     OW91727   7.494   7.065   8.736  0.0162  0.1701  0.1786
29730SOL    HW191728   7.587   7.044   8.748  0.1604  2.3378  3.2651
29730SOL    HW291729   7.492   7.117   8.656  1.0000 -2.5729 -1.7053
29731SOL     OW91730   7.828   8.253   8.460  0.2359 -0.5728  0.0545
29731SOL    HW191731   7.814   8.276   8.551 -2.3713  0.4630 -0.5615
29731SOL    HW291732   7.860   8.334   8.419 -0.2807 -0.5326 -0.2834
29732SOL     OW91733   0.771   2.388   9.832 -0.2069  0.2671 -0.2896
29732SOL    HW191734   0.726   2.365   9.751 -2.0299 -1.5331  1.1537
29732SOL    HW291735   0.853   2.337   9.829 -0.3473  0.0705 -0.9170
29733SOL     OW91736   0.335   2.567  10.201 -0.8214 -0.9326  0.4292
29733SOL    HW191737   0.404   2.592  10.140 -1.2102 -1.9135 -0.4264
29733SOL    HW291738   0.260   2.621  10.177 -0.5737 -0.3586  0.9184
29734SOL     OW91739   8.025   0.510   4.658 -0.0210  0.1772  0.9980
29734SOL    HW191740   7.995   0.568   4.587 -1.8358 -1.2394  0.5495
29734SOL    HW291741   8.087   0.562   4.708 -2.0169  2.7160  0.9264
29735SOL     OW91742   7.720   6.760   0.299 -0.3673 -0.2324 -0.2938
29735SOL    HW191743   7.814   6.757   0.283 -0.0626  0.9478  1.1293
29735SOL    HW291744   7.704   6.693   0.366 -0.2616  0.6883  0.6687
29736SOL     OW91745   2.655   0.531   9.682  0.3734 -0.8732  0.1415
29736SOL    HW191746   2.736   0.567   9.645 -0.6967  0.9441 -0.5041
29736SOL    HW291747   2.585   0.583   9.642 -1.0339 -1.4080  1.8320
29737SOL     OW91748   8.126   8.356   3.587 -0.0566  0.5932  0.1336
29737SOL    HW191749   8.044   8.377   3.543  0.5587  0.7971 -0.9288
29737SOL    HW291750   8.113   8.386   3.678 -0.7372  1.6761 -0.3114
29738SOL     OW91751   7.511   8.407   4.423  0.0384 -0.2607  0.2304
29738SOL    HW191752   7.502   8.493   4.382  1.2537 -0.7924 -1.1719
29738SOL    HW291753   7.605   8.391   4.426 -0.2522 -2.8092 -2.2403
29739SOL     OW91754   2.496  10.203   9.619  0.2143 -0.4618 -0.1262
29739SOL    HW191755   2.562  10.267   9.645 -0.6125  0.1343  0.5343
29739SOL    HW291756   2.506  10.131   9.680 -0.7548  0.2975  0.9449
29740SOL     OW91757   8.658   5.050   7.389  0.3818 -0.0994  0.6532
29740SOL    HW191758   8.646   4.982   7.456 -0.7969 -0.0334  0.5222
29740SOL    HW291759   8.644   5.132   7.435  0.6544 -0.0022  0.5606
29741SOL     OW91760   1.478   9.978   5.547 -0.4679 -0.1699  0.0399
29741SOL    HW191761   1.456   9.909   5.484  3.0350 -0.7280 -0.6569
29741SOL    HW291762   1.539  10.035   5.500  2.5030 -0.7892  2.9752
29742SOL     OW91763   3.198   9.666   6.746  0.0502 -0.7028 -0.1385
29742SOL    HW191764   3.151   9.602   6.799 -0.2573 -0.6026 -0.2920
29742SOL    HW291765   3.146   9.674   6.666 -0.4882  0.5300  0.3145
29743SOL     OW91766   9.314   1.898   4.866 -0.9353 -0.2762  0.1231
29743SOL    HW191767   9.354   1.830   4.811 -0.1031  0.6092 -0.3907
29743SOL    HW291768   9.257   1.947   4.807  1.9288  2.3026 -0.6186
29744SOL     OW91769   0.670   3.948   0.053  0.5607 -0.1560  0.1693
29744SOL    HW191770   0.742   3.937  -0.009  0.4530  0.7986 -0.1418
29744SOL    HW291771   0.629   3.862   0.058 -0.2462  0.0447 -2.1172
29745SOL     OW91772   1.923   0.087   6.253  0.5703  0.0666  0.1005
29745SOL    HW191773   1.839   0.108   6.295  0.3917  2.1853 -1.1992
29745SOL    HW291774   1.900   0.027   6.182  0.4442 -0.9909  1.0287
29746SOL     OW91775   2.172   9.471   1.239 -0.2031 -0.2123  0.2007
29746SOL    HW191776   2.156   9.509   1.152  1.0381 -0.6796 -0.2505
29746SOL    HW291777   2.092   9.489   1.288 -0.6916  0.5851 -0.8548
29747SOL     OW91778   9.854   5.914   4.927  0.0149 -0.1396 -0.3559
29747SOL    HW191779   9.923   5.869   4.878  1.0221 -0.4456  1.3077
29747SOL    HW291780   9.829   5.986   4.871  1.0029 -0.6082 -1.4317
29748SOL     OW91781   1.488   4.924   6.727 -0.2273  0.2360 -0.3953
29748SOL    HW191782   1.566   4.872   6.744 -0.5794 -0.6280 -1.3637
29748SOL    HW291783   1.421   4.886   6.783 -0.2098  0.3132 -0.3232
29749SOL     OW91784   0.273   7.449   4.584 -0.1576 -0.6828 -0.1009
29749SOL    HW191785   0.322   7.517   4.539 -2.1862  0.6102 -0.4304
29749SOL    HW291786   0.231   7.494   4.657 -0.7175 -1.7909  0.2683
29750SOL     OW91787   4.262   1.692   6.650 -0.2757  0.3398  0.0650
29750SOL    HW191788   4.183   1.707   6.597 -0.0192  1.0972 -0.1122
29750SOL    HW291789   4.242   1.613   6.700 -0.3524 -0.6523 -1.4779
29751SOL     OW91790   3.692   0.733   4.576  0.0299 -0.0244  0.2628
29751SOL    HW191791   3.753   0.685   4.520  0.7642  1.0943  0.0894
29751SOL    HW291792   3.605   0.705   4.547  0.4292 -0.2215 -0.7338
29752SOL     OW91793  10.138   6.156   1.777  0.2930  0.1062  0.5614
29752SOL    HW191794  10.141   6.097   1.853 -0.1101 -0.4803  0.1349
29752SOL    HW291795  10.117   6.242   1.814 -0.9132 -0.3630  1.0241
29753SOL     OW91796   3.375   5.701   8.445 -1.0276 -0.4869  1.0952
29753SOL    HW191797   3.336   5.670   8.527  3.0121 -1.2361  2.8222
29753SOL    HW291798   3.434   5.771   8.472 -0.2350 -0.1975 -1.2951
29754SOL     OW91799   8.373   6.449   6.281  0.2443 -0.0643 -0.2255
29754SOL    HW191800   8.426   6.520   6.318 -1.6926  1.0663  0.4115
29754SOL    HW291801   8.365   6.472   6.188 -0.8931  0.9035  0.0994
29755SOL     OW91802  10.108   8.615  10.086  0.2068  0.1749  0.1024
29755SOL    HW191803  10.018   8.640  10.063 -0.1947  1.0093  2.4727
29755SOL    HW291804  10.098   8.533  10.134  0.6112  0.7818  1.2358
29756SOL     OW91805   0.554   6.532   6.036 -0.0298  0.2655  0.0912
29756SOL    HW191806   0.633   6.557   5.988 -0.0463 -2.4465 -1.4603
29756SOL    HW291807   0.483   6.541   5.972 -0.9936  2.3947  1.3824
29757SOL     OW91808   6.841   6.230   8.440 -0.7302  0.2298  0.1722
29757SOL    HW191809   6.840   6.136   8.421 -0.9546  0.2831 -0.0673
29757SOL    HW291810   6.931   6.258   8.420 -0.8357  0.1921 -0.3395
29758SOL     OW91811   1.120   8.965   3.235  0.0992  0.0371  0.1451
29758SOL    HW191812   1.179   8.991   3.305  0.8069 -0.3733 -0.2970
29758SOL    HW291813   1.040   8.938   3.280  0.4258  0.1014  0.7727
29759SOL     OW91814   1.236   9.988   0.519 -0.2005 -0.0245 -0.2183
29759SOL    HW191815   1.143  10.010   0.514 -0.2460 -0.0268  0.6304
29759SOL    HW291816   1.241   9.896   0.492 -0.5819 -0.3628  0.8543
29760SOL     OW91817   6.467   3.864   3.681  0.3070 -0.7756 -0.2239
29760SOL    HW191818   6.538   3.807   3.712  0.9444  0.1796  0.0768
29760SOL    HW291819   6.451   3.924   3.753  1.5048  1.1895 -1.5496
29761SOL     OW91820   0.232   4.810   0.834  0.4227  0.2018  0.6029
29761SOL    HW191821   0.232   4.904   0.848 -0.3986  0.2841  0.0985
29761SOL    HW291822   0.168   4.796   0.764 -0.2616 -0.8334  1.4087
29762SOL     OW91823   3.763   3.993   7.050  0.3356 -0.2851  0.3598
29762SOL    HW191824   3.832   4.059   7.046  0.4328 -0.3480  1.0800
29762SOL    HW291825   3.770   3.955   7.137  0.0977 -1.0601  0.0451
29763SOL     OW91826   4.830   2.637   6.816 -0.0495 -0.0479 -0.5401
29763SOL    HW191827   4.810   2.550   6.781  0.7033 -1.3101  1.9715
29763SOL    HW291828   4.923   2.633   6.837  0.4169  2.0209 -2.0727
29764SOL     OW91829   2.224   6.599   8.975 -0.3183 -0.1317  0.4152
29764SOL    HW191830   2.162   6.634   9.038  0.0167  0.6647  0.3067
29764SOL    HW291831   2.300   6.657   8.981  0.2293 -0.8138  0.2103
29765SOL     OW91832   7.755   6.835   5.272 -0.2715 -0.1393  0.1622
29765SOL    HW191833   7.714   6.921   5.277 -0.5235 -0.2826  0.6581
29765SOL    HW291834   7.682   6.773   5.275 -0.2415 -0.3386 -2.5693
29766SOL     OW91835   4.848   3.007   2.579 -0.2339  0.2990  0.6979
29766SOL    HW191836   4.761   3.044   2.566  0.1324  1.0100  0.2051
29766SOL    HW291837   4.861   2.949   2.504  0.0379  0.8184  0.3424
29767SOL     OW91838   8.629  10.200   5.140 -0.1747  0.0959 -0.3386
29767SOL    HW191839   8.639  10.258   5.215 -0.2111 -1.3922  0.8446
29767SOL    HW291840   8.549  10.151   5.158  0.5184 -1.1971 -0.6786
29768SOL     OW91841   2.789   2.426   4.202  0.0570  0.0121 -0.3229
29768SOL    HW191842   2.801   2.486   4.275  0.8335 -0.7509  0.1777
29768SOL    HW291843   2.868   2.435   4.149 -1.5516  2.4261 -2.4647
29769SOL     OW91844   3.441   6.424   3.707  0.0112  0.3675  0.2845
29769SOL    HW191845   3.415   6.333   3.722 -3.3909  1.3035  0.3555
29769SOL    HW291846   3.422   6.440   3.615  1.1023  0.8907  0.1357
29770SOL     OW91847   9.897   8.622   4.211  0.2614  0.2755 -0.7869
29770SOL    HW191848   9.919   8.704   4.167 -1.0874  0.7923 -0.5516
29770SOL    HW291849   9.903   8.643   4.304  3.4212 -0.9009 -0.6890
29771SOL     OW91850   4.584   4.020   4.944 -0.1230 -0.2604  0.3389
29771SOL    HW191851   4.555   4.031   4.854 -0.8741 -0.3512  0.5709
29771SOL    HW291852   4.652   4.086   4.956  0.1543 -0.4136 -0.3712
29772SOL     OW91853   8.130   1.153   8.894 -0.4751  0.4355  0.4047
29772SOL    HW191854   8.182   1.085   8.936 -0.1632 -0.2562 -1.0772
29772SOL    HW291855   8.039   1.130   8.915 -0.3638 -0.3936 -0.0068
29773SOL     OW91856   7.259   8.076   7.849 -0.1396  0.1423 -0.2456
29773SOL    HW191857   7.166   8.061   7.835 -0.3553  0.6042  0.6558
29773SOL    HW291858   7.263   8.161   7.894  0.6292 -0.4631  0.8458
29774SOL     OW91859   7.217   7.729   1.137 -0.3463  0.7306  0.0726
29774SOL    HW191860   7.263   7.724   1.053 -2.5305 -4.8524 -0.9422
29774SOL    HW291861   7.132   7.766   1.115 -0.1653  1.2865  0.2727
29775SOL     OW91862   6.890   4.837   2.574  0.3066 -0.4191  0.1782
29775SOL    HW191863   6.848   4.758   2.607 -1.0340  0.6401  1.0516
29775SOL    HW291864   6.870   4.838   2.480  1.6833 -1.9231 -0.1583
29776SOL     OW91865   2.629   0.547   1.210  0.2977  0.5833 -0.1688
29776SOL    HW191866   2.567   0.501   1.153 -0.8188  1.2064  0.5054
29776SOL    HW291867   2.620   0.639   1.186  0.9658  0.6773 -0.0686
29777SOL     OW91868   5.018   2.251   1.143  0.9351  0.1305  0.0997
29777SOL    HW191869   4.964   2.224   1.218 -0.2541 -0.0724 -0.8022
29777SOL    HW291870   4.965   2.228   1.067  1.8024  1.0258 -0.7839
29778SOL     OW91871   3.644   2.104   4.729  0.3856  0.1666  0.5435
29778SOL    HW191872   3.609   2.030   4.778  1.7991 -0.1878  1.0309
29778SOL    HW291873   3.678   2.065   4.648 -0.1800  0.4886  0.1440
29779SOL     OW91874   8.059   1.712   4.515 -0.2169 -0.3977  0.3747
29779SOL    HW191875   8.074   1.709   4.420 -1.0804  0.0917  0.2153
29779SOL    HW291876   8.129   1.658   4.552  0.6699  0.1513 -0.4806
29780SOL     OW91877   5.534   2.900   7.003 -0.1425 -0.3555 -0.2398
29780SOL    HW191878   5.451   2.945   7.018 -0.3800 -0.1334 -2.1091
29780SOL    HW291879   5.519   2.849   6.923  1.2893 -0.9154 -0.1655
29781SOL     OW91880   7.548   2.270   6.464  0.4118  0.5076 -0.7244
29781SOL    HW191881   7.525   2.183   6.499 -0.4915  1.4858  1.1758
29781SOL    HW291882   7.493   2.280   6.386  0.4053 -0.5626 -0.8671
29782SOL     OW91883   5.116   5.752   5.584  0.0043  0.7585 -0.4045
29782SOL    HW191884   5.067   5.791   5.512 -1.5723 -0.9114 -0.2538
29782SOL    HW291885   5.076   5.789   5.663 -1.0293 -0.6228 -0.2801
29783SOL     OW91886   6.233   2.025   4.585 -0.4607 -0.4490 -0.7578
29783SOL    HW191887   6.237   2.115   4.554 -0.9866 -0.2333 -0.2080
29783SOL    HW291888   6.185   2.030   4.668 -2.1319 -1.4583 -1.6246
29784SOL     OW91889   8.629   0.844   7.081  0.4795  0.0891  0.4761
29784SOL    HW191890   8.711   0.797   7.099  0.1469 -0.9923 -0.7432
29784SOL    HW291891   8.563   0.796   7.131 -0.0871 -1.6188 -1.8084
29785SOL     OW91892   1.460   0.806   1.980  0.2445 -1.2307  0.0776
29785SOL    HW191893   1.440   0.899   1.991  2.8579 -0.6245  0.0390
29785SOL    HW291894   1.393   0.760   2.032 -1.1512  0.6422 -0.0201
29786SOL     OW91895   2.693   8.606   5.349 -0.0743  0.3631 -0.0672
29786SOL    HW191896   2.670   8.677   5.409  0.4768 -0.3675  1.0163
29786SOL    HW291897   2.743   8.649   5.279 -0.7012  1.2162  0.0018
29787SOL     OW91898   3.786   5.376   4.682 -0.2005  0.1681 -0.1620
29787SOL    HW191899   3.804   5.370   4.588  1.6249  0.8873  0.1213
29787SOL    HW291900   3.770   5.285   4.709 -1.4520  0.0443 -1.2943
29788SOL     OW91901   4.605   0.798   7.132 -0.4732 -1.0526 -0.6141
29788SOL    HW191902   4.636   0.885   7.105  0.2440 -1.3044 -0.5941
29788SOL    HW291903   4.646   0.783   7.217 -0.0811 -1.6899 -0.9150
29789SOL     OW91904   6.510   5.926   3.094 -0.0563  0.4778 -0.1215
29789SOL    HW191905   6.547   5.994   3.149 -1.3755  1.3231 -0.2723
29789SOL    HW291906   6.432   5.896   3.140 -0.8419  0.7826 -1.2232
29790SOL     OW91907   2.243   5.242   6.852  0.0763  0.0307 -0.1428
29790SOL    HW191908   2.187   5.308   6.811 -0.7244 -1.0225 -0.7594
29790SOL    HW291909   2.332   5.275   6.840 -0.3531  1.2973  0.0840
29791SOL     OW91910   9.235   3.286   4.230 -0.5608  0.2543  0.1648
29791SOL    HW191911   9.324   3.251   4.228 -0.7745 -0.2996  0.1521
29791SOL    HW291912   9.203   3.276   4.140 -0.2310  1.5195 -0.0998
29792SOL     OW91913   7.783   7.682   1.238  0.0934 -0.4803  0.2362
29792SOL    HW191914   7.705   7.726   1.205  1.8191  2.7695  0.2690
29792SOL    HW291915   7.846   7.688   1.166  0.9984 -1.1793  0.9549
29793SOL     OW91916   5.289   0.361   8.384 -0.0754 -0.1345 -0.0515
29793SOL    HW191917   5.197   0.374   8.361 -0.1978 -0.4038  0.2928
29793SOL    HW291918   5.318   0.447   8.416 -0.5299 -0.3599  0.9652
29794SOL     OW91919   7.549   8.903  10.039 -0.9542  0.2448  0.4305
29794SOL    HW191920   7.620   8.957  10.003  0.2523 -0.0766  2.2666
29794SOL    HW291921   7.472   8.960  10.034 -0.3604  0.9978 -0.5604
29795SOL     OW91922   2.307   2.968   3.208 -0.1598 -0.0389  0.3704
29795SOL    HW191923   2.380   2.906   3.209 -0.7886 -0.8742 -1.7495
29795SOL    HW291924   2.242   2.929   3.267  0.2306 -0.4227  0.5526
29796SOL     OW91925   0.537   3.620   3.872 -0.1504 -0.3926  0.2159
29796SOL    HW191926   0.511   3.594   3.961  1.3989  0.5449  0.9598
29796SOL    HW291927   0.467   3.586   3.816 -2.1164  0.6029  1.9748
29797SOL     OW91928   0.281   9.321   4.344 -0.1383 -0.0693  0.0057
29797SOL    HW191929   0.320   9.399   4.382  0.4670 -0.7032  0.7016
29797SOL    HW291930   0.294   9.331   4.250  0.9933  0.1113  0.1785
29798SOL     OW91931   7.231   4.846   0.459  0.2075  0.4964 -0.4846
29798SOL    HW191932   7.260   4.907   0.526 -0.8718  1.0639 -0.5212
29798SOL    HW291933   7.218   4.900   0.381 -0.4651  0.1699 -0.6013
29799SOL     OW91934   4.010  10.194   3.499 -0.0873 -0.2932  0.0901
29799SOL    HW191935   3.969  10.231   3.577 -0.6604 -1.0699  0.1681
29799SOL    HW291936   4.053  10.268   3.457  1.5412 -0.1189  1.9591
29800SOL     OW91937   1.124   9.712   5.995  0.4103  0.3601  0.7395
29800SOL    HW191938   1.068   9.654   5.943  0.2621  0.2967  0.9703
29800SOL    HW291939   1.211   9.700   5.958  0.1243  1.1546 -0.2309
29801SOL     OW91940   3.078   1.567   3.817 -0.3861  0.3773 -0.1425
29801SOL    HW191941   2.984   1.547   3.821 -0.6724  1.4528 -1.1610
29801SOL    HW291942   3.109   1.526   3.737 -0.1237  0.5639 -0.1382
29802SOL     OW91943   7.381   0.794   8.941 -0.5129 -0.1983  0.4896
29802SOL    HW191944   7.287   0.807   8.937 -0.7902 -1.8036  1.2085
29802SOL    HW291945   7.411   0.801   8.850 -1.7573 -2.4710 -0.1493
29803SOL     OW91946   2.340   2.357   1.408 -0.6429 -0.2108 -0.2220
29803SOL    HW191947   2.270   2.292   1.415 -0.9067  0.1633  0.7409
29803SOL    HW291948   2.303   2.436   1.447 -0.2007  0.4209 -1.0729
29804SOL     OW91949   0.755   7.768   4.561  0.1619 -0.1725  0.5901
29804SOL    HW191950   0.846   7.787   4.583  0.5447  0.3653 -1.3377
29804SOL    HW291951   0.755   7.676   4.535  0.9070  0.7135 -2.8629
29805SOL     OW91952   6.082   7.070   6.707  0.2346 -0.3427  0.7816
29805SOL    HW191953   6.123   7.133   6.648  1.6594 -1.6643  0.3124
29805SOL    HW291954   5.992   7.061   6.674 -0.0264  1.5100  0.9448
29806SOL     OW91955   3.152   5.261   5.059 -0.3218  0.4602  0.1821
29806SOL    HW191956   3.075   5.307   5.092 -0.9690 -1.1098  0.9450
29806SOL    HW291957   3.222   5.285   5.119 -0.0604  2.3421 -0.8464
29807SOL     OW91958   5.201   5.175   7.151 -0.4804  0.3992 -0.5149
29807SOL    HW191959   5.217   5.233   7.077  0.2578  0.1215 -0.5719
29807SOL    HW291960   5.282   5.177   7.202 -0.7890  0.1582 -0.0082
29808SOL     OW91961   4.881   9.869   4.425 -0.1945  0.2038  0.0389
29808SOL    HW191962   4.854   9.960   4.416  0.6162  0.1800 -3.0848
29808SOL    HW291963   4.832   9.837   4.501 -0.1992  3.3152  1.4348
29809SOL     OW91964   2.245   2.544   0.566  0.2317  0.3198  0.2224
29809SOL    HW191965   2.336   2.574   0.569 -0.1709  1.6254 -0.0620
29809SOL    HW291966   2.199   2.603   0.626 -0.8967  1.4377 -1.6860
29810SOL     OW91967   3.480   8.539   2.891 -0.2942 -0.0139  0.6039
29810SOL    HW191968   3.458   8.631   2.901 -0.2368  0.1903 -1.1555
29810SOL    HW291969   3.396   8.493   2.897 -0.4605  0.2480  0.2542
29811SOL     OW91970   5.201   9.537   4.651 -0.7749  0.1669  0.7463
29811SOL    HW191971   5.107   9.519   4.656 -0.9833  1.0648  0.1462
29811SOL    HW291972   5.213   9.580   4.567  0.2787 -0.5240  0.5358
29812SOL     OW91973   9.446   4.458   9.573  0.5238 -0.2710 -0.1862
29812SOL    HW191974   9.394   4.490   9.647 -0.3546  0.0396 -0.9338
29812SOL    HW291975   9.389   4.469   9.497  1.1726 -1.2091 -0.8183
29813SOL     OW91976   8.490   5.235   4.799  0.6952 -0.3036  0.3752
29813SOL    HW191977   8.403   5.236   4.838 -0.1988  0.0776 -1.5583
29813SOL    HW291978   8.536   5.165   4.844 -0.7257 -0.7390  1.1661
29814SOL     OW91979   1.352   8.671   4.338 -0.1062 -0.1757  0.1671
29814SOL    HW191980   1.440   8.702   4.317 -0.5545  1.6789  1.0068
29814SOL    HW291981   1.325   8.623   4.259  2.0380 -1.6784  0.3003
29815SOL     OW91982   6.209   9.073   6.771  0.3004  0.1933 -0.0506
29815SOL    HW191983   6.286   9.109   6.816 -0.6404  1.5424  0.5139
29815SOL    HW291984   6.137   9.086   6.832 -0.7259  0.7248 -1.3560
29816SOL     OW91985   6.506   0.152   2.742 -0.0205  0.2905  0.0577
29816SOL    HW191986   6.476   0.078   2.691  1.5256 -1.0351  1.0105
29816SOL    HW291987   6.600   0.157   2.723 -0.1488  2.1671 -0.1908
29817SOL     OW91988   8.812   7.793   0.594  0.6835  0.5666  0.1653
29817SOL    HW191989   8.780   7.876   0.559  2.3707  0.3567 -1.9816
29817SOL    HW291990   8.754   7.727   0.557 -0.3919  0.7195  1.5286
29818SOL     OW91991   2.327   4.397   2.399  0.8562 -0.3449 -0.0728
29818SOL    HW191992   2.311   4.488   2.374  0.4349 -0.1136  1.0384
29818SOL    HW291993   2.240   4.359   2.411  1.0479 -0.4095  1.1745
29819SOL     OW91994   3.004   6.926   7.821 -0.7310  0.1437  0.1602
29819SOL    HW191995   3.006   7.014   7.784  0.7938  0.4531  0.9383
29819SOL    HW291996   3.091   6.891   7.803 -0.7525 -0.5572  1.4147
29820SOL     OW91997   5.561   9.380   3.023 -0.1700  0.0211 -0.1647
29820SOL    HW191998   5.552   9.474   3.039 -2.6176 -0.3932  1.0489
29820SOL    HW291999   5.580   9.342   3.108  0.5399 -0.6200 -0.6026
29821SOL     OW92000   8.067   0.065   0.021  0.3939  0.5385  0.2017
29821SOL    HW192001   8.010  -0.008  -0.004  2.4041 -0.7758 -0.6749
29821SOL    HW292002   8.115   0.033   0.097 -1.0279  2.1621  1.8189
29822SOL     OW92003   9.882   2.405   4.116 -0.4768 -0.2809  0.0696
29822SOL    HW192004   9.912   2.344   4.183 -0.8636  0.5884  1.0466
29822SOL    HW292005   9.962   2.443   4.080 -0.3050  0.2996  1.0387
29823SOL     OW92006   7.788   5.126   2.670 -0.2766 -0.1739 -0.2670
29823SOL    HW192007   7.742   5.058   2.719  0.3419 -0.5628 -0.2164
29823SOL    HW292008   7.861   5.151   2.727  0.4732 -0.6579 -0.9911
29824SOL     OW92009   7.834   0.127   7.521  0.0596 -0.5115  0.1738
29824SOL    HW192010   7.818   0.167   7.607 -0.0948 -0.9913  0.3644
29824SOL    HW292011   7.882   0.195   7.473 -0.1370 -0.1187  0.5256
29825SOL     OW92012   6.273  10.064   3.541  0.0746  0.4336  0.6891
29825SOL    HW192013   6.260   9.993   3.604  0.6521 -0.9458 -0.7139
29825SOL    HW292014   6.365  10.056   3.515 -0.8394 -0.6871 -2.3149
29826SOL     OW92015   9.943   9.325   4.323  0.1439 -0.0224  0.1197
29826SOL    HW192016   9.959   9.291   4.410  2.8740  0.1094 -0.2778
29826SOL    HW292017   9.926   9.419   4.336  2.1360  0.3303  0.4253
29827SOL     OW92018   5.214   5.867   7.019 -0.5592  0.7276  0.0438
29827SOL    HW192019   5.158   5.789   7.019 -0.2084  0.4689 -0.7641
29827SOL    HW292020   5.178   5.922   6.950 -1.8257  2.0426  1.6983
29828SOL     OW92021   3.775   8.235   2.166 -0.6470  0.2729 -0.0398
29828SOL    HW192022   3.725   8.154   2.159  1.4315 -1.0632  0.1957
29828SOL    HW292023   3.755   8.268   2.254  0.7368 -1.5297  0.9815
29829SOL     OW92024   7.055   2.245   8.874  0.3054  0.2019 -0.4129
29829SOL    HW192025   7.095   2.172   8.921 -0.7233 -0.1278 -0.0443
29829SOL    HW292026   7.123   2.273   8.811  1.0108 -0.5118  0.0208
29830SOL     OW92027   0.534   9.877   7.728  0.0473  0.5103  0.2107
29830SOL    HW192028   0.537   9.821   7.806 -0.9416 -1.2585 -1.0222
29830SOL    HW292029   0.621   9.867   7.689  0.1436  0.4792  0.4275
29831SOL     OW92030   3.608   9.335   2.192  0.0451 -0.6252  0.4330
29831SOL    HW192031   3.535   9.394   2.211  0.0174  0.6567 -3.2308
29831SOL    HW292032   3.566   9.254   2.164 -0.0118 -0.2551 -0.5925
29832SOL     OW92033   9.807   9.781   7.647  0.1365 -0.6661  0.4620
29832SOL    HW192034   9.769   9.866   7.623  4.1835  1.1646 -0.0701
29832SOL    HW292035   9.845   9.796   7.734  1.6810 -1.6026 -0.0261
29833SOL     OW92036   6.529   8.107   0.842 -0.3577 -0.3100 -0.3250
29833SOL    HW192037   6.607   8.051   0.840  0.5937  0.9241  1.0007
29833SOL    HW292038   6.509   8.123   0.750  3.3581  2.5380 -0.8105
29834SOL     OW92039   7.167   6.581   8.025 -0.3104 -0.1979 -0.0924
29834SOL    HW192040   7.187   6.609   7.936 -1.5373  0.8293 -0.0685
29834SOL    HW292041   7.194   6.489   8.029 -0.2358 -0.2385 -1.5129
29835SOL     OW92042   3.561   2.243   0.079 -0.2430 -0.2391  0.3850
29835SOL    HW192043   3.602   2.290   0.006 -1.6446  1.3218  0.6017
29835SOL    HW292044   3.546   2.155   0.044  3.2129 -0.8610  0.2753
29836SOL     OW92045   5.807   5.978   4.886 -0.2354 -0.3348  0.1155
29836SOL    HW192046   5.880   6.037   4.901  0.0901 -0.5854 -0.4582
29836SOL    HW292047   5.779   5.951   4.973 -0.9322  1.3140  0.4196
29837SOL     OW92048   8.846   3.030   1.454 -0.4479 -0.0411 -0.2404
29837SOL    HW192049   8.890   3.095   1.400 -0.6314  0.4865  0.2350
29837SOL    HW292050   8.762   3.070   1.477 -1.1326 -0.9922 -1.0448
29838SOL     OW92051   0.847   3.567   0.065 -0.1396  0.5948 -0.2292
29838SOL    HW192052   0.906   3.559   0.140 -0.2121 -0.3791 -0.2691
29838SOL    HW292053   0.895   3.623   0.003  1.0438 -0.7239 -0.5444
29839SOL     OW92054   3.292   4.243   1.756 -0.1686 -0.3394  0.3674
29839SOL    HW192055   3.226   4.313   1.751  0.0160 -0.2008 -0.2399
29839SOL    HW292056   3.324   4.235   1.666  0.0709 -0.9597  0.5085
29840SOL     OW92057   9.240   6.920   2.235  0.0788 -0.0602  0.1929
29840SOL    HW192058   9.255   6.930   2.141  0.3444 -1.4195  0.0861
29840SOL    HW292059   9.263   7.005   2.272  2.0060 -0.1603 -0.7175
29841SOL     OW92060   4.952   8.680   4.687 -0.3963  0.4159 -0.0923
29841SOL    HW192061   4.880   8.685   4.624 -1.1548 -1.5069  0.5904
29841SOL    HW292062   5.027   8.719   4.641 -1.4104  0.8014 -1.4568
29842SOL     OW92063  10.199   1.511   1.868 -0.3361 -0.1951  0.7033
29842SOL    HW192064  10.137   1.561   1.922 -2.5979 -0.2027 -1.7974
29842SOL    HW292065  10.270   1.572   1.851 -0.8431  0.6435  1.5448
29843SOL     OW92066   6.130   8.125   0.348  0.6047  0.8020  0.2129
29843SOL    HW192067   6.192   8.052   0.349 -2.4860 -1.9546 -1.5191
29843SOL    HW292068   6.086   8.120   0.433 -0.2227  0.0355 -0.2456
29844SOL     OW92069   5.434   1.931   0.278 -0.4348  0.0924  0.1649
29844SOL    HW192070   5.347   1.891   0.275 -1.0499  1.4683 -1.4787
29844SOL    HW292071   5.488   1.874   0.224 -0.7250  0.1583 -0.1972
29845SOL     OW92072   4.100   3.249   1.114 -0.5040  0.3119  0.3195
29845SOL    HW192073   4.064   3.314   1.054 -0.9143 -0.4414 -0.2510
29845SOL    HW292074   4.134   3.301   1.187  0.0699  1.2390 -0.5839
29846SOL     OW92075   2.466   2.706   0.551 -0.1437 -0.4476 -0.8046
29846SOL    HW192076   2.481   2.735   0.641 -1.5523  0.6879 -0.9290
29846SOL    HW292077   2.542   2.738   0.502 -0.3512  0.6794 -0.4049
29847SOL     OW92078   2.599   3.908   2.914 -0.2739  0.0484  0.0418
29847SOL    HW192079   2.623   4.000   2.904  0.1393 -0.1157 -0.4881
29847SOL    HW292080   2.601   3.893   3.008  1.1017  0.2040  0.0449
29848SOL     OW92081   7.063   9.267   0.498  0.2885 -0.1386  0.2879
29848SOL    HW192082   7.114   9.210   0.442  0.1448 -1.7339  1.7360
29848SOL    HW292083   7.118   9.281   0.575 -0.5707 -0.1315  0.9111
29849SOL     OW92084   1.967   8.346   1.134  0.2546 -0.0815  0.2904
29849SOL    HW192085   1.945   8.370   1.044  0.1459 -0.3920  0.2337
29849SOL    HW292086   2.062   8.338   1.134  0.1615 -1.2474 -0.0888
29850SOL     OW92087   2.156   9.096   0.405 -0.0782  0.2087 -0.0302
29850SOL    HW192088   2.238   9.046   0.401  0.3315  0.9375 -0.9017
29850SOL    HW292089   2.183   9.184   0.434 -0.6283  0.2968  0.2143
29851SOL     OW92090   6.079   4.984   1.499  0.0317  0.1072  0.0675
29851SOL    HW192091   6.070   4.891   1.520 -1.8255  0.0817 -0.7267
29851SOL    HW292092   6.036   4.994   1.415  3.2468  1.0817 -1.5443
29852SOL     OW92093   3.775   6.085   3.898 -0.2205 -0.2197  0.1550
29852SOL    HW192094   3.691   6.041   3.909 -0.3813 -0.1333 -0.7232
29852SOL    HW292095   3.802   6.108   3.987  0.1867 -2.6930  0.7275
29853SOL     OW92096   2.107   7.104   0.200  0.6097 -0.5081  0.4704
29853SOL    HW192097   2.177   7.166   0.220 -0.2233  0.6045  0.0287
29853SOL    HW292098   2.102   7.047   0.277  1.4990 -0.1317  0.8123
29854SOL     OW92099   4.581   5.389   4.091  0.4676 -0.7383  0.0885
29854SOL    HW192100   4.649   5.393   4.024  0.9206  1.6963  0.6466
29854SOL    HW292101   4.570   5.296   4.109  3.0089 -1.2168 -0.6708
29855SOL     OW92102   1.359   9.609   6.829  0.3625  0.0341  0.1476
29855SOL    HW192103   1.337   9.544   6.895  0.0783 -0.4021 -0.3794
29855SOL    HW292104   1.443   9.645   6.858  0.5817 -0.6600  0.3588
29856SOL     OW92105   5.440   3.648  10.157 -0.2394  0.0600  0.2325
29856SOL    HW192106   5.453   3.585  10.086  0.2471  0.6199 -0.1814
29856SOL    HW292107   5.373   3.608  10.213 -2.0217  0.4762 -1.5742
29857SOL     OW92108   6.782   2.411   0.684 -0.3332  0.1192 -0.4731
29857SOL    HW192109   6.735   2.335   0.721 -1.0831  0.2308 -1.2009
29857SOL    HW292110   6.764   2.407   0.590  1.2528  0.0730 -0.7873
29858SOL     OW92111   7.491   4.025   9.944  0.0310  0.1449 -0.1209
29858SOL    HW192112   7.571   3.975   9.925  0.5439  1.5124 -1.6748
29858SOL    HW292113   7.422   3.958   9.949  0.9068 -0.8448 -0.9464
29859SOL     OW92114   9.756   8.053   0.148  0.2170  0.1419  0.3858
29859SOL    HW192115   9.814   8.036   0.074  1.8187 -0.0396  1.6607
29859SOL    HW292116   9.709   7.970   0.161  1.2767 -0.4069  0.7369
29860SOL     OW92117   8.919   9.158   9.552  0.3633  0.7931 -0.5517
29860SOL    HW192118   9.009   9.192   9.556  0.6469  0.0124 -0.2271
29860SOL    HW292119   8.868   9.219   9.604  1.3837 -0.9070  2.5376
29861SOL     OW92120   2.435   1.835   8.704 -0.2700 -0.1293  0.5778
29861SOL    HW192121   2.509   1.809   8.649 -0.4936  0.3768  0.0366
29861SOL    HW292122   2.357   1.811   8.654 -0.4801 -0.7402  1.1845
29862SOL     OW92123   8.975   6.769   0.477 -0.2887  0.2192 -0.2691
29862SOL    HW192124   8.980   6.823   0.555  2.8759 -0.5810  0.1451
29862SOL    HW292125   9.036   6.810   0.415 -0.3795 -0.9642 -1.1632
29863SOL     OW92126   5.539   7.151   2.043  0.6490 -0.1382 -1.0764
29863SOL    HW192127   5.620   7.152   1.992  1.1698  0.0538 -0.2542
29863SOL    HW292128   5.489   7.226   2.010  0.3607 -0.8499 -2.2811
29864SOL     OW92129   3.399   0.993   9.375  0.1239 -0.2424  0.1340
29864SOL    HW192130   3.344   1.055   9.424  0.9681 -0.5325  1.4661
29864SOL    HW292131   3.393   1.023   9.285  1.9734  2.9127  0.9851
29865SOL     OW92132   1.690   0.286   0.323 -0.0225 -0.6159 -0.0419
29865SOL    HW192133   1.650   0.346   0.260  1.7579  0.4474 -0.1750
29865SOL    HW292134   1.762   0.336   0.362  0.1464 -1.9396  1.4031
29866SOL     OW92135   2.118   8.025   9.952  0.2159  0.1919 -0.7813
29866SOL    HW192136   2.183   7.978  10.004 -0.7230  1.5894  1.7848
29866SOL    HW292137   2.108   8.109   9.997 -1.9919  0.7374 -2.1929
29867SOL     OW92138   6.367   1.285   7.869  0.7822 -0.1080  0.5069
29867SOL    HW192139   6.452   1.303   7.829 -0.2862  1.8096 -1.0176
29867SOL    HW292140   6.357   1.354   7.935 -0.4751  0.9948 -0.7946
29868SOL     OW92141   4.944   8.422   9.171 -0.0872  0.1549 -0.3704
29868SOL    HW192142   5.009   8.414   9.102 -0.9294 -1.4907 -1.0061
29868SOL    HW292143   4.880   8.485   9.137 -0.1134 -0.0977 -0.7914
29869SOL     OW92144   8.239   6.029   5.569  0.1953 -0.7983 -0.7070
29869SOL    HW192145   8.263   6.121   5.562 -0.8883 -0.3303  1.2570
29869SOL    HW292146   8.276   6.000   5.653 -1.7402 -1.3878 -0.0092
29870SOL     OW92147   4.269   3.735   2.509 -0.5682  0.6381 -0.7230
29870SOL    HW192148   4.230   3.653   2.477  0.4125  0.0757 -0.5031
29870SOL    HW292149   4.314   3.771   2.433  0.5060  0.0630 -0.3575
29871SOL     OW92150   7.070   7.248   5.144  0.7165 -0.4721 -0.0108
29871SOL    HW192151   7.010   7.297   5.088  0.0015 -0.5314  0.6962
29871SOL    HW292152   7.019   7.173   5.174  1.6586 -1.4194 -0.7187
29872SOL     OW92153   7.124   9.719   7.504  0.2939  0.2047 -0.5481
29872SOL    HW192154   7.125   9.789   7.438  0.4261  1.9498  1.2350
29872SOL    HW292155   7.211   9.722   7.544  0.3771 -1.1517 -0.6190
29873SOL     OW92156   8.938   5.678   4.580 -0.0263  0.2341 -0.1264
29873SOL    HW192157   8.997   5.709   4.648  1.2845  0.5466 -1.3795
29873SOL    HW292158   8.867   5.742   4.578 -0.1893  0.0919  1.1045
29874SOL     OW92159  10.111   8.701   7.947 -0.6276  0.1738 -0.2692
29874SOL    HW192160  10.187   8.720   8.003 -0.8942  0.0832  0.1234
29874SOL    HW292161  10.144   8.712   7.857 -0.3609  0.9427 -0.0865
29875SOL     OW92162   8.647   4.390   8.367  0.5292 -0.0673 -0.3213
29875SOL    HW192163   8.580   4.337   8.411  0.9137  0.5171  0.9928
29875SOL    HW292164   8.702   4.326   8.321 -0.5905 -0.5928 -0.9540
29876SOL     OW92165   9.279   2.516   0.481 -0.2869 -0.2996  0.0548
29876SOL    HW192166   9.361   2.506   0.434  1.1253  1.5779  2.0410
29876SOL    HW292167   9.250   2.426   0.497  1.9869 -1.0135  0.3697
29877SOL     OW92168   4.117   3.389   2.777  0.2889 -0.5856  0.3217
29877SOL    HW192169   4.130   3.482   2.758 -0.1073 -0.4031  0.9080
29877SOL    HW292170   4.195   3.346   2.742 -0.3125 -0.2517 -1.4767
29878SOL     OW92171   5.093   7.788   8.539 -0.0560  0.0560  0.0284
29878SOL    HW192172   5.022   7.748   8.589  1.6241 -2.0393  0.8459
29878SOL    HW292173   5.171   7.737   8.563  1.5643  1.7130 -1.5146
29879SOL     OW92174   1.401   7.653   2.553  0.1159  0.0002  0.3390
29879SOL    HW192175   1.309   7.651   2.579 -0.6732 -0.1846 -2.2358
29879SOL    HW292176   1.399   7.689   2.464  2.6732  1.2656  0.7454
29880SOL     OW92177   8.372   0.473   7.294 -0.3124  0.3952 -0.6969
29880SOL    HW192178   8.374   0.377   7.296  1.1957  0.4341  2.4489
29880SOL    HW292179   8.280   0.494   7.276 -0.6953 -1.6261 -1.2451
29881SOL     OW92180   4.370   9.968   6.469 -0.2523  0.3900  0.5078
29881SOL    HW192181   4.309   9.985   6.397 -0.4359  0.2412  0.6277
29881SOL    HW292182   4.441   9.917   6.428 -0.2247  0.5309  0.3765
29882SOL     OW92183   4.221   0.286   3.719 -0.2018 -0.3905 -0.0006
29882SOL    HW192184   4.248   0.235   3.643  0.2250  0.2133 -0.2593
29882SOL    HW292185   4.255   0.237   3.794  0.2646 -0.4493 -0.2477
29883SOL     OW92186   2.503   2.601   5.748  0.0957  0.0142 -0.0709
29883SOL    HW192187   2.521   2.548   5.826  0.7797  1.6082  0.8554
29883SOL    HW292188   2.537   2.688   5.769  1.2482  0.1961 -2.5613
29884SOL     OW92189   3.650   2.787   6.275 -0.1816 -0.4696 -0.0005
29884SOL    HW192190   3.744   2.775   6.261  0.3664  2.9025  0.4600
29884SOL    HW292191   3.611   2.773   6.188  1.3388  3.0831 -1.3432
29885SOL     OW92192   8.661   5.344   1.025 -0.2912 -0.0514 -0.0269
29885SOL    HW192193   8.640   5.377   0.938  1.3262  0.2744 -0.3172
29885SOL    HW292194   8.581   5.359   1.077 -1.7914 -1.6396 -1.8141
29886SOL     OW92195   0.290   9.348   7.515  0.2126 -0.2682  0.1983
29886SOL    HW192196   0.213   9.398   7.541 -0.7727 -1.2329 -0.8117
29886SOL    HW292197   0.292   9.274   7.575 -0.2021 -0.7561 -0.3824
29887SOL     OW92198   2.846   7.071   1.073 -0.2704 -0.0184 -0.3792
29887SOL    HW192199   2.840   7.006   1.143 -1.1303  0.5258  0.0585
29887SOL    HW292200   2.799   7.032   0.999  0.5716 -0.5602 -0.6419
29888SOL     OW92201   3.152   5.487   9.322  0.0020 -0.8137  0.6348
29888SOL    HW192202   3.114   5.497   9.410 -1.4216 -1.5140  0.1248
29888SOL    HW292203   3.105   5.412   9.284  1.3080 -1.1494 -0.3607
29889SOL     OW92204   7.822   7.705   5.736  0.3693  0.4382 -0.4081
29889SOL    HW192205   7.799   7.790   5.700 -0.0659  1.2127  1.6517
29889SOL    HW292206   7.777   7.642   5.680 -0.3437  1.6096 -1.1646
29890SOL     OW92207   9.738   8.727   3.450 -0.4166 -0.5513 -0.1161
29890SOL    HW192208   9.693   8.788   3.508 -1.1483  0.3993 -1.6402
29890SOL    HW292209   9.697   8.643   3.468 -0.1946 -0.3917  1.1810
29891SOL     OW92210   1.606   8.905   0.973 -0.0237  0.0643  0.5154
29891SOL    HW192211   1.696   8.923   0.946  0.3908 -0.0843  1.7699
29891SOL    HW292212   1.553   8.966   0.922  0.8581  0.7220  0.3728
29892SOL     OW92213   8.212   3.097   8.053 -0.7785 -0.2028  0.2070
29892SOL    HW192214   8.201   3.179   8.004 -0.8242 -0.2178  0.1911
29892SOL    HW292215   8.123   3.074   8.081 -1.4635 -2.5440 -3.5272
29893SOL     OW92216   7.151   6.737   9.668 -0.3409 -0.3813 -0.4159
29893SOL    HW192217   7.096   6.756   9.593 -0.1504  0.5030 -0.3338
29893SOL    HW292218   7.209   6.813   9.676 -3.4788  1.8349  3.4608
29894SOL     OW92219   7.632   7.918   7.759  0.0902  0.2456 -0.0313
29894SOL    HW192220   7.669   7.881   7.679  0.1535  1.4596 -0.5731
29894SOL    HW292221   7.639   8.013   7.747  0.3040  0.4355  1.5073
29895SOL     OW92222   4.953   5.654   4.134  0.0672 -0.5071 -0.3727
29895SOL    HW192223   4.909   5.575   4.102  0.1148 -0.6947  0.0194
29895SOL    HW292224   4.926   5.660   4.226 -1.5467  1.0448 -0.9267
29896SOL     OW92225   1.329   3.529   8.618 -0.9545 -0.7135  0.4853
29896SOL    HW192226   1.346   3.439   8.646  0.5608 -1.0413 -1.3267
29896SOL    HW292227   1.247   3.524   8.570 -1.0336 -1.0702  0.6563
29897SOL     OW92228   9.634   1.576   8.984 -0.3190 -0.2668  0.0846
29897SOL    HW192229   9.646   1.596   8.891  0.1238  2.6859  0.7126
29897SOL    HW292230   9.577   1.647   9.016 -0.3403 -1.1749  2.0869
29898SOL     OW92231   3.885   5.742   5.904  0.2870  0.5777  0.5093
29898SOL    HW192232   3.801   5.769   5.865 -0.3742 -0.6345  1.0622
29898SOL    HW292233   3.868   5.740   5.998  0.9402  0.2965  0.6225
29899SOL     OW92234   0.314   2.561   0.871  0.2545 -0.2232 -0.2906
29899SOL    HW192235   0.309   2.640   0.817 -0.2983  1.0829  1.5995
29899SOL    HW292236   0.366   2.500   0.820  2.1863  1.9841 -1.0511
29900SOL     OW92237   2.187   0.279   6.542  0.2717  0.4915 -0.1896
29900SOL    HW192238   2.195   0.277   6.447 -0.6638  0.1416 -0.2628
29900SOL    HW292239   2.255   0.341   6.570 -0.3741  1.6805 -1.1824
29901SOL     OW92240   1.567   4.766   8.045  0.0893 -0.0881 -0.3204
29901SOL    HW192241   1.562   4.860   8.062  2.1784  0.0368 -0.3192
29901SOL    HW292242   1.528   4.756   7.958  0.1589  0.8121 -0.4611
29902SOL     OW92243   8.902   1.744   4.827  0.3365 -0.4721  0.4181
29902SOL    HW192244   8.833   1.688   4.792  0.4423 -0.9276  0.9304
29902SOL    HW292245   8.981   1.690   4.823  0.4134 -0.4127  1.0338
29903SOL     OW92246   9.246   2.250   1.990  0.2195 -0.1177  0.1079
29903SOL    HW192247   9.338   2.252   2.014  0.1463 -1.5140  0.5703
29903SOL    HW292248   9.201   2.288   2.065  0.4894  1.6837 -0.6121
29904SOL     OW92249  10.108   5.780   7.238 -0.1433 -0.0420 -0.4232
29904SOL    HW192250  10.182   5.830   7.272 -1.1921  0.4025  1.2903
29904SOL    HW292251  10.140   5.690   7.231 -0.1241 -0.3166  2.6089
29905SOL     OW92252   5.286   7.984   0.179  0.3662  0.1193 -0.5216
29905SOL    HW192253   5.331   7.974   0.263  0.9055  4.0526 -0.2777
29905SOL    HW292254   5.328   8.060   0.138 -2.2148  0.3752 -2.8275
29906SOL     OW92255   4.030   1.778   4.759  0.1902  0.1689 -0.2874
29906SOL    HW192256   3.977   1.779   4.839 -0.2566  1.5355 -0.6051
29906SOL    HW292257   3.998   1.702   4.710 -0.3759  0.0572  0.2557
29907SOL     OW92258   6.650   6.014   1.521 -0.0739 -0.1587 -0.0443
29907SOL    HW192259   6.674   5.938   1.469  0.2337  0.5384 -0.9277
29907SOL    HW292260   6.710   6.012   1.595 -0.0204 -0.7348 -0.0981
29908SOL     OW92261   5.681   6.520   6.404  0.0216 -0.3889  0.2533
29908SOL    HW192262   5.633   6.595   6.367  1.9331  1.9521  2.2845
29908SOL    HW292263   5.772   6.538   6.382  0.7101 -1.0948  2.4305
29909SOL     OW92264   6.690   7.496   5.485  0.5414  0.4530 -0.2139
29909SOL    HW192265   6.597   7.505   5.462  0.2296 -0.0748  0.8224
29909SOL    HW292266   6.718   7.415   5.442  0.2688  0.1046  0.2580
29910SOL     OW92267   3.059   5.008   1.616 -0.4331  0.1958  0.5188
29910SOL    HW192268   3.121   5.027   1.546 -1.5552 -2.0187 -1.1348
29910SOL    HW292269   2.989   5.072   1.605 -0.0664  0.5575  0.2926
29911SOL     OW92270   6.096   0.850   4.180 -0.0094  0.0427 -0.9899
29911SOL    HW192271   6.175   0.826   4.132 -0.0404  1.5080 -1.7982
29911SOL    HW292272   6.042   0.771   4.179  2.0732 -1.4764  0.9077
29912SOL     OW92273   0.672   6.406   4.936 -0.2323  0.0860  0.2479
29912SOL    HW192274   0.665   6.446   4.849  0.1668  0.4040  0.3586
29912SOL    HW292275   0.689   6.479   4.995  1.9841 -0.3855  0.2461
29913SOL     OW92276   0.038   9.298   4.770 -0.3643  0.5880  0.7382
29913SOL    HW192277   0.033   9.221   4.826  2.0952  0.2443  0.5531
29913SOL    HW292278   0.038   9.263   4.681  0.9271  0.7507  0.6560
29914SOL     OW92279   7.011   6.430   2.433 -0.2957 -0.1512 -0.1222
29914SOL    HW192280   6.931   6.449   2.384 -0.6525  2.5791  1.4103
29914SOL    HW292281   6.994   6.466   2.520  2.0700 -0.8230  0.6357
29915SOL     OW92282   6.718   3.754   8.910 -0.2059 -0.2017 -0.2962
29915SOL    HW192283   6.624   3.743   8.896 -0.0895 -1.5086 -0.0927
29915SOL    HW292284   6.754   3.665   8.903  0.8451  0.1206  0.8871
29916SOL     OW92285   5.603   9.538   9.061 -0.4390 -0.0185 -0.1540
29916SOL    HW192286   5.529   9.562   9.118  0.7357 -0.9162  1.7866
29916SOL    HW292287   5.564   9.532   8.973 -2.7661 -0.9111  0.8962
29917SOL     OW92288   0.836   3.713   6.304  0.6286 -0.0983 -0.4425
29917SOL    HW192289   0.893   3.638   6.318  0.6348 -0.6261 -3.1131
29917SOL    HW292290   0.866   3.752   6.222 -0.7217  1.5772 -0.1765
29918SOL     OW92291   8.171   7.398   7.027  0.2342  0.0232 -0.1304
29918SOL    HW192292   8.217   7.326   7.070  1.1468  0.3448 -0.5434
29918SOL    HW292293   8.123   7.442   7.097  0.3130 -0.5036  0.2558
29919SOL     OW92294   1.272   3.736   7.160 -0.0058  0.0441  0.1923
29919SOL    HW192295   1.196   3.756   7.215  0.2984 -0.0244  0.6457
29919SOL    HW292296   1.291   3.819   7.115 -0.3883  0.0423  0.0279
29920SOL     OW92297   1.674   9.858   8.624 -0.7872  0.6775 -0.4574
29920SOL    HW192298   1.756   9.893   8.589  1.0608 -0.0837  2.8895
29920SOL    HW292299   1.614   9.932   8.624  1.5743  2.6747  2.0347
29921SOL     OW92300   1.440   6.125   2.565  0.1352  0.2972  0.3599
29921SOL    HW192301   1.421   6.216   2.589  0.4344 -0.3031  3.0312
29921SOL    HW292302   1.521   6.104   2.611  0.9210 -0.8607 -1.4962
29922SOL     OW92303   9.394   1.620   1.394  0.0840  0.1975  0.5157
29922SOL    HW192304   9.420   1.673   1.470 -3.1044 -1.2204  2.7230
29922SOL    HW292305   9.390   1.531   1.428 -2.8814 -0.2688 -0.8593
29923SOL     OW92306   7.648   4.333   7.372 -0.3742  0.4055  0.0011
29923SOL    HW192307   7.718   4.276   7.404 -1.8408 -0.2873  2.0316
29923SOL    HW292308   7.569   4.279   7.373 -1.1308  1.4154 -1.5016
29924SOL     OW92309   4.286   0.399   0.076 -0.0031 -0.3039 -0.1460
29924SOL    HW192310   4.323   0.433  -0.006 -0.0720 -0.6658 -0.3269
29924SOL    HW292311   4.360   0.399   0.137  0.3371 -1.1881 -0.5579
29925SOL     OW92312   0.551   2.066   4.162 -0.3271 -0.7057 -0.6309
29925SOL    HW192313   0.458   2.087   4.169  0.0499  0.3768  1.4821
29925SOL    HW292314   0.595   2.150   4.149  0.5960 -0.8886  1.1851
29926SOL     OW92315   2.425   6.870   8.722 -0.2025 -0.9946  0.1456
29926SOL    HW192316   2.392   6.841   8.637 -1.5781 -1.5530  0.8627
29926SOL    HW292317   2.500   6.814   8.739  0.6658 -0.2421 -1.1353
29927SOL     OW92318   0.729   7.878   6.466  0.4571 -0.7482  0.4903
29927SOL    HW192319   0.809   7.901   6.418 -0.3736 -0.3873 -0.7644
29927SOL    HW292320   0.706   7.958   6.514  0.0763 -0.3704 -0.2910
29928SOL     OW92321   2.823   4.137   8.477  0.2821  0.1000  0.2401
29928SOL    HW192322   2.766   4.200   8.431  0.1833 -0.0243  0.1915
29928SOL    HW292323   2.911   4.160   8.448  0.0696 -1.2750 -1.6151
29929SOL     OW92324   2.850   1.532   2.558  0.1695 -0.2183 -0.3256
29929SOL    HW192325   2.933   1.484   2.559  0.2020 -0.2802 -2.8987
29929SOL    HW292326   2.797   1.487   2.492 -1.9217 -0.1660  1.2590
29930SOL     OW92327   7.368   7.615   4.317 -0.2796  0.1281 -0.4080
29930SOL    HW192328   7.310   7.555   4.271 -0.4655 -1.7848  2.2402
29930SOL    HW292329   7.456   7.590   4.289 -0.4392 -0.4497 -0.3987
29931SOL     OW92330   9.037   7.066   3.773 -0.2926 -0.3381  0.5628
29931SOL    HW192331   9.090   7.089   3.697 -1.0872  0.0901  0.1368
29931SOL    HW292332   8.960   7.122   3.767 -0.2494 -0.1334  1.8130
29932SOL     OW92333   3.272   9.531   2.405  0.1567 -0.4438 -0.0826
29932SOL    HW192334   3.311   9.490   2.482  0.0247 -0.9386 -0.2794
29932SOL    HW292335   3.345   9.548   2.347  0.4278  1.1001  0.6847
29933SOL     OW92336   9.442   2.156   0.198 -0.2351  0.0113  0.0677
29933SOL    HW192337   9.370   2.185   0.143  1.7364  1.1859 -1.9513
29933SOL    HW292338   9.435   2.060   0.199 -0.7109  0.0117 -1.6841
29934SOL     OW92339   6.901   1.972   3.028 -0.7160 -0.1404 -0.3898
29934SOL    HW192340   6.908   1.983   2.933  0.6882  0.1481 -0.2642
29934SOL    HW292341   6.971   2.026   3.063  0.0039 -1.7648  0.7293
29935SOL     OW92342   6.155   9.794   6.416  0.0699  0.0596 -0.2761
29935SOL    HW192343   6.108   9.785   6.498  2.0927  0.2064  0.9402
29935SOL    HW292344   6.142   9.711   6.371 -1.3648  0.1219 -0.0062
29936SOL     OW92345   4.520   3.378   3.627 -0.3452  0.6708  0.2487
29936SOL    HW192346   4.513   3.442   3.556 -0.8154  0.6472  0.2707
29936SOL    HW292347   4.589   3.412   3.684  0.0242  0.6954 -0.2129
29937SOL     OW92348   3.608   9.156   7.590  0.0477 -0.6762 -1.0098
29937SOL    HW192349   3.526   9.116   7.561  0.1780 -1.4298 -0.3559
29937SOL    HW292350   3.629   9.110   7.672  1.4077 -0.8757 -1.4603
29938SOL     OW92351   6.118   1.888   2.945 -0.2126  0.2802  0.0544
29938SOL    HW192352   6.192   1.831   2.923 -0.5848  0.0509 -0.5905
29938SOL    HW292353   6.047   1.829   2.968 -0.5330  0.4874 -0.3977
29939SOL     OW92354   6.279   4.274   4.134  0.0916 -0.2182 -0.5603
29939SOL    HW192355   6.261   4.229   4.216  2.4867  1.7480  1.1392
29939SOL    HW292356   6.195   4.312   4.108 -0.4020  0.3858  1.7982
29940SOL     OW92357   4.414   7.125   4.219 -0.3098  0.0073 -0.0979
29940SOL    HW192358   4.447   7.139   4.130  1.3091 -0.4353  0.4061
29940SOL    HW292359   4.353   7.197   4.233 -2.0846 -1.0042 -2.2464
29941SOL     OW92360   8.895   8.547   1.175 -0.4897  0.0364 -0.1924
29941SOL    HW192361   8.953   8.479   1.210 -0.2186  0.8708  0.9757
29941SOL    HW292362   8.913   8.546   1.081  0.2098 -0.8490 -0.0644
29942SOL     OW92363   8.723   9.651   3.818  0.5722 -0.4424 -0.2081
29942SOL    HW192364   8.670   9.693   3.886  0.2070 -0.2371 -0.6145
29942SOL    HW292365   8.771   9.582   3.864  1.2012  0.4349  0.4738
29943SOL     OW92366   1.872   2.820   4.801  0.5532  0.7753 -0.3083
29943SOL    HW192367   1.907   2.741   4.760  0.7232 -0.1884  1.6483
29943SOL    HW292368   1.927   2.891   4.768  1.8038 -0.2162 -0.3758
29944SOL     OW92369   8.887   5.161   4.042 -0.2523 -0.3845  0.1556
29944SOL    HW192370   8.902   5.184   4.134 -3.2324  1.9778  0.1443
29944SOL    HW292371   8.848   5.074   4.046 -1.9123  0.3671  1.3101
29945SOL     OW92372   0.227   4.867   5.873 -0.4117  0.3848 -0.1013
29945SOL    HW192373   0.294   4.936   5.878  0.3645 -0.4346  0.9387
29945SOL    HW292374   0.277   4.786   5.863 -1.3330 -0.0174 -1.5867
29946SOL     OW92375   0.079   9.008   3.254 -0.3158 -0.6708  0.0116
29946SOL    HW192376   0.129   9.078   3.297 -1.0407  0.0104 -0.2418
29946SOL    HW292377   0.020   8.975   3.323  1.7191 -2.7153  0.8384
29947SOL     OW92378   1.114   8.407   1.060  0.1330 -0.2632  0.2641
29947SOL    HW192379   1.169   8.455   1.122  1.0023 -0.7291 -0.1434
29947SOL    HW292380   1.139   8.439   0.974 -1.4793  0.7908  0.1687
29948SOL     OW92381   3.787   3.159   6.154  0.3261  0.0436 -0.9715
29948SOL    HW192382   3.821   3.123   6.236  0.7465  0.8121 -0.8112
29948SOL    HW292383   3.862   3.200   6.113 -0.2006  0.9112 -1.0674
29949SOL     OW92384   4.725  10.029   9.612  0.2652 -0.6350  0.3540
29949SOL    HW192385   4.712   9.935   9.602  0.4075 -0.8749  2.2621
29949SOL    HW292386   4.814  10.038   9.644 -0.3772 -0.0030  2.0351
29950SOL     OW92387   2.492   2.182   6.688  0.2951  0.2060  0.2241
29950SOL    HW192388   2.551   2.158   6.759 -0.0111 -1.4296 -0.0434
29950SOL    HW292389   2.460   2.269   6.711  0.3056 -0.2497  2.0350
29951SOL     OW92390   8.501   4.767   2.218 -0.2960 -0.5040  0.1686
29951SOL    HW192391   8.534   4.746   2.130  1.2600 -0.1316  0.6501
29951SOL    HW292392   8.567   4.826   2.255 -1.4035  0.0852  1.2536
29952SOL     OW92393   8.337   1.126   9.710  0.2401 -0.1311 -0.4947
29952SOL    HW192394   8.297   1.132   9.796 -0.8117  1.0842 -1.0431
29952SOL    HW292395   8.267   1.096   9.652  0.7351 -0.2188 -1.0586
29953SOL     OW92396   9.438   6.649   5.994 -0.1833 -0.2602 -0.4140
29953SOL    HW192397   9.480   6.661   6.079  2.6906  1.6842 -2.0377
29953SOL    HW292398   9.469   6.564   5.963  0.6111  0.0678 -0.5229
29954SOL     OW92399   8.822   2.509   4.133 -0.5464  0.4885 -0.1253
29954SOL    HW192400   8.908   2.546   4.115 -0.7077  0.3242 -1.2754
29954SOL    HW292401   8.760   2.575   4.101 -0.8327 -0.1356 -0.9063
29955SOL     OW92402   2.311   2.861   2.029 -0.2032  0.6811  0.0831
29955SOL    HW192403   2.304   2.943   2.078  0.1947  1.5102 -1.2368
29955SOL    HW292404   2.403   2.836   2.038 -0.6305 -0.3854  1.6832
29956SOL     OW92405   2.137   6.635   9.688  0.1423 -0.6077 -0.1645
29956SOL    HW192406   2.194   6.633   9.612 -1.1420  0.9826 -1.2103
29956SOL    HW292407   2.173   6.704   9.744 -1.1421  0.9147 -1.1743
29957SOL     OW92408   6.597   5.397   8.063  0.3240 -0.1124 -0.3152
29957SOL    HW192409   6.534   5.371   7.995 -0.9375  1.2313  0.3013
29957SOL    HW292410   6.559   5.476   8.102  2.1701  0.4485  0.4089
29958SOL     OW92411   9.509   5.675   8.195  0.8409  0.2969  0.3262
29958SOL    HW192412   9.506   5.591   8.150  0.0355  0.2826  0.4061
29958SOL    HW292413   9.430   5.721   8.167 -0.0114  0.0382  2.2253
29959SOL     OW92414   9.305   1.065   3.708  0.0717  0.0336 -0.0554
29959SOL    HW192415   9.314   0.970   3.715  1.6226  0.0829 -1.0887
29959SOL    HW292416   9.247   1.089   3.780  1.1748 -1.4861  1.3866
29960SOL     OW92417   3.746   7.696   5.552 -0.2205  0.6092 -0.3005
29960SOL    HW192418   3.694   7.739   5.620 -0.6096 -0.0746 -0.1609
29960SOL    HW292419   3.747   7.603   5.578 -0.6143  0.3008 -1.3762
29961SOL     OW92420   9.995   1.591   4.494 -0.1331 -0.0757 -0.1604
29961SOL    HW192421  10.016   1.684   4.501  0.2830 -0.3461  2.3803
29961SOL    HW292422  10.078   1.548   4.474  0.0058 -0.0887  0.4339
29962SOL     OW92423   2.979  10.153   9.524  0.4807  0.4162  0.4971
29962SOL    HW192424   3.010  10.168   9.434 -1.2919  0.0333 -0.2139
29962SOL    HW292425   2.973  10.240   9.562  1.0083  0.6041  0.1562
29963SOL     OW92426   2.030   5.255   2.392 -0.5394  0.3156  0.0275
29963SOL    HW192427   1.976   5.277   2.316 -0.1665 -0.8678 -0.5798
29963SOL    HW292428   2.105   5.315   2.387 -2.3563  2.8726  1.5748
29964SOL     OW92429   5.847   3.299   0.186  0.3041  0.1496  0.5582
29964SOL    HW192430   5.918   3.239   0.164  2.3049  3.2203 -1.7155
29964SOL    HW292431   5.772   3.266   0.137  1.3003 -0.6836 -0.4449
29965SOL     OW92432   8.010   2.341   8.209  0.4152 -0.2342  0.0846
29965SOL    HW192433   7.995   2.358   8.116  1.4226 -1.8002 -0.3837
29965SOL    HW292434   8.025   2.428   8.247 -2.0250  0.6469 -0.8022
29966SOL     OW92435   3.447   9.190   6.166  0.0820 -0.1873 -0.2251
29966SOL    HW192436   3.385   9.134   6.118 -1.4227  1.4635 -0.2615
29966SOL    HW292437   3.430   9.171   6.258 -0.5518  0.3255 -0.2334
29967SOL     OW92438   2.823   8.366   7.113  0.2094 -0.1675 -0.2205
29967SOL    HW192439   2.770   8.301   7.158  0.5607 -0.5459 -0.3474
29967SOL    HW292440   2.896   8.384   7.172  0.5912 -0.5563 -0.5606
29968SOL     OW92441   4.411   8.494   2.061 -0.4668  0.2165 -0.2059
29968SOL    HW192442   4.504   8.472   2.056  0.1000  2.4940 -0.0890
29968SOL    HW292443   4.371   8.418   2.103  1.2132 -1.1216 -0.9410
29969SOL     OW92444   3.358   8.635   4.523  0.1465 -0.0007  0.2834
29969SOL    HW192445   3.275   8.588   4.514 -0.6604  1.2062  1.1983
29969SOL    HW292446   3.394   8.604   4.606  1.0157 -1.1283 -0.5079
29970SOL     OW92447   0.340   2.234   8.916  0.4706 -0.0378 -1.1376
29970SOL    HW192448   0.424   2.279   8.905  1.2504 -1.2698 -0.2727
29970SOL    HW292449   0.281   2.303   8.948  0.5979  1.3237 -3.7422
29971SOL     OW92450  10.059   9.091   7.252 -0.4286 -0.7916  0.6960
29971SOL    HW192451  10.029   9.055   7.336  0.1492 -0.5679  1.0006
29971SOL    HW292452  10.136   9.143   7.275  0.3420 -1.5610 -0.1180
29972SOL     OW92453   0.806   6.684   1.297 -0.4946  0.5282 -0.2143
29972SOL    HW192454   0.821   6.771   1.335 -1.3555  0.3863  0.4597
29972SOL    HW292455   0.791   6.701   1.204 -0.6875  1.1070 -0.0838
29973SOL     OW92456   4.588   4.202   4.472  0.3716 -0.4166  0.8965
29973SOL    HW192457   4.508   4.219   4.420  0.5213 -1.1506  0.4262
29973SOL    HW292458   4.656   4.249   4.425  0.3891 -0.5557  0.7828
29974SOL     OW92459   1.679   1.035  10.135 -0.0268 -0.4003 -0.0856
29974SOL    HW192460   1.634   0.992  10.207 -2.5788 -1.3152 -2.1159
29974SOL    HW292461   1.641   1.123  10.132 -0.6471 -0.6878 -0.8942
29975SOL     OW92462   4.900   1.714   3.510 -0.4163 -0.1762  0.3895
29975SOL    HW192463   4.863   1.724   3.422  1.9970 -1.4279 -0.8163
29975SOL    HW292464   4.942   1.629   3.509 -2.2179 -1.1984  3.5320
29976SOL     OW92465   6.113   2.370   4.850 -0.0262 -0.1354  0.5147
29976SOL    HW192466   6.113   2.330   4.763  1.2306 -1.2820  1.0218
29976SOL    HW292467   6.152   2.456   4.836 -0.0318 -0.2243 -0.0943
29977SOL     OW92468   0.945   4.935   0.040 -0.0048 -0.2849 -0.2882
29977SOL    HW192469   0.882   4.900   0.104 -0.5580 -1.1003 -1.2733
29977SOL    HW292470   0.942   4.874  -0.033  2.1371 -0.4705 -0.2440
29978SOL     OW92471   5.083   4.551   1.273  0.4664  0.0973  0.1379
29978SOL    HW192472   5.095   4.458   1.291 -1.4773 -0.4925 -1.5033
29978SOL    HW292473   5.077   4.591   1.360  2.0000 -1.1790  0.8675
29979SOL     OW92474   0.539   7.212   5.692  0.5845  0.0920 -0.4983
29979SOL    HW192475   0.606   7.163   5.741  0.9714  1.4028  0.3120
29979SOL    HW292476   0.478   7.145   5.663  0.3505 -0.7535  1.7957
29980SOL     OW92477   1.982   3.512   0.957 -0.0233 -0.2469  0.8445
29980SOL    HW192478   2.035   3.549   0.887 -0.2240 -0.5258  0.5457
29980SOL    HW292479   2.007   3.420   0.960 -0.8308 -0.4844  0.3920
29981SOL     OW92480   0.492   8.261   0.033 -0.7799  0.1549  0.2231
29981SOL    HW192481   0.534   8.193  -0.020  0.6827  0.0311  1.4976
29981SOL    HW292482   0.399   8.240   0.030 -0.7562  0.2773 -2.4489
29982SOL     OW92483   5.945   1.312   7.737  0.5974 -0.0524  0.5786
29982SOL    HW192484   5.862   1.358   7.726 -0.4665 -1.9526  0.3160
29982SOL    HW292485   5.994   1.364   7.800  0.0615  2.2056 -0.7964
29983SOL     OW92486   8.614   9.018   6.664 -0.3157  0.6264 -0.0618
29983SOL    HW192487   8.599   8.923   6.657 -0.2532  0.6651 -0.8004
29983SOL    HW292488   8.526   9.055   6.672 -0.5731  0.7180 -2.6907
29984SOL     OW92489   7.396   9.708   3.959 -0.1247 -0.1549 -0.5780
29984SOL    HW192490   7.390   9.614   3.975 -1.9151 -0.1882 -1.3531
29984SOL    HW292491   7.371   9.719   3.867 -3.1634  1.3854  0.3809
29985SOL     OW92492   3.570   7.527   0.488  0.4519 -0.0644 -0.3011
29985SOL    HW192493   3.529   7.453   0.442 -1.5849  1.0443 -0.3562
29985SOL    HW292494   3.661   7.527   0.459  0.6310 -2.9075  0.1690
29986SOL     OW92495   6.355   2.130   0.918 -0.2413  0.5620 -0.3404
29986SOL    HW192496   6.321   2.174   0.841 -0.2764 -0.3170 -0.8375
29986SOL    HW292497   6.303   2.050   0.925  0.5135  0.0875 -0.0592
29987SOL     OW92498   4.439   9.394   1.235  0.1344 -0.2380  0.3529
29987SOL    HW192499   4.359   9.341   1.235 -0.1847  0.2403  1.5594
29987SOL    HW292500   4.410   9.481   1.208  0.2931 -0.1383  0.5056
29988SOL     OW92501   1.344   4.217   5.837  0.2705 -0.3574 -0.1028
29988SOL    HW192502   1.408   4.189   5.902  0.3482  0.3581  0.1296
29988SOL    HW292503   1.395   4.226   5.756  0.1638 -1.2960 -0.2793
29989SOL     OW92504   6.084   2.393   7.957 -0.6276  0.1377  0.2987
29989SOL    HW192505   6.173   2.419   7.981  0.3359 -3.4079  0.8101
29989SOL    HW292506   6.040   2.380   8.041 -0.6346 -1.2363  0.0939
29990SOL     OW92507   8.692   2.112   0.664 -0.1354 -0.4241  0.0908
29990SOL    HW192508   8.746   2.188   0.644 -0.5219  0.2830  1.6826
29990SOL    HW292509   8.725   2.044   0.605  1.1311  0.5769 -0.3879
29991SOL     OW92510   0.818   3.625   1.585  0.0313  0.2049  0.2586
29991SOL    HW192511   0.731   3.587   1.592  0.3490 -1.2093 -2.6901
29991SOL    HW292512   0.847   3.603   1.496  3.9173 -0.5445  1.6158
29992SOL     OW92513   7.884   7.266   3.908  0.1725  0.1572 -0.0640
29992SOL    HW192514   7.802   7.218   3.901 -1.2100  2.1181  1.9221
29992SOL    HW292515   7.901   7.271   4.002  1.1906  1.9961 -0.3168
29993SOL     OW92516   7.363   9.494   6.765  0.2799 -0.2455 -0.4046
29993SOL    HW192517   7.432   9.550   6.732 -0.4772  1.1032  0.2435
29993SOL    HW292518   7.326   9.452   6.687 -0.4833  1.7212 -1.1394
29994SOL     OW92519   4.612   2.173   7.133  0.1093  0.2887  0.2241
29994SOL    HW192520   4.682   2.187   7.069 -1.4524  0.8829 -1.3882
29994SOL    HW292521   4.643   2.217   7.212  2.7476 -1.7353  0.4202
29995SOL     OW92522   8.603   9.726   7.583  0.1975 -0.3242 -0.2893
29995SOL    HW192523   8.698   9.739   7.587  0.4661 -1.7166 -1.6263
29995SOL    HW292524   8.574   9.783   7.512  0.0356  0.1622  0.1738
29996SOL     OW92525   1.865   9.531   2.397 -0.6788 -0.0797 -0.2071
29996SOL    HW192526   1.905   9.444   2.405  1.3408  0.7063 -1.4757
29996SOL    HW292527   1.917   9.587   2.453 -0.3675  0.8269 -1.3791
29997SOL     OW92528   2.607   4.031   2.453  0.0345 -0.1437 -0.3122
29997SOL    HW192529   2.513   4.012   2.448 -0.2947  1.9907 -2.7349
29997SOL    HW292530   2.632   4.058   2.365  2.7325  0.2940  0.5295
29998SOL     OW92531   1.946   2.330   5.810  0.0369  0.2699 -0.0403
29998SOL    HW192532   2.026   2.369   5.775  0.2402  0.5217  0.6979
29998SOL    HW292533   1.888   2.403   5.827  0.0773  0.1827  0.4896
29999SOL     OW92534   3.258   5.399   4.850 -0.1562 -0.0042  0.2774
29999SOL    HW192535   3.211   5.374   4.929  1.7022  2.3414  2.1905
29999SOL    HW292536   3.324   5.330   4.838  0.5907  0.4630  1.6811
30000SOL     OW92537   3.185   9.202   1.429  0.3810  0.3061 -0.4756
30000SOL    HW192538   3.258   9.251   1.392  1.4195 -0.3644  0.6805
30000SOL    HW292539   3.185   9.119   1.382  1.8172 -0.6210  1.1254
30001SOL     OW92540   3.861   7.419   9.298  0.7049  0.0982 -0.0223
30001SOL    HW192541   3.936   7.449   9.349  1.5050 -0.3125 -0.9453
30001SOL    HW292542   3.838   7.334   9.336  2.0605 -0.7691 -1.1010
30002SOL     OW92543   7.757   1.227   4.878  0.5482 -0.1401 -0.5574
30002SOL    HW192544   7.672   1.222   4.834  1.6422  2.0590 -3.0508
30002SOL    HW292545   7.736   1.260   4.966 -1.1838  0.2287 -1.0760
30003SOL     OW92546   0.997   2.413   3.024 -0.4294 -0.3109  0.1502
30003SOL    HW192547   1.053   2.460   3.085  1.3312 -1.8333 -0.2368
30003SOL    HW292548   0.986   2.473   2.950  1.7260 -0.4468 -0.3149
30004SOL     OW92549   9.521   4.906   6.949  0.2922 -0.0324  0.1011
30004SOL    HW192550   9.582   4.859   6.892 -0.4775  1.9313 -2.4774
30004SOL    HW292551   9.482   4.839   7.004  3.7641 -1.5312  0.8848
30005SOL     OW92552   8.872   0.683   5.928  0.5460  0.5718 -0.0022
30005SOL    HW192553   8.803   0.746   5.905 -0.9679 -0.4719  1.5623
30005SOL    HW292554   8.951   0.718   5.887 -0.6050  2.6051 -0.5594
30006SOL     OW92555   6.464   3.155   3.363 -0.4074  0.7010  0.8718
30006SOL    HW192556   6.414   3.075   3.347 -1.0122  1.5127 -1.5798
30006SOL    HW292557   6.552   3.135   3.332 -0.0491  0.3574  2.0926
30007SOL     OW92558   1.535   0.613   8.815  0.5962 -0.6004  0.3791
30007SOL    HW192559   1.466   0.669   8.779  0.6149 -0.8492 -0.0589
30007SOL    HW292560   1.602   0.610   8.746  0.8666 -0.6723  0.6438
30008SOL     OW92561   0.365   6.586   6.652  0.2784  0.1305  0.0978
30008SOL    HW192562   0.379   6.652   6.585 -0.0064  0.9087  0.7940
30008SOL    HW292563   0.296   6.623   6.708  0.2458 -0.6710  0.5963
30009SOL     OW92564   5.571   8.325   5.247 -0.2737 -0.6307 -0.4741
30009SOL    HW192565   5.593   8.248   5.300  0.8490  0.1956  0.2899
30009SOL    HW292566   5.572   8.398   5.309 -3.8347 -0.3352 -0.7017
30010SOL     OW92567   5.813   5.104   0.273  0.2015 -0.1324  0.7008
30010SOL    HW192568   5.858   5.075   0.352 -0.9012  0.2050  1.4525
30010SOL    HW292569   5.732   5.143   0.304 -0.1362  0.2059 -0.5825
30011SOL     OW92570   8.494   7.845   5.839 -0.6338 -0.0250  0.5840
30011SOL    HW192571   8.436   7.770   5.845  0.1398 -0.5895  1.1458
30011SOL    HW292572   8.575   7.817   5.882 -0.0283  0.8253  0.0369
30012SOL     OW92573   9.281   6.427   8.199 -0.6603 -0.4376  0.5542
30012SOL    HW192574   9.301   6.479   8.278 -0.0477  2.1605 -1.2489
30012SOL    HW292575   9.366   6.393   8.171 -0.8495 -1.1953  0.8851
30013SOL     OW92576   4.203   1.666   9.630  0.3529  0.0260 -0.1326
30013SOL    HW192577   4.224   1.621   9.548 -0.1846  1.0179 -0.8234
30013SOL    HW292578   4.109   1.685   9.624  0.2706 -0.0336  0.7882
30014SOL     OW92579   6.461   9.115   4.863 -0.6641 -0.6412  0.1144
30014SOL    HW192580   6.418   9.197   4.838 -0.6934 -0.5673  0.4065
30014SOL    HW292581   6.445   9.056   4.789  2.5579  0.7809 -1.8399
30015SOL     OW92582   5.065   7.294   9.179  0.2137  0.6079  0.1401
30015SOL    HW192583   5.100   7.359   9.239  0.0639  2.0621 -1.2959
30015SOL    HW292584   4.987   7.260   9.222 -0.0142  1.7936  0.6690
30016SOL     OW92585   2.932   3.361   1.091 -0.2724 -0.1727 -0.0684
30016SOL    HW192586   2.994   3.411   1.038 -0.8619 -1.7398 -2.3108
30016SOL    HW292587   2.848   3.371   1.045 -1.0761 -0.4674  1.3108
30017SOL     OW92588   9.537   6.337   4.073  0.2764 -0.9787  0.2333
30017SOL    HW192589   9.501   6.315   4.159  1.5658 -0.2090  0.9955
30017SOL    HW292590   9.628   6.306   4.077  0.3883 -0.7944 -0.7992
30018SOL     OW92591   2.746   8.970   1.799 -0.3230 -0.3248  0.0116
30018SOL    HW192592   2.682   9.040   1.812 -0.2321 -0.0622 -0.8918
30018SOL    HW292593   2.763   8.937   1.887 -3.6214 -2.1162  0.0575
30019SOL     OW92594   5.121   7.390   2.154 -0.2002  0.0557 -0.4641
30019SOL    HW192595   5.131   7.321   2.089 -1.8435 -0.8435  0.2000
30019SOL    HW292596   5.201   7.385   2.207  0.0355 -0.8142 -0.8970
30020SOL     OW92597   7.299   8.615   1.716 -0.1110  0.1845 -0.2928
30020SOL    HW192598   7.340   8.539   1.758 -0.5117 -0.0067 -0.2460
30020SOL    HW292599   7.372   8.674   1.696  0.3540 -0.8139 -1.5694
30021SOL     OW92600  10.018   3.334   7.780  0.2405  0.0485 -0.1231
30021SOL    HW192601   9.954   3.405   7.768  2.8409  2.6732  0.9626
30021SOL    HW292602   9.970   3.266   7.827 -2.3981  0.9236 -1.4078
30022SOL     OW92603   7.211   6.004   2.300 -0.2125  0.0253 -0.2004
30022SOL    HW192604   7.216   6.099   2.292 -1.2248 -0.0010 -1.2838
30022SOL    HW292605   7.119   5.985   2.317  0.1640 -0.6980  1.1397
30023SOL     OW92606   9.690   8.925   7.811 -0.4249 -0.4007  0.2245
30023SOL    HW192607   9.766   8.877   7.777 -0.0134 -0.5870  1.3941
30023SOL    HW292608   9.630   8.930   7.737  1.0311  0.3901 -0.9413
30024SOL     OW92609   2.815   2.367   3.129  0.0185  0.6402  0.0394
30024SOL    HW192610   2.812   2.364   3.033 -1.6254 -0.1883  0.1024
30024SOL    HW292611   2.727   2.343   3.157  0.3211  1.4325  1.7606
30025SOL     OW92612   2.167  10.086   5.750 -0.5817 -0.4580 -0.0908
30025SOL    HW192613   2.094  10.025   5.737 -1.9138  1.0370  0.1654
30025SOL    HW292614   2.165  10.143   5.673 -0.8764  0.7721  0.8112
30026SOL     OW92615   2.234   8.549   6.103  0.0726  0.0112 -0.4323
30026SOL    HW192616   2.264   8.503   6.025  1.3697  0.2254 -0.0592
30026SOL    HW292617   2.251   8.641   6.084  1.5650 -0.0376  0.6097
30027SOL     OW92618   2.653   5.639   3.065 -0.3807 -0.4119 -0.4631
30027SOL    HW192619   2.602   5.694   3.125 -0.0314 -0.4027 -0.1782
30027SOL    HW292620   2.627   5.668   2.978 -2.0815 -1.4806 -0.3453
30028SOL     OW92621   3.684   0.929   3.974 -0.5074 -0.3835  0.6172
30028SOL    HW192622   3.711   0.933   4.065 -1.7801 -0.9382  1.0287
30028SOL    HW292623   3.698   0.839   3.947 -0.9711 -0.4337  0.5327
30029SOL     OW92624   6.034   1.348   8.601  0.5994 -0.4722  0.1085
30029SOL    HW192625   6.004   1.420   8.545 -0.3274 -0.8291  0.1364
30029SOL    HW292626   6.098   1.388   8.660  0.1204  0.3229  0.0953
30030SOL     OW92627   7.098   7.506   7.831 -0.6523 -0.1600 -0.4810
30030SOL    HW192628   7.052   7.567   7.774 -1.0844  0.5419  0.6133
30030SOL    HW292629   7.148   7.562   7.890  0.2879 -0.8942 -0.5578
30031SOL     OW92630   1.628   2.646   9.635 -0.8114  0.1534  0.1803
30031SOL    HW192631   1.548   2.679   9.594 -0.5615 -0.1807 -0.5885
30031SOL    HW292632   1.688   2.720   9.635 -0.1982 -0.3182 -1.6809
30032SOL     OW92633   9.325   2.179   7.121 -0.2274  0.2141  0.1816
30032SOL    HW192634   9.321   2.096   7.073  0.4661  0.1962  0.1484
30032SOL    HW292635   9.387   2.163   7.192 -0.7373  0.4506  0.6760
30033SOL     OW92636   5.974   3.952   1.465  0.5112 -0.2934  0.3232
30033SOL    HW192637   5.938   3.929   1.379 -0.1102 -3.7724  1.4260
30033SOL    HW292638   5.961   4.046   1.472 -0.7908 -0.1688 -2.7720
30034SOL     OW92639   0.286   6.846   0.901  0.4891 -0.2671  0.5349
30034SOL    HW192640   0.288   6.849   0.805 -1.1135  2.2661  0.5260
30034SOL    HW292641   0.312   6.935   0.928  0.7185 -0.8935  2.4519
30035SOL     OW92642   6.392   0.845   1.622  0.2499  0.3096 -0.0256
30035SOL    HW192643   6.379   0.909   1.692 -0.3568 -0.7429  0.8336
30035SOL    HW292644   6.484   0.855   1.597  0.3279  1.0664  0.5475
30036SOL     OW92645   8.139   1.946   7.643 -0.3905 -0.1159 -0.3857
30036SOL    HW192646   8.092   2.002   7.705 -0.7005  0.6517 -1.3084
30036SOL    HW292647   8.208   1.906   7.696 -0.5805  0.6166  0.4386
30037SOL     OW92648   4.333   4.149   3.158 -0.0047  0.1430 -0.0027
30037SOL    HW192649   4.253   4.097   3.167  0.2473 -0.8085 -2.7402
30037SOL    HW292650   4.387   4.123   3.233 -1.8180  0.0040  1.2796
30038SOL     OW92651   3.691   4.225  10.098  0.3992  0.5999  0.2635
30038SOL    HW192652   3.722   4.135  10.094  0.6354  0.7502 -1.3909
30038SOL    HW292653   3.696   4.247  10.191 -0.8820 -1.5033  0.8797
30039SOL     OW92654   9.635   3.130   0.749 -0.4974  0.4179 -0.5727
30039SOL    HW192655   9.691   3.082   0.688 -1.2220 -0.4030 -0.5971
30039SOL    HW292656   9.666   3.221   0.744  1.2056 -0.1277 -0.1598
30040SOL     OW92657   5.044   8.101   9.799 -0.5460  0.0050 -0.8570
30040SOL    HW192658   5.122   8.066   9.844 -0.6841  0.5904 -0.1697
30040SOL    HW292659   5.064   8.090   9.706  0.5612  0.5735 -0.6958
30041SOL     OW92660   8.717   0.837   9.922 -0.2081  0.8891 -0.4613
30041SOL    HW192661   8.769   0.918   9.918  1.2448 -0.0966 -2.4443
30041SOL    HW292662   8.646   0.851   9.860 -1.1801  1.4556  0.7670
30042SOL     OW92663   0.409   0.690   1.073  0.1231  0.4129 -0.5285
30042SOL    HW192664   0.351   0.707   1.148  1.2433  1.6896  0.0569
30042SOL    HW292665   0.496   0.715   1.103  0.7833 -0.2138 -1.8644
30043SOL     OW92666   9.524   5.371   3.389  0.1087  0.2810 -0.0505
30043SOL    HW192667   9.429   5.376   3.377 -0.0640  0.5917  1.3609
30043SOL    HW292668   9.536   5.363   3.484  1.4534 -0.7631 -0.2920
30044SOL     OW92669   3.626   8.448   3.909  0.6480 -0.4102  0.5483
30044SOL    HW192670   3.647   8.428   3.818 -0.0064 -1.1276  0.5495
30044SOL    HW292671   3.710   8.448   3.954  1.0590  0.7292 -0.2001
30045SOL     OW92672   0.394   4.497   9.822 -0.1386  0.2269 -0.0161
30045SOL    HW192673   0.390   4.496   9.918 -1.6219  2.1189 -0.0266
30045SOL    HW292674   0.335   4.426   9.795  0.6692 -0.6433  0.4603
30046SOL     OW92675   1.612   9.799   9.589  0.2649  0.0121  0.0958
30046SOL    HW192676   1.665   9.848   9.651  0.1926 -0.6991  0.7362
30046SOL    HW292677   1.635   9.834   9.503  0.0985  1.2515  0.5552
30047SOL     OW92678   5.997   9.829   3.818  0.9406 -0.1424 -0.5578
30047SOL    HW192679   5.952   9.744   3.815  2.7949 -1.1884  0.3292
30047SOL    HW292680   5.962   9.877   3.743  2.1492 -2.8883 -2.9876
30048SOL     OW92681   1.714   9.865   2.968  0.3778  0.0038 -0.3948
30048SOL    HW192682   1.669   9.947   2.987 -0.1413 -0.2650 -0.4412
30048SOL    HW292683   1.786   9.889   2.910  1.0377  0.6177  0.6566
30049SOL     OW92684   1.696   9.707   8.378 -0.0356  0.6221  0.1412
30049SOL    HW192685   1.762   9.663   8.432  0.5939 -0.0436 -1.1483
30049SOL    HW292686   1.652   9.767   8.438  2.7585  2.1766  0.7213
30050SOL     OW92687   1.096   0.225   8.211  0.5477 -0.3793  0.0468
30050SOL    HW192688   1.018   0.279   8.227  0.4100 -0.5758  0.0390
30050SOL    HW292689   1.063   0.150   8.162  0.7974 -0.2909 -0.2606
30051SOL     OW92690   6.630   7.985   7.479  0.0980  0.5604 -0.9055
30051SOL    HW192691   6.588   8.017   7.398  0.1888  1.8368 -0.4708
30051SOL    HW292692   6.557   7.964   7.537  0.0400  1.1236 -0.7706
30052SOL     OW92693   3.548   0.588   3.292  0.7549 -0.1575  0.1495
30052SOL    HW192694   3.530   0.569   3.384 -0.5370 -0.3167 -0.1233
30052SOL    HW292695   3.467   0.627   3.260  0.9943 -0.6753 -1.0841
30053SOL     OW92696   9.979   0.081   7.538  0.0036  0.3693 -0.3382
30053SOL    HW192697   9.930   0.103   7.617  0.3293 -1.3560  0.3763
30053SOL    HW292698  10.047   0.148   7.533 -0.8686  1.3110  0.0539
30054SOL     OW92699   2.040   3.655   3.262 -0.0740  0.0332  0.5990
30054SOL    HW192700   2.005   3.621   3.344 -1.1853 -0.0281  0.1034
30054SOL    HW292701   1.963   3.684   3.213  0.2029 -3.1438 -1.9090
30055SOL     OW92702   1.993   0.708  10.138  0.1513  0.3927  0.0278
30055SOL    HW192703   2.037   0.792  10.152  0.6307  0.4892 -1.9785
30055SOL    HW292704   1.917   0.728  10.084  1.1026 -0.6378 -1.7626
30056SOL     OW92705   2.256  10.146   1.544 -0.5045  0.1682  0.1997
30056SOL    HW192706   2.215  10.166   1.460  2.0194 -0.9806 -1.3463
30056SOL    HW292707   2.277  10.232   1.581  1.6663  0.6569 -2.0391
30057SOL     OW92708   1.913   1.217   1.671 -0.2966 -1.0252 -0.3427
30057SOL    HW192709   1.861   1.148   1.629  0.6657 -1.7553 -0.3670
30057SOL    HW292710   1.964   1.171   1.738  0.2141 -0.3038 -0.2288
30058SOL     OW92711   0.006   3.914   8.378  0.2785  0.5844 -0.0021
30058SOL    HW192712   0.091   3.953   8.357  0.5872 -0.1823 -0.1761
30058SOL    HW292713   0.024   3.858   8.454  0.2487 -0.7927 -1.0053
30059SOL     OW92714   2.139   9.097   8.543  0.0477 -0.3667 -0.4764
30059SOL    HW192715   2.188   9.023   8.508  0.7419  0.0465 -0.3829
30059SOL    HW292716   2.145   9.165   8.476 -0.1765 -0.2218 -0.3535
30060SOL     OW92717   7.246   7.860   4.859 -0.2330  0.3429 -0.1883
30060SOL    HW192718   7.259   7.951   4.886 -1.7862  1.1653 -2.1204
30060SOL    HW292719   7.237   7.864   4.764 -1.1263 -1.7339 -0.2193
30061SOL     OW92720   5.023   6.305   0.068 -0.0259  0.0310  0.0088
30061SOL    HW192721   5.063   6.219   0.074 -1.6614 -0.6246  1.9668
30061SOL    HW292722   4.935   6.293   0.103  0.1194  2.7416  1.3967
30062SOL     OW92723   3.629   0.847   0.308  0.4941 -0.1462 -0.3218
30062SOL    HW192724   3.549   0.875   0.264  1.1482  2.4179  0.0554
30062SOL    HW292725   3.602   0.832   0.399  0.8350  2.9875  0.3629
30063SOL     OW92726  10.189   1.256   1.938 -0.2754  0.3289 -0.1595
30063SOL    HW192727  10.190   1.352   1.937  0.4418  0.3338  0.3487
30063SOL    HW292728  10.266   1.232   1.991  1.0175 -0.5581 -2.3947
30064SOL     OW92729   5.399   2.396   3.089  0.0326  0.2390  0.3756
30064SOL    HW192730   5.464   2.459   3.120 -0.6636  0.2565  1.8356
30064SOL    HW292731   5.442   2.311   3.098  0.6764  0.4185 -0.8399
30065SOL     OW92732   3.968   1.288   7.095  0.5841  0.0229  0.0785
30065SOL    HW192733   3.962   1.351   7.167  0.6074  1.1311 -0.8644
30065SOL    HW292734   4.054   1.248   7.106 -0.2446 -1.3314  1.8728
30066SOL     OW92735   7.552   8.974   9.221 -0.1462 -0.8284  0.1012
30066SOL    HW192736   7.562   8.898   9.279  3.1889 -0.7622 -0.2889
30066SOL    HW292737   7.640   9.010   9.215 -1.2491  1.6286 -1.7080
30067SOL     OW92738   7.977   4.427   0.267 -0.6535 -0.0708  0.6695
30067SOL    HW192739   7.976   4.456   0.358  0.1032 -0.2982  0.7526
30067SOL    HW292740   8.034   4.350   0.267 -1.3181 -0.5626  0.1524
30068SOL     OW92741   6.018   0.179   9.433  0.3332  0.1140  0.1857
30068SOL    HW192742   5.978   0.235   9.500 -1.5513 -0.8043 -0.1283
30068SOL    HW292743   6.085   0.130   9.481  0.9644  1.5089  0.7814
30069SOL     OW92744   2.492   4.701   9.435 -0.4286  0.3638  0.1025
30069SOL    HW192745   2.440   4.622   9.419 -0.4361  0.2660  0.6076
30069SOL    HW292746   2.582   4.674   9.414 -0.1870 -0.2787  1.9204
30070SOL     OW92747   7.791   1.801   2.001 -0.2248  0.5113  0.2050
30070SOL    HW192748   7.793   1.748   2.081  0.2707 -0.1654 -0.2540
30070SOL    HW292749   7.800   1.738   1.930 -2.0360  0.9618 -0.4529
30071SOL     OW92750   6.984   1.405   2.046  0.1015 -0.4160 -0.4415
30071SOL    HW192751   6.974   1.364   2.132 -0.6731  0.4207 -0.1240
30071SOL    HW292752   7.044   1.347   1.999  2.4747  0.4055  1.4744
30072SOL     OW92753   8.602   8.529   0.260 -0.4167 -0.0187 -0.2955
30072SOL    HW192754   8.544   8.510   0.186 -0.0668  0.4555 -0.6935
30072SOL    HW292755   8.634   8.618   0.244  0.8211 -0.4577 -0.3585
30073SOL     OW92756   9.054   1.044   3.821  0.0502 -0.3795 -0.0767
30073SOL    HW192757   9.041   1.037   3.916  1.5604 -1.4522  0.0733
30073SOL    HW292758   9.000   0.974   3.784  1.2096 -1.4299  0.1713
30074SOL     OW92759   2.541   7.541   8.949 -0.5898 -0.3813 -0.4806
30074SOL    HW192760   2.556   7.513   8.859 -0.5551 -1.2923 -0.1939
30074SOL    HW292761   2.506   7.630   8.941  1.9340  0.6024 -1.2882
30075SOL     OW92762   5.977   2.326   6.310  0.4641  0.4499 -0.2310
30075SOL    HW192763   6.058   2.281   6.286  0.2044 -0.0555 -0.1600
30075SOL    HW292764   6.006   2.404   6.357  0.9066  0.0741  0.1315
30076SOL     OW92765   6.700   0.214   9.260  0.1698 -0.0231  0.2364
30076SOL    HW192766   6.753   0.281   9.303  0.5944  0.5986 -1.2149
30076SOL    HW292767   6.763   0.151   9.227 -0.1985 -0.8694  1.1415
30077SOL     OW92768   3.981   3.851   6.602 -0.2323  0.1065 -0.2472
30077SOL    HW192769   3.989   3.945   6.619 -2.8635  0.0505  1.5766
30077SOL    HW292770   4.011   3.809   6.682 -1.3302 -0.5226 -0.1548
30078SOL     OW92771   0.600   4.497   1.343  0.2010 -0.3881  0.1091
30078SOL    HW192772   0.560   4.417   1.308 -0.8450  0.8218 -1.5355
30078SOL    HW292773   0.613   4.553   1.267  1.0442  0.9777  1.2254
30079SOL     OW92774   0.657   2.719   3.901  0.2579  0.0512 -0.2114
30079SOL    HW192775   0.678   2.777   3.828  3.1450 -0.4621  0.1643
30079SOL    HW292776   0.633   2.779   3.972 -1.6965  0.5755 -1.2779
30080SOL     OW92777   8.304   6.790   3.661 -0.6491 -0.0948  0.3033
30080SOL    HW192778   8.300   6.752   3.574 -0.6723  1.8820 -0.5957
30080SOL    HW292779   8.360   6.732   3.711  0.7886 -0.3143 -1.5274
30081SOL     OW92780   4.952   2.801   5.301 -0.4560 -0.4142 -0.4507
30081SOL    HW192781   4.958   2.819   5.395 -2.2728 -3.8644  0.4194
30081SOL    HW292782   5.042   2.786   5.274  0.0644  0.4146  0.7904
30082SOL     OW92783   9.117   0.579   3.506  0.6086  0.0483 -0.1546
30082SOL    HW192784   9.048   0.587   3.572  0.8235  0.1480  0.0566
30082SOL    HW292785   9.185   0.527   3.548  2.0842  2.6918  0.8057
30083SOL     OW92786   9.915   1.238   1.306 -0.0201 -0.4300 -0.3963
30083SOL    HW192787   9.958   1.167   1.260 -0.2160 -0.8808  0.1117
30083SOL    HW292788   9.898   1.304   1.239 -0.2062 -1.0332 -0.9437
30084SOL     OW92789   2.483   7.200   4.120 -0.4374  0.6085  0.1743
30084SOL    HW192790   2.398   7.235   4.147 -0.2954  0.2456  1.0855
30084SOL    HW292791   2.539   7.212   4.196  0.0355 -0.1809 -0.0477
30085SOL     OW92792   7.755   0.736   3.997 -0.1707 -0.1807  0.4429
30085SOL    HW192793   7.781   0.804   3.934 -1.2986 -0.5169 -0.4033
30085SOL    HW292794   7.804   0.658   3.971  3.1590  0.8918  2.9862
30086SOL     OW92795   6.760   8.233   1.635 -0.3617 -0.2214 -0.6776
30086SOL    HW192796   6.666   8.217   1.641 -0.4286  0.5546  0.4447
30086SOL    HW292797   6.797   8.147   1.613 -1.2423 -0.7204 -0.2615
30087SOL     OW92798   1.798   3.234   2.115  0.5360 -0.4281  0.0002
30087SOL    HW192799   1.799   3.206   2.206 -0.9227 -0.8497 -0.1159
30087SOL    HW292800   1.720   3.289   2.107  2.9204  3.1318  0.0512
30088SOL     OW92801   0.111   6.292   1.372 -0.2017 -0.2617 -0.5014
30088SOL    HW192802   0.016   6.297   1.375 -0.4079 -3.5374 -0.2028
30088SOL    HW292803   0.138   6.287   1.463  0.3483  1.5672 -0.5425
30089SOL     OW92804   8.456   3.634   1.421 -0.0012 -0.2879 -0.1277
30089SOL    HW192805   8.537   3.673   1.388  1.2949  0.1668  3.3496
30089SOL    HW292806   8.393   3.707   1.422 -1.0874 -1.0229 -4.4619
30090SOL     OW92807   9.887   5.051   9.875 -0.1462  0.2833  0.6963
30090SOL    HW192808   9.800   5.062   9.836  0.2723  0.2925 -0.2447
30090SOL    HW292809   9.941   5.014   9.804  0.4361 -0.3912  1.4824
30091SOL     OW92810   8.851   1.499   5.003 -0.1175  0.5875  0.2524
30091SOL    HW192811   8.784   1.442   4.964 -0.3843  0.3045  1.1105
30091SOL    HW292812   8.934   1.456   4.981 -0.2825  0.2419  0.3014
30092SOL     OW92813   8.184   4.687   3.359 -0.1586  0.0289 -0.3700
30092SOL    HW192814   8.230   4.764   3.393 -0.8658  1.1660 -1.9167
30092SOL    HW292815   8.124   4.663   3.430  0.8264  0.2464  0.5484
30093SOL     OW92816   6.565   6.611   6.628  0.0029 -0.0679  0.0159
30093SOL    HW192817   6.594   6.702   6.637  0.6763 -0.2383 -0.4602
30093SOL    HW292818   6.490   6.604   6.688  0.2735  0.6566  0.4424
30094SOL     OW92819   8.248   5.923   4.120 -0.0591 -0.5300 -0.2315
30094SOL    HW192820   8.284   6.007   4.092 -0.0051 -0.6605 -0.5596
30094SOL    HW292821   8.326   5.870   4.140 -0.1285  0.4730  2.8963
30095SOL     OW92822   4.101   0.725   8.642 -0.6233 -0.0878  0.2277
30095SOL    HW192823   4.116   0.716   8.736  0.1879 -0.1508  0.0997
30095SOL    HW292824   4.188   0.714   8.603 -1.4504 -3.5125 -0.7981
30096SOL     OW92825   5.144   6.065   0.177  1.0105  0.5053  0.5868
30096SOL    HW192826   5.181   6.053   0.264  0.0474  0.4790  1.0053
30096SOL    HW292827   5.205   6.022   0.117  2.1838  1.3798  1.1505
30097SOL     OW92828   1.097   8.015   0.769  0.0719  0.4893  0.0147
30097SOL    HW192829   1.114   8.046   0.679 -0.2269  1.2174  0.2048
30097SOL    HW292830   1.019   7.961   0.761 -0.3574  1.1142 -0.0569
30098SOL     OW92831   9.603   2.107   9.162 -0.7658  0.1728  0.0550
30098SOL    HW192832   9.665   2.036   9.145  1.5189  2.2067 -0.4158
30098SOL    HW292833   9.540   2.069   9.224  1.1645 -1.8530  0.8538
30099SOL     OW92834   1.742   8.580   9.730 -0.1670  0.1220  0.4677
30099SOL    HW192835   1.656   8.620   9.717  0.7720  2.1516  0.2195
30099SOL    HW292836   1.797   8.620   9.663  0.9771 -1.1808  0.6024
30100SOL     OW92837   8.304   9.678   1.011  0.2686 -0.4497 -0.3959
30100SOL    HW192838   8.257   9.713   1.087  0.5345 -0.8323 -0.0547
30100SOL    HW292839   8.388   9.650   1.046 -0.1643 -1.9823 -0.5452
30101SOL     OW92840   2.413   0.203   6.829 -0.3096 -0.5812 -0.3073
30101SOL    HW192841   2.323   0.228   6.852 -0.4379  0.0684 -1.4619
30101SOL    HW292842   2.462   0.285   6.832 -0.2512 -0.5420 -1.9413
30102SOL     OW92843   6.238   8.636   0.291 -0.2768 -0.3625  0.4133
30102SOL    HW192844   6.311   8.684   0.330  0.5743 -0.5770 -0.9114
30102SOL    HW292845   6.236   8.553   0.339 -0.3436  0.0840  1.1888
30103SOL     OW92846   2.063   6.736   2.616 -0.2250 -0.8771 -0.3339
30103SOL    HW192847   1.993   6.797   2.594 -0.4748 -1.2795 -0.6851
30103SOL    HW292848   2.073   6.743   2.711  1.0807  1.1330 -0.5908
30104SOL     OW92849   0.309   7.827  10.107  0.6466 -0.2045  0.2075
30104SOL    HW192850   0.379   7.785  10.157  1.0536  0.2312  0.0131
30104SOL    HW292851   0.234   7.768  10.116  1.0338 -0.6695  0.4283
30105SOL     OW92852   5.688   2.067   2.844  0.7171 -0.1993  0.1493
30105SOL    HW192853   5.763   2.077   2.902 -1.1903 -2.2637  3.1345
30105SOL    HW292854   5.679   1.973   2.831  1.2782  0.2085 -3.8838
30106SOL     OW92855   6.746   8.270   0.901  0.0818  0.1454  0.5509
30106SOL    HW192856   6.720   8.359   0.925  0.2674  0.4231 -0.2844
30106SOL    HW292857   6.663   8.221   0.899 -0.4158  1.0104 -2.0077
30107SOL     OW92858   4.446   3.824   3.164 -0.7304  0.0085 -0.1527
30107SOL    HW192859   4.528   3.776   3.174 -1.4112 -1.2635 -0.6668
30107SOL    HW292860   4.469   3.898   3.108  0.0009 -0.5022 -0.5401
30108SOL     OW92861   2.837   9.349   4.276 -0.8810  0.1409 -0.1400
30108SOL    HW192862   2.771   9.300   4.227 -1.4197  0.6633  0.0662
30108SOL    HW292863   2.787   9.411   4.330 -0.2659 -0.0312  0.6374
30109SOL     OW92864   6.407   7.386   0.998  0.0822 -0.3089 -0.2424
30109SOL    HW192865   6.491   7.431   0.992 -0.1854  0.1820 -0.3537
30109SOL    HW292866   6.388   7.358   0.909  0.1578 -0.4799 -0.2056
30110SOL     OW92867   9.236   3.340   6.182 -0.1860 -0.1379  0.1281
30110SOL    HW192868   9.160   3.371   6.133  0.0900 -1.2940 -1.0806
30110SOL    HW292869   9.254   3.253   6.145  0.9726 -0.3849  1.2393
30111SOL     OW92870   4.459   8.959   7.871 -0.3441 -0.4990 -0.4210
30111SOL    HW192871   4.405   8.908   7.931  0.5329  0.4008  1.1776
30111SOL    HW292872   4.523   9.002   7.928 -0.3723  1.4765 -1.8547
30112SOL     OW92873   9.077   9.620   3.690 -0.0124 -0.4376 -0.1794
30112SOL    HW192874   9.005   9.654   3.637  0.5762  2.3872  0.7608
30112SOL    HW292875   9.155   9.666   3.657  0.4395  0.9845  2.7324
30113SOL     OW92876   0.111   4.921   9.080  0.3776 -0.5629 -0.2032
30113SOL    HW192877   0.161   4.872   9.015 -0.4686 -0.6530 -0.8013
30113SOL    HW292878   0.166   4.919   9.159  0.9336 -1.3720 -0.5944
30114SOL     OW92879   3.949   2.089   1.704  0.2653 -0.3595  0.1266
30114SOL    HW192880   3.935   2.122   1.615 -0.2134 -1.2918 -0.1485
30114SOL    HW292881   3.950   2.168   1.758 -0.2529  0.1599 -0.6027
30115SOL     OW92882   5.668  10.091   9.184 -0.0968 -0.0611  0.4230
30115SOL    HW192883   5.676   9.997   9.169 -0.9627 -0.2546  1.0929
30115SOL    HW292884   5.751  10.117   9.223 -0.2499 -0.7647  1.2487
30116SOL     OW92885   6.418   6.615   6.842  0.4745  0.2005  0.1788
30116SOL    HW192886   6.405   6.692   6.896  1.7136  1.8643 -1.8290
30116SOL    HW292887   6.343   6.615   6.782 -0.2539 -0.9555  1.0666
30117SOL     OW92888   4.313   9.658   1.535 -0.0135  0.3779  0.6596
30117SOL    HW192889   4.366   9.730   1.569  1.1620  0.8586 -2.0554
30117SOL    HW292890   4.364   9.580   1.554  1.7998  0.8352 -1.9347
30118SOL     OW92891   5.422   4.896   5.829 -0.2726 -0.5042  0.4712
30118SOL    HW192892   5.401   4.938   5.745 -1.1810  0.9567  1.4243
30118SOL    HW292893   5.353   4.831   5.841 -1.1601  0.5087  0.9361
30119SOL     OW92894   9.349   1.298   5.972  0.2463 -1.2446 -0.1467
30119SOL    HW192895   9.318   1.215   5.936 -1.8064 -0.3780 -0.4622
30119SOL    HW292896   9.290   1.364   5.934  0.6839  0.1476  1.5273
30120SOL     OW92897   4.639   6.619   9.441 -0.0933 -0.2999 -0.1986
30120SOL    HW192898   4.679   6.621   9.355 -1.9876  0.6052 -1.0939
30120SOL    HW292899   4.652   6.529   9.471  1.0676 -0.4698 -1.1817
30121SOL     OW92900   1.955   1.230   4.972  0.7067 -0.3260 -0.0190
30121SOL    HW192901   1.882   1.279   5.009  0.5621  0.2694 -1.0595
30121SOL    HW292902   1.945   1.142   5.007 -1.2182 -0.5708 -1.0871
30122SOL     OW92903   0.585   9.964   2.431  0.1040  0.0338 -0.0574
30122SOL    HW192904   0.513   9.959   2.494 -0.4053  0.7097 -0.5755
30122SOL    HW292905   0.606  10.057   2.427  1.2209 -0.2013  0.3254
30123SOL     OW92906  10.026   3.403   9.384 -0.1071  0.0660 -0.1246
30123SOL    HW192907  10.019   3.467   9.314  1.0355 -0.1433 -0.4341
30123SOL    HW292908  10.074   3.329   9.346  1.1090  0.2219  1.0423
30124SOL     OW92909   1.711   3.607   4.556  0.2246  0.0310 -0.2806
30124SOL    HW192910   1.746   3.587   4.469  0.3243 -0.0716 -0.2171
30124SOL    HW292911   1.697   3.702   4.555 -3.0439 -0.3925 -1.6200
30125SOL     OW92912   2.690   0.846   5.932  0.0702 -0.1768 -0.1417
30125SOL    HW192913   2.780   0.826   5.906  0.4323  2.7332 -1.3116
30125SOL    HW292914   2.700   0.902   6.009 -0.6745  1.3711 -1.1500
30126SOL     OW92915   7.742   5.411   2.248 -0.5359  0.3691  0.0203
30126SOL    HW192916   7.799   5.336   2.231 -0.3337  0.0337  2.0408
30126SOL    HW292917   7.777   5.480   2.193 -0.1733 -0.7734 -1.2079
30127SOL     OW92918   6.467   8.087   0.551 -0.2091  0.0063 -0.2502
30127SOL    HW192919   6.482   8.018   0.487  1.9473  0.9161 -0.7830
30127SOL    HW292920   6.415   8.152   0.504  0.8052  0.3706 -0.8819
30128SOL     OW92921   7.322   3.849   1.826  0.0559 -0.1340 -0.6233
30128SOL    HW192922   7.251   3.819   1.768  0.2264  0.0979 -0.9553
30128SOL    HW292923   7.279   3.908   1.888 -0.6214 -2.4582  1.1833
30129SOL     OW92924   7.165   6.052   6.727 -0.0536 -0.1349  0.4026
30129SOL    HW192925   7.153   6.144   6.752  0.2706  0.4931 -1.6711
30129SOL    HW292926   7.168   6.005   6.810 -2.1729  1.4872  1.4712
30130SOL     OW92927   5.051   0.803   9.358 -0.7529  0.2123 -0.2003
30130SOL    HW192928   5.072   0.759   9.276 -0.4119 -0.5358  0.2730
30130SOL    HW292929   5.136   0.817   9.400 -1.0503 -1.2764  0.9507
30131SOL     OW92930   5.225   8.498   6.807  0.4202  0.2228 -0.4052
30131SOL    HW192931   5.171   8.444   6.865 -1.5450  1.9316 -0.5399
30131SOL    HW292932   5.248   8.574   6.861  2.4528 -0.3187 -0.4682
30132SOL     OW92933   4.560   5.132  10.132  0.0362  0.1403  0.6201
30132SOL    HW192934   4.491   5.121  10.066  0.6490 -1.7011  0.2363
30132SOL    HW292935   4.569   5.226  10.142 -3.1979  0.4461  1.3843
30133SOL     OW92936   4.723   1.122   5.795 -0.0096  0.4716  0.1852
30133SOL    HW192937   4.790   1.125   5.863 -0.0599 -3.2088  0.5061
30133SOL    HW292938   4.763   1.165   5.719  2.9740 -2.1367  0.1914
30134SOL     OW92939   8.217   8.903   7.237 -0.0805  0.1441 -0.3574
30134SOL    HW192940   8.257   8.928   7.154 -1.0314  0.3112 -0.7721
30134SOL    HW292941   8.131   8.944   7.235 -0.3164 -0.3064  0.4741
30135SOL     OW92942   9.156   0.818   2.518 -0.2849  0.2635  0.1620
30135SOL    HW192943   9.211   0.757   2.468 -0.3533  0.8797 -0.6838
30135SOL    HW292944   9.213   0.850   2.588 -0.2596 -0.8001  0.6363
30136SOL     OW92945   8.512   6.993   7.132  0.0637  0.2158 -0.1426
30136SOL    HW192946   8.562   7.017   7.210 -0.1590  2.1123 -0.5587
30136SOL    HW292947   8.421   6.991   7.162  0.2871 -2.6683  0.4779
30137SOL     OW92948   1.714   2.684   7.883  0.0636 -0.2320  0.2551
30137SOL    HW192949   1.731   2.756   7.823  1.4880  1.0202  2.0681
30137SOL    HW292950   1.629   2.704   7.923 -0.0340 -0.1123 -0.0191
30138SOL     OW92951   5.003   6.628   2.355  0.2053  0.2777  0.2876
30138SOL    HW192952   4.967   6.541   2.374 -0.3723  0.6927  1.1206
30138SOL    HW292953   4.978   6.681   2.430 -0.9838  1.6301 -1.0375
30139SOL     OW92954   3.107   9.277   1.016 -0.0552 -0.9146  0.2142
30139SOL    HW192955   3.195   9.312   1.031 -0.5086 -0.8031  2.9318
30139SOL    HW292956   3.063   9.343   0.962 -0.1156  1.6034  3.2092
30140SOL     OW92957   3.007   8.217   6.962  0.2629 -0.0123  0.0070
30140SOL    HW192958   2.967   8.160   6.896  2.5848 -2.7385  0.8308
30140SOL    HW292959   2.939   8.228   7.029 -0.2784 -1.7248 -0.2356
30141SOL     OW92960   8.649   6.617   9.368 -0.0678 -0.8314 -0.1783
30141SOL    HW192961   8.629   6.537   9.319  2.4400 -1.9552  0.5427
30141SOL    HW292962   8.744   6.620   9.370 -0.0832  3.0603 -1.5516
30142SOL     OW92963   2.130  10.063   7.314  0.0249 -0.1792  0.1889
30142SOL    HW192964   2.146  10.024   7.228 -0.7683  1.0829 -0.5515
30142SOL    HW292965   2.197  10.131   7.322  0.2622 -0.4734  0.6795
30143SOL     OW92966   9.465   1.989   1.644 -0.2027 -0.5194 -0.2343
30143SOL    HW192967   9.525   2.040   1.699 -1.6397  1.8620 -0.7739
30143SOL    HW292968   9.381   1.994   1.690 -0.6523 -1.3827 -0.9380
30144SOL     OW92969   4.219   8.283   6.304 -0.0004 -0.3087 -0.9474
30144SOL    HW192970   4.229   8.343   6.378 -0.1302 -0.9632 -0.4002
30144SOL    HW292971   4.125   8.283   6.285 -0.2734 -1.8323  0.3101
30145SOL     OW92972   6.794   5.647   3.481 -0.1124  0.2064  0.3155
30145SOL    HW192973   6.767   5.600   3.560  1.9603  0.5947  1.2759
30145SOL    HW292974   6.723   5.631   3.419 -1.5866 -0.4553  2.1042
30146SOL     OW92975   9.625   7.154   2.369  0.4911 -0.3679 -0.3715
30146SOL    HW192976   9.701   7.119   2.415  2.0928  0.2929 -2.4267
30146SOL    HW292977   9.595   7.226   2.425 -0.1866 -2.2297  1.7051
30147SOL     OW92978   5.547  10.134   9.533  0.0980 -0.6992 -0.2887
30147SOL    HW192979   5.495  10.184   9.596 -0.6571 -1.5315 -0.2386
30147SOL    HW292980   5.489  10.064   9.504  0.4505 -0.3402 -1.9079
30148SOL     OW92981   9.635   5.021   4.013 -0.5349  0.0061  0.0132
30148SOL    HW192982   9.705   4.974   4.058 -0.2629 -0.2946 -0.7050
30148SOL    HW292983   9.572   5.042   4.081 -0.3240 -0.7927  0.4586
30149SOL     OW92984   3.622   3.634   4.181  0.7281 -0.3090  0.2174
30149SOL    HW192985   3.657   3.676   4.260  0.7396 -1.1004  0.6406
30149SOL    HW292986   3.654   3.687   4.109 -0.5372  1.3316  0.8274
30150SOL     OW92987   9.545   7.916   6.921 -0.1860 -0.5991 -0.4975
30150SOL    HW192988   9.489   7.943   6.849 -2.5382  0.8208  1.7571
30150SOL    HW292989   9.547   7.821   6.917 -2.8587 -0.6880 -0.6194
30151SOL     OW92990   2.357   1.641   6.855 -0.0061 -0.7982 -0.8479
30151SOL    HW192991   2.316   1.650   6.769 -1.9489 -1.7399 -0.0502
30151SOL    HW292992   2.328   1.556   6.887 -0.0568 -0.0710  1.1355
30152SOL     OW92993   0.473   5.125   4.594  0.0025  0.1931 -0.0377
30152SOL    HW192994   0.467   5.131   4.498 -0.6635  1.5304  0.0831
30152SOL    HW292995   0.549   5.068   4.609  0.8694  0.9726 -1.3431
30153SOL     OW92996   6.268   6.203   7.155 -0.8145 -0.4636 -0.2371
30153SOL    HW192997   6.318   6.134   7.110 -1.3731  0.4642 -2.3552
30153SOL    HW292998   6.322   6.281   7.146 -0.8313 -0.3165  0.9232
30154SOL     OW92999   5.222   0.054   9.058  0.1381  0.2447  0.3220
30154SOL    HW193000   5.262  -0.006   8.995 -1.3311 -0.2292 -0.1701
30154SOL    HW293001   5.230   0.010   9.142  1.0937  0.3818  0.3127
30155SOL     OW93002   6.139   3.251   0.813  0.4700  0.4572 -0.2261
30155SOL    HW193003   6.085   3.251   0.733 -0.8011 -1.5343  0.5946
30155SOL    HW293004   6.118   3.168   0.855  1.5304  1.2685  1.9330
30156SOL     OW93005   7.864   1.742   3.652 -0.2628 -0.4557 -0.6044
30156SOL    HW193006   7.913   1.752   3.570  0.9439 -0.3713  0.1131
30156SOL    HW293007   7.869   1.648   3.672  0.7608 -0.2532  0.1538
30157SOL     OW93008   2.286   2.911   1.390 -0.2118  0.7380  0.4063
30157SOL    HW193009   2.267   2.986   1.447  0.8650  2.1237 -1.0243
30157SOL    HW293010   2.291   2.837   1.449  1.1484  2.1882  2.1652
30158SOL     OW93011   1.899   7.648   7.623  0.1503  0.1547 -0.1080
30158SOL    HW193012   1.964   7.663   7.692  1.5940 -0.7211 -1.2408
30158SOL    HW293013   1.822   7.696   7.652  0.8354  0.0479  1.9583
30159SOL     OW93014   8.956   3.830   3.379  0.0930 -0.0124 -0.2536
30159SOL    HW193015   8.956   3.828   3.283 -0.3514  1.0984 -0.2937
30159SOL    HW293016   8.864   3.820   3.403  0.2443 -0.6243  0.0662
30160SOL     OW93017   3.231   8.306   6.633 -0.2351 -0.4192  0.3518
30160SOL    HW193018   3.226   8.328   6.726 -0.0439  1.1515  0.0097
30160SOL    HW293019   3.177   8.372   6.590  1.5781  0.3150 -0.8609
30161SOL     OW93020   0.727   2.243   0.888  0.5479  0.3463  0.4939
30161SOL    HW193021   0.715   2.338   0.880  1.8078  0.5252  0.6002
30161SOL    HW293022   0.776   2.232   0.969  0.3196 -0.4106  0.5305
30162SOL     OW93023   3.537   0.177   7.346 -0.5143 -0.1162  0.0313
30162SOL    HW193024   3.458   0.193   7.399 -0.3633  0.8539 -0.0310
30162SOL    HW293025   3.568   0.264   7.323  0.6253 -0.4995  0.1217
30163SOL     OW93026   3.017   7.889   8.968 -0.0573 -0.0560 -0.1906
30163SOL    HW193027   3.081   7.840   8.917 -0.2655 -0.8873  0.3468
30163SOL    HW293028   2.939   7.892   8.912 -0.3572 -1.1523  0.1678
30164SOL     OW93029   9.658   4.652   4.293 -0.1382 -0.2558 -0.2579
30164SOL    HW193030   9.631   4.581   4.235 -2.4940 -1.3399  2.0481
30164SOL    HW293031   9.686   4.608   4.374  1.6888  1.2746 -0.0143
30165SOL     OW93032   8.377   1.431   5.579  0.6826  0.3382 -0.1449
30165SOL    HW193033   8.305   1.397   5.527  0.0068 -0.2991  1.1654
30165SOL    HW293034   8.436   1.356   5.590  0.7985  0.4575  0.0515
30166SOL     OW93035   7.107   2.854   8.679 -0.3439  0.5200 -0.3629
30166SOL    HW193036   7.195   2.874   8.712 -0.3578 -0.5197  0.3392
30166SOL    HW293037   7.079   2.778   8.731 -2.0250  1.4156  0.0606
30167SOL     OW93038   7.633   9.695   6.990 -0.0586 -0.4303  0.4540
30167SOL    HW193039   7.684   9.775   7.004  0.2224 -0.6516  0.6897
30167SOL    HW293040   7.696   9.624   6.999 -0.6587 -0.7873  2.1263
30168SOL     OW93041   8.297   9.895   0.718 -0.4806  0.1183  0.2173
30168SOL    HW193042   8.225   9.951   0.690  0.9257  1.0469 -1.6385
30168SOL    HW293043   8.300   9.824   0.653  1.2640  0.9535 -0.6426
30169SOL     OW93044   9.464   0.958   2.459 -0.4605 -0.4194 -0.5331
30169SOL    HW193045   9.407   0.987   2.387  1.1228  2.3956 -0.7268
30169SOL    HW293046   9.473   1.035   2.515  2.6368 -0.9847 -0.1769
30170SOL     OW93047   7.298   9.097   2.775  0.4471 -0.4201  0.5765
30170SOL    HW193048   7.203   9.083   2.771  0.4695 -0.9107  1.7308
30170SOL    HW293049   7.332   9.053   2.697 -0.1544 -1.2087  0.7526
30171SOL     OW93050   9.164   0.110   5.656 -0.0831 -0.3417  0.2884
30171SOL    HW193051   9.151   0.198   5.691 -0.7434 -0.5877  0.6701
30171SOL    HW293052   9.257   0.106   5.634  0.4259 -0.3352  2.4042
30172SOL     OW93053   6.247   6.245   3.955 -0.2448  0.5033 -0.3554
30172SOL    HW193054   6.222   6.181   4.021  2.2418 -0.9943 -0.8181
30172SOL    HW293055   6.292   6.314   4.004 -0.1373  0.3582 -0.2524
30173SOL     OW93056   9.999   4.807   1.368 -0.5546  0.0572 -0.3508
30173SOL    HW193057  10.003   4.889   1.320  1.2959  0.3224  0.2493
30173SOL    HW293058  10.035   4.742   1.308  1.2152  0.2907  0.4289
30174SOL     OW93059   1.924   2.547   9.829  0.4144 -0.4765 -0.3072
30174SOL    HW193060   1.864   2.552   9.755 -1.9582  1.7072  1.6470
30174SOL    HW293061   1.892   2.473   9.881  1.4168 -1.3298 -0.8880
30175SOL     OW93062   8.890   1.973   1.258 -0.3314 -0.1913 -0.2330
30175SOL    HW193063   8.963   2.034   1.249 -0.6011  0.0081 -1.1303
30175SOL    HW293064   8.928   1.887   1.237 -0.0883 -0.2472  0.4504
30176SOL     OW93065   5.858   7.296   0.629  0.2931 -0.5599  0.4577
30176SOL    HW193066   5.845   7.246   0.548 -1.9547  1.1812 -0.2877
30176SOL    HW293067   5.774   7.292   0.673  0.8529  0.4160  1.6381
30177SOL     OW93068   1.947   8.923   0.608  0.3183 -0.1601 -0.1396
30177SOL    HW193069   1.928   8.923   0.514 -1.9857 -0.3208  0.2816
30177SOL    HW293070   2.025   8.977   0.617  0.3215  0.2117 -2.0951
30178SOL     OW93071   9.504   2.113   5.159 -0.0005 -0.7809  0.4001
30178SOL    HW193072   9.450   2.137   5.234  0.9171 -0.9765  1.1349
30178SOL    HW293073   9.567   2.185   5.150 -0.8401 -0.1828 -0.9197
30179SOL     OW93074   5.363   5.758   2.541  0.5788  0.1216 -0.8457
30179SOL    HW193075   5.320   5.674   2.523 -0.1796  0.4790 -0.7174
30179SOL    HW293076   5.309   5.823   2.497 -0.0818  0.7657  0.8840
30180SOL     OW93077   9.674   7.638   6.077  0.2275 -0.1078  0.2623
30180SOL    HW193078   9.739   7.707   6.066 -1.1285  1.3003  1.0186
30180SOL    HW293079   9.619   7.643   5.998 -0.0344 -0.1519  0.4403
30181SOL     OW93080   2.545   0.621   0.069 -0.3173 -0.1250  0.3834
30181SOL    HW193081   2.609   0.569   0.117  0.8811  1.4669  0.5530
30181SOL    HW293082   2.481   0.648   0.135 -0.4521 -0.6207  0.4588
30182SOL     OW93083   3.106   8.928   4.838  0.4019 -0.2417 -0.3143
30182SOL    HW193084   3.024   8.881   4.822  0.1397 -0.1001  0.5442
30182SOL    HW293085   3.120   8.981   4.760 -0.9044  0.5584 -0.0158
30183SOL     OW93086   5.784   2.736   3.945 -0.5738  0.3203 -0.0267
30183SOL    HW193087   5.853   2.671   3.951 -1.4023 -0.4425  1.4870
30183SOL    HW293088   5.802   2.783   3.863  0.5101 -1.2440 -0.7016
30184SOL     OW93089   2.845   0.154   8.201 -0.0467  0.4105 -0.3475
30184SOL    HW193090   2.765   0.161   8.149  0.3030 -0.7841 -1.0389
30184SOL    HW293091   2.883   0.242   8.198 -1.1908  0.9108 -0.2464
30185SOL     OW93092   4.094   2.438   1.632 -0.3398  0.4388 -0.2148
30185SOL    HW193093   4.025   2.502   1.616 -0.6539  0.3986  0.9046
30185SOL    HW293094   4.079   2.369   1.567 -1.9137 -0.0091  0.5951
30186SOL     OW93095   8.085   6.140   9.455  0.1073 -0.1344 -0.6757
30186SOL    HW193096   8.147   6.212   9.465  0.6762 -0.5388 -1.1612
30186SOL    HW293097   8.138   6.061   9.469 -0.6425 -0.4458  0.5108
30187SOL     OW93098   8.056   6.533   6.977 -0.0624 -0.1841 -0.2611
30187SOL    HW193099   8.024   6.443   6.978 -0.7254  0.0532  0.5777
30187SOL    HW293100   8.003   6.577   6.909  1.1253 -0.7288 -1.5514
30188SOL     OW93101   6.527   3.331   4.280  0.2555 -0.0673  0.4214
30188SOL    HW193102   6.515   3.412   4.329  0.0677 -0.8736  1.7336
30188SOL    HW293103   6.565   3.270   4.344  1.5470 -0.6460 -0.8827
30189SOL     OW93104   2.868   6.162   6.967 -0.3594 -0.5817  0.7358
30189SOL    HW193105   2.802   6.099   6.997 -0.1245 -1.6084 -0.8611
30189SOL    HW293106   2.944   6.145   7.023 -1.2861  0.3227  2.3029
30190SOL     OW93107   1.393   0.164   1.562 -0.2190 -0.2905  0.5876
30190SOL    HW193108   1.445   0.234   1.598  0.1880 -2.4564  4.4499
30190SOL    HW293109   1.446   0.128   1.491  0.3853  1.9957 -0.1507
30191SOL     OW93110   8.532   4.115   8.144  0.2976 -0.5492 -0.7719
30191SOL    HW193111   8.616   4.159   8.158 -0.3872  0.9373 -1.3171
30191SOL    HW293112   8.522   4.058   8.221  1.1517  0.2905 -0.0297
30192SOL     OW93113   9.139   5.475   4.504 -0.5796  0.6836  0.0362
30192SOL    HW193114   9.089   5.538   4.556 -0.4112 -0.5779  1.7807
30192SOL    HW293115   9.115   5.390   4.540  1.4089 -0.0566 -0.3236
30193SOL     OW93116   9.307   4.558   5.745  0.1712 -0.4198  0.1272
30193SOL    HW193117   9.220   4.538   5.780  0.5235 -1.2072  0.5753
30193SOL    HW293118   9.310   4.514   5.661 -1.2873  2.8328 -1.7300
30194SOL     OW93119   0.677   8.318   0.441 -0.2745 -0.1714  0.2479
30194SOL    HW193120   0.700   8.390   0.500  3.0861  0.1937 -1.3811
30194SOL    HW293121   0.691   8.354   0.353  1.3310 -2.7086 -0.5949
30195SOL     OW93122   1.313   5.628   8.713 -0.6364  0.3622  0.1609
30195SOL    HW193123   1.346   5.565   8.777 -0.5236 -1.7188 -1.9137
30195SOL    HW293124   1.228   5.593   8.687 -1.1781  1.7890 -0.0448
30196SOL     OW93125   7.019   6.600   7.613  0.9374 -0.2517 -0.1772
30196SOL    HW193126   6.978   6.526   7.658  1.4405  1.2524  2.8829
30196SOL    HW293127   6.967   6.676   7.640  2.0552  0.8711 -1.1370
30197SOL     OW93128   9.277   4.527   3.986  0.4914  0.0172 -0.3532
30197SOL    HW193129   9.288   4.607   4.037 -1.2094  0.1880 -0.2289
30197SOL    HW293130   9.194   4.490   4.017  0.8751 -1.3744 -0.9643
30198SOL     OW93131   4.176   7.281   1.663  0.6964 -0.0554  0.2346
30198SOL    HW193132   4.142   7.192   1.656  0.4939 -0.0183  0.6997
30198SOL    HW293133   4.223   7.283   1.746 -1.2204  0.8834  1.3523
30199SOL     OW93134   4.016   6.193   3.327 -0.1927  0.1534  0.0287
30199SOL    HW193135   3.978   6.115   3.368 -2.2420  1.2191  0.2189
30199SOL    HW293136   3.980   6.266   3.377  1.4759  1.2336 -0.3365
30200SOL     OW93137   7.705   2.957   5.862 -0.1285 -0.0810  0.5542
30200SOL    HW193138   7.712   2.985   5.953  3.1456  0.0195  0.3383
30200SOL    HW293139   7.744   2.869   5.861  2.1021  0.8807 -1.1258
30201SOL     OW93140   0.100  10.017   9.818  0.7143 -0.1149 -0.0597
30201SOL    HW193141   0.021   9.968   9.840 -0.0083  0.7412 -0.7145
30201SOL    HW293142   0.152   9.956   9.766  0.2747 -0.5303 -0.0141
30202SOL     OW93143   4.384   1.315   7.794 -0.3558  0.0305 -0.7253
30202SOL    HW193144   4.473   1.346   7.782 -0.3451  0.0092 -0.6985
30202SOL    HW293145   4.383   1.276   7.881 -0.8613  1.6295 -0.0057
30203SOL     OW93146   0.567   9.879   5.515 -0.2940  0.7040  0.7032
30203SOL    HW193147   0.486   9.849   5.556 -1.0812  0.7983 -0.7186
30203SOL    HW293148   0.537   9.934   5.442  0.9933 -0.9140 -1.0942
30204SOL     OW93149   6.116   8.589   3.518 -0.6872  0.4647  0.1984
30204SOL    HW193150   6.122   8.669   3.569 -1.5018  0.9584 -0.4641
30204SOL    HW293151   6.149   8.613   3.431 -0.0173 -0.1678  0.2732
30205SOL     OW93152   3.154   6.730   8.713 -0.0715  0.0137  0.3764
30205SOL    HW193153   3.062   6.704   8.706  0.2364 -0.4767 -2.7479
30205SOL    HW293154   3.153   6.825   8.702 -0.2569  0.0862  1.0126
30206SOL     OW93155   8.756   2.037   0.389 -0.0255  0.0602 -0.2838
30206SOL    HW193156   8.731   1.951   0.359  1.0449  0.0515 -1.1871
30206SOL    HW293157   8.843   2.024   0.429 -0.9871  0.2391  1.9589
30207SOL     OW93158   1.323   7.464   3.749  0.0166 -0.2366 -0.5553
30207SOL    HW193159   1.377   7.497   3.821  0.9038  0.2598 -1.4338
30207SOL    HW293160   1.234   7.494   3.770 -0.0507 -1.5403  1.1868
30208SOL     OW93161   8.042   8.012   1.614 -0.2599 -0.1173 -0.0080
30208SOL    HW193162   8.134   8.008   1.588 -0.3205 -0.4563 -0.1808
30208SOL    HW293163   8.034   7.946   1.683 -0.2444  0.3209  0.4108
30209SOL     OW93164   5.873   3.798   2.537 -0.6656  0.1911 -0.3338
30209SOL    HW193165   5.797   3.847   2.568 -0.7163  0.6880 -1.2104
30209SOL    HW293166   5.948   3.854   2.559 -0.4063 -1.0487  2.0037
30210SOL     OW93167   3.299   3.437   7.445 -0.2812  0.3074  0.2531
30210SOL    HW193168   3.235   3.383   7.490  1.3960 -0.4876  1.7462
30210SOL    HW293169   3.348   3.375   7.390  0.8731  0.4909  1.0669
30211SOL     OW93170   0.374   0.438   3.520 -0.1132  0.1984 -0.4568
30211SOL    HW193171   0.467   0.459   3.514  0.0199 -0.1540  0.2526
30211SOL    HW293172   0.350   0.408   3.433  0.5433 -0.1326 -0.5245
30212SOL     OW93173   0.646   1.494   3.253 -0.3610 -0.0127  0.5051
30212SOL    HW193174   0.571   1.537   3.294 -0.6604 -0.9150  0.9271
30212SOL    HW293175   0.628   1.400   3.264  0.5186 -0.2388  0.0450
30213SOL     OW93176   6.765   7.607   3.087 -0.0858 -0.0676  0.0641
30213SOL    HW193177   6.790   7.671   3.021  1.4991 -0.3070  0.4032
30213SOL    HW293178   6.692   7.560   3.048 -1.1231  1.7893 -0.2736
30214SOL     OW93179   9.978   0.037   1.655 -0.7442  0.1368 -0.1970
30214SOL    HW193180   9.938   0.081   1.730  2.3465 -1.7144  2.6230
30214SOL    HW293181   9.933  -0.047   1.650  1.8278 -1.4758  2.2775
30215SOL     OW93182   1.667   5.028   1.100 -0.3053  0.3812  0.5271
30215SOL    HW193183   1.762   5.027   1.111 -0.2414  1.7629  0.2398
30215SOL    HW293184   1.653   5.003   1.009 -0.2135  0.1766  0.5695
30216SOL     OW93185   4.947   2.549   5.728  0.5246 -0.5000 -0.2640
30216SOL    HW193186   4.884   2.511   5.789 -1.4420 -1.0096 -2.5343
30216SOL    HW293187   4.975   2.475   5.674 -0.7234  0.5951 -2.4881
30217SOL     OW93188   6.152   5.692   4.875  0.1220 -0.5689  0.3057
30217SOL    HW193189   6.116   5.772   4.837 -0.7864 -1.6833 -1.2053
30217SOL    HW293190   6.210   5.657   4.807 -0.7003 -2.0237  0.3374
30218SOL     OW93191   0.963   4.720  10.092  0.4576  0.1843  0.3879
30218SOL    HW193192   0.902   4.650  10.069 -0.3218  1.0284 -0.1440
30218SOL    HW293193   1.049   4.685  10.071  0.1628 -1.0026  1.1069
30219SOL     OW93194   0.897   2.206   5.360  0.2219 -0.4066  0.2461
30219SOL    HW193195   0.956   2.220   5.286 -1.2108  1.0382 -0.6622
30219SOL    HW293196   0.850   2.125   5.338  1.9694 -1.6872  1.0806
30220SOL     OW93197   1.829   4.712   2.773 -0.0847 -0.4113  0.2441
30220SOL    HW193198   1.859   4.670   2.854  0.2856  0.5191  0.5983
30220SOL    HW293199   1.909   4.746   2.733 -0.3143 -0.5413 -0.3254
30221SOL     OW93200   7.466   5.670   2.197  0.3179  0.3059 -0.4087
30221SOL    HW193201   7.477   5.625   2.281 -0.1612  0.4176 -0.2843
30221SOL    HW293202   7.482   5.762   2.216  0.4649  0.2977 -0.4927
30222SOL     OW93203   3.888   5.362   4.426  0.1199  0.0216  1.1037
30222SOL    HW193204   3.917   5.402   4.344 -0.4163  1.5703  1.6556
30222SOL    HW293205   3.923   5.273   4.423  0.4487  0.1889 -0.6216
30223SOL     OW93206   3.620   4.420   7.479 -0.3616  0.1064 -0.0225
30223SOL    HW193207   3.705   4.451   7.512 -0.2232  2.3272 -2.3769
30223SOL    HW293208   3.586   4.365   7.550  3.1486 -1.0657  0.8618
30224SOL     OW93209   4.950   9.800   0.343  0.0210  0.2271  0.6813
30224SOL    HW193210   4.943   9.876   0.285 -0.1288 -1.9608 -2.2414
30224SOL    HW293211   5.043   9.775   0.339 -0.4496 -1.3758 -0.5182
30225SOL     OW93212   8.288   4.377   5.266  0.2896  0.1894  0.1821
30225SOL    HW193213   8.266   4.458   5.220 -0.5067 -0.2684 -0.2486
30225SOL    HW293214   8.383   4.369   5.256  0.0386 -0.2434 -1.9229
30226SOL     OW93215   2.340   6.357   4.388  0.3795 -0.0421 -0.5935
30226SOL    HW193216   2.263   6.413   4.375  0.6025  0.7217  1.1929
30226SOL    HW293217   2.345   6.304   4.309 -1.6215  0.3477 -1.0017
30227SOL     OW93218   3.613   6.588   4.865  0.3254 -0.5378  0.5562
30227SOL    HW193219   3.597   6.549   4.951 -2.3319 -0.2543  0.2355
30227SOL    HW293220   3.610   6.515   4.804 -1.3790 -0.3168  0.3336
30228SOL     OW93221   1.793   6.872   1.175 -0.0943  0.1858 -0.4628
30228SOL    HW193222   1.721   6.930   1.150 -0.0105  0.6978  0.4559
30228SOL    HW293223   1.755   6.812   1.239 -0.2797 -1.0479 -1.6966
30229SOL     OW93224   5.651   8.481   1.704 -0.1283  0.3878  0.4527
30229SOL    HW193225   5.583   8.429   1.747  0.2188 -2.9534 -2.8802
30229SOL    HW293226   5.732   8.458   1.749 -0.4104  0.3653  0.9501
30230SOL     OW93227   1.674   8.048   3.784 -0.2090 -0.3074  0.3153
30230SOL    HW193228   1.655   8.140   3.801 -0.8633 -0.4463  0.3457
30230SOL    HW293229   1.612   8.000   3.839 -0.3572 -0.7654 -0.2470
30231SOL     OW93230   8.478   4.519   9.553  0.4291 -0.5897 -0.3760
30231SOL    HW193231   8.397   4.472   9.534  0.4065 -0.3242 -0.9417
30231SOL    HW293232   8.532   4.456   9.600  0.0514 -0.8985 -0.3542
30232SOL     OW93233   4.014   9.668  10.110 -0.0942 -0.1030  0.0428
30232SOL    HW193234   4.035   9.626  10.193 -0.2253 -1.9330 -0.8267
30232SOL    HW293235   4.011   9.597  10.047 -0.1297  1.2462 -1.5204
30233SOL     OW93236   0.869   5.024   6.342  0.5098  0.3027  0.1712
30233SOL    HW193237   0.915   4.942   6.362  0.8360  0.4622  0.0732
30233SOL    HW293238   0.839   5.056   6.427 -0.5363 -0.4648  0.0915
30234SOL     OW93239   9.352   7.442   2.874  0.4787 -0.0887 -0.6908
30234SOL    HW193240   9.315   7.529   2.888 -0.5078 -0.5022 -0.6831
30234SOL    HW293241   9.292   7.400   2.813  0.1635 -1.2660  0.4084
30235SOL     OW93242   7.100   5.986   6.230  0.2191 -0.0598 -0.5784
30235SOL    HW193243   7.117   6.034   6.311 -1.1241 -1.7133  0.7145
30235SOL    HW293244   7.011   6.009   6.206  0.0327 -0.8636 -0.6775
30236SOL     OW93245   7.318   6.169   5.922  0.3450  0.0115  0.0694
30236SOL    HW193246   7.386   6.232   5.899  1.5806 -1.2049  0.2587
30236SOL    HW293247   7.305   6.118   5.842 -0.5364  0.4036 -0.0390
30237SOL     OW93248   5.810   0.711   2.565  0.2361  0.0733 -0.1947
30237SOL    HW193249   5.875   0.693   2.498 -0.6735  0.9425 -1.3420
30237SOL    HW293250   5.832   0.651   2.637  1.0254 -1.1056 -1.3885
30238SOL     OW93251   3.475   5.628   7.082  0.7916 -0.2037 -0.3790
30238SOL    HW193252   3.566   5.598   7.075  1.5658  1.6817  1.1315
30238SOL    HW293253   3.431   5.559   7.130  2.0114 -0.0603  0.9999
30239SOL     OW93254   5.394   2.297   9.411  0.1276  0.6202 -0.0267
30239SOL    HW193255   5.485   2.287   9.438  0.3011 -1.1850 -1.1873
30239SOL    HW293256   5.396   2.288   9.316 -1.0424  2.3256 -0.2233
30240SOL     OW93257   6.799   3.395   3.280 -0.0711 -0.1532  0.2906
30240SOL    HW193258   6.806   3.390   3.376  0.3973 -0.0424  0.2621
30240SOL    HW293259   6.760   3.480   3.264  0.0589 -0.0784  0.3716
30241SOL     OW93260   4.322   6.248   5.780 -0.3762  0.4855  0.3885
30241SOL    HW193261   4.271   6.236   5.859 -0.4604  0.1312  0.2785
30241SOL    HW293262   4.302   6.338   5.752 -2.9942 -0.5193 -1.1049
30242SOL     OW93263   6.740   9.645   7.025  0.0755 -0.6674  0.3329
30242SOL    HW193264   6.830   9.652   6.993  0.1948  0.0027  0.7998
30242SOL    HW293265   6.718   9.734   7.055 -0.3971 -1.0422  1.1277
30243SOL     OW93266   0.441   9.634   8.307  0.3375 -0.0532  0.4586
30243SOL    HW193267   0.392   9.713   8.285 -0.3711 -1.1449 -2.0348
30243SOL    HW293268   0.376   9.575   8.345  0.2605 -0.4833 -0.3260
30244SOL     OW93269   6.204   3.106   9.269  0.5655  0.2006  0.1304
30244SOL    HW193270   6.259   3.184   9.264  0.6381  0.1230 -0.2971
30244SOL    HW293271   6.214   3.075   9.359  1.9338 -0.3416 -0.2126
30245SOL     OW93272   8.821   5.985   3.929 -0.0425 -0.0769 -0.4251
30245SOL    HW193273   8.871   5.978   3.848 -0.2786 -1.0095 -0.4957
30245SOL    HW293274   8.868   5.928   3.991  0.6790  1.3510  0.3790
30246SOL     OW93275   7.035   7.722   3.691 -0.3528 -0.1484 -0.1932
30246SOL    HW193276   7.027   7.799   3.747 -0.5535  0.4846 -1.0711
30246SOL    HW293277   7.031   7.757   3.602  0.7828 -1.0387 -0.6129
30247SOL     OW93278   8.074   1.946   6.383  0.1811  0.4849 -0.4778
30247SOL    HW193279   8.156   1.912   6.418 -0.0438  1.2080  0.7613
30247SOL    HW293280   8.081   1.934   6.288  1.0299 -0.9478 -0.2343
30248SOL     OW93281   2.009   5.433   6.087  0.2707 -0.2769  0.2226
30248SOL    HW193282   2.090   5.485   6.084  0.0122  0.1592  0.5933
30248SOL    HW293283   1.942   5.493   6.054  0.3694 -1.1786 -1.6518
30249SOL     OW93284   9.985   8.460   7.937  0.4602 -0.3777 -0.6737
30249SOL    HW193285   9.928   8.463   7.860  0.6365 -1.3780 -0.8558
30249SOL    HW293286  10.007   8.552   7.954  0.1090 -0.1132 -1.5842
30250SOL     OW93287   4.030   6.211   5.497 -0.1058 -0.0973 -0.6730
30250SOL    HW193288   4.047   6.161   5.577 -1.1672 -2.1999 -1.7252
30250SOL    HW293289   3.957   6.268   5.520 -0.7754 -1.0971 -0.3085
30251SOL     OW93290  10.069   1.854   0.559 -0.2057 -0.3339 -0.0101
30251SOL    HW193291  10.074   1.932   0.504  0.8430  0.0153  0.5757
30251SOL    HW293292  10.078   1.886   0.648  2.7895 -1.3485  0.1041
30252SOL     OW93293   7.647   7.187   9.053  1.0272  0.0368  0.4863
30252SOL    HW193294   7.632   7.115   9.114  1.3668  0.5473  1.1801
30252SOL    HW293295   7.714   7.154   8.993 -0.3280 -0.9719 -0.4754
30253SOL     OW93296   9.786   4.770   0.850  0.1363 -0.2799  0.2141
30253SOL    HW193297   9.723   4.761   0.778 -0.1642  0.4411  0.3772
30253SOL    HW293298   9.798   4.681   0.882 -0.7480 -0.4379  0.1341
30254SOL     OW93299   4.916  10.008   7.790 -0.1499  0.1512  0.5006
30254SOL    HW193300   4.962  10.004   7.705  0.2315 -2.8227  0.7786
30254SOL    HW293301   4.981  10.045   7.850  0.4413 -0.0532  0.0030
30255SOL     OW93302   5.905   1.595   8.500  0.5203  0.0850  0.3182
30255SOL    HW193303   5.901   1.647   8.420 -0.1438  0.1842  0.4116
30255SOL    HW293304   5.920   1.659   8.570 -0.7025  0.1960  0.4786
30256SOL     OW93305   5.431   3.168   1.004  0.6999  0.1049  0.3390
30256SOL    HW193306   5.469   3.191   0.919 -0.0544 -1.2020 -0.3627
30256SOL    HW293307   5.342   3.139   0.984 -0.3095  2.0108  1.8394
30257SOL     OW93308   1.985   6.159   4.238 -0.3578 -0.5337  0.2592
30257SOL    HW193309   1.973   6.069   4.266  0.8873 -0.3271  1.4979
30257SOL    HW293310   1.906   6.204   4.268 -0.3055 -0.9072  0.9668
30258SOL     OW93311  10.041   9.646   8.013 -0.5231  0.4010  0.1238
30258SOL    HW193312  10.133   9.662   7.989 -1.3165 -1.3609 -4.5365
30258SOL    HW293313  10.009   9.731   8.042  1.8126  1.7025 -0.9191
30259SOL     OW93314  10.138   8.632   1.744 -0.1319  0.0683 -0.1296
30259SOL    HW193315  10.218   8.586   1.717 -0.4223 -0.2475 -0.4491
30259SOL    HW293316  10.125   8.605   1.835 -0.2652 -0.4243 -0.2953
30260SOL     OW93317  10.089   3.717   1.570 -0.0431 -0.1492 -0.2019
30260SOL    HW193318  10.166   3.660   1.568 -1.1098 -1.6020 -0.3848
30260SOL    HW293319  10.047   3.703   1.485 -0.3119  0.9015 -0.2417
30261SOL     OW93320   9.436   5.931   3.428  0.3605  0.1293 -0.2903
30261SOL    HW193321   9.500   5.862   3.410  1.1854  0.5478  0.9191
30261SOL    HW293322   9.473   5.978   3.503 -1.2553  0.5279  0.2823
30262SOL     OW93323   0.119   9.242   2.761  0.5977  0.3187  0.3475
30262SOL    HW193324   0.073   9.159   2.751 -0.1135  0.7212  0.2712
30262SOL    HW293325   0.138   9.270   2.671 -2.4593  2.0672  0.1578
30263SOL     OW93326   3.815   7.940   8.472  0.3191 -0.0624  0.7499
30263SOL    HW193327   3.871   7.964   8.397 -1.4963  0.5839 -0.4360
30263SOL    HW293328   3.769   7.862   8.443  0.3209 -0.3624  1.5695
30264SOL     OW93329   2.927   6.124   1.323 -0.4082 -0.0772 -0.0050
30264SOL    HW193330   2.844   6.172   1.322  1.1579  2.8540  1.7684
30264SOL    HW293331   2.983   6.173   1.263  0.7342 -0.6474  0.5763
30265SOL     OW93332   9.317   6.651   1.934  0.2269  0.3198  0.2852
30265SOL    HW193333   9.234   6.607   1.914  1.3382 -1.3109 -0.8119
30265SOL    HW293334   9.315   6.731   1.882 -0.2641 -0.1522 -0.4187
30266SOL     OW93335   7.162   8.191   5.885  0.2069 -0.3133 -0.4702
30266SOL    HW193336   7.157   8.140   5.804 -0.0526 -0.5724 -0.2959
30266SOL    HW293337   7.217   8.138   5.942 -1.7184 -1.4079  0.4252
30267SOL     OW93338   7.031   9.112   2.740  0.5853 -0.2652  0.1293
30267SOL    HW193339   6.959   9.168   2.771 -0.4345 -0.8069 -1.2010
30267SOL    HW293340   7.010   9.026   2.775  0.5073 -0.4606 -0.4106
30268SOL     OW93341   3.958   1.810   7.256  0.0122 -0.6138 -0.1129
30268SOL    HW193342   3.968   1.741   7.191 -1.1037  0.7752 -1.8014
30268SOL    HW293343   4.027   1.873   7.235  0.6515 -0.8900  1.0574
30269SOL     OW93344   3.219   6.525   5.117  0.2833  0.0159 -0.6868
30269SOL    HW193345   3.183   6.614   5.118  0.1548 -0.0373  0.8468
30269SOL    HW293346   3.314   6.537   5.121  0.2051  0.0893  2.3385
30270SOL     OW93347   3.581   1.951   3.763  0.7974 -0.1037 -0.3799
30270SOL    HW193348   3.532   1.940   3.682 -0.4811  1.7618  0.0994
30270SOL    HW293349   3.588   1.863   3.799 -1.5494 -0.5348 -0.8751
30271SOL     OW93350   5.237   2.417   5.003  0.3011 -0.2815  0.0786
30271SOL    HW193351   5.174   2.487   4.983  0.1547 -0.2128  0.7711
30271SOL    HW293352   5.290   2.452   5.075  0.7025 -0.5983 -0.0614
30272SOL     OW93353   7.872   9.787   1.700  0.5129  0.2210  0.0146
30272SOL    HW193354   7.859   9.796   1.795  0.9587  0.0841  0.0906
30272SOL    HW293355   7.922   9.864   1.675  0.8026  0.0165 -0.0306
30273SOL     OW93356   7.858   3.274   9.655 -0.2697 -0.0723  0.0388
30273SOL    HW193357   7.947   3.250   9.631 -0.4948  0.9433 -1.9330
30273SOL    HW293358   7.868   3.351   9.710  0.1121 -0.4629  0.5175
30274SOL     OW93359   8.192   4.336   1.031 -0.2599 -0.2393  0.1652
30274SOL    HW193360   8.241   4.260   0.999 -0.3245  0.1287 -0.8161
30274SOL    HW293361   8.181   4.319   1.125  0.2302 -1.1623  0.0649
30275SOL     OW93362   1.130   1.098   6.246 -0.2318  0.1603 -0.0724
30275SOL    HW193363   1.091   1.161   6.185 -0.1930  0.8486  0.6145
30275SOL    HW293364   1.190   1.150   6.300 -0.2824 -0.4424  0.5745
30276SOL     OW93365   0.209   4.410   7.713  0.1822 -0.8308  0.3861
30276SOL    HW193366   0.175   4.467   7.783 -0.5806 -1.5391  0.6009
30276SOL    HW293367   0.278   4.359   7.755  0.7363 -0.1960  0.2430
30277SOL     OW93368   9.538   7.886   4.129 -0.1591 -0.1096  0.0496
30277SOL    HW193369   9.466   7.892   4.192 -2.0718 -0.4613 -2.0510
30277SOL    HW293370   9.534   7.968   4.080  0.7770 -0.2009 -0.1869
30278SOL     OW93371   8.862   5.356   7.449 -0.7532  0.2371  0.4860
30278SOL    HW193372   8.950   5.385   7.472  0.0438 -2.2128  0.6770
30278SOL    HW293373   8.843   5.399   7.366  0.3402  1.3091  0.7772
30279SOL     OW93374   7.743   7.268   2.035  0.5437 -0.1436 -0.5330
30279SOL    HW193375   7.650   7.250   2.026  0.2267  1.4332 -0.5159
30279SOL    HW293376   7.762   7.250   2.127  0.7170 -2.4493 -0.9943
30280SOL     OW93377   2.367   1.024   8.573  0.3047 -0.1593  0.2761
30280SOL    HW193378   2.354   1.044   8.480  0.1076 -1.2754  0.0480
30280SOL    HW293379   2.342   0.932   8.581 -0.0783  0.0393  1.5207
30281SOL     OW93380   2.650   5.399   0.653 -0.0464 -0.7546 -0.1588
30281SOL    HW193381   2.645   5.402   0.558 -1.7855 -0.8540 -0.0759
30281SOL    HW293382   2.729   5.348   0.671 -0.1879 -1.4839 -1.5308
30282SOL     OW93383   9.459   4.311   1.508  0.4883  0.2674  0.0322
30282SOL    HW193384   9.395   4.364   1.555  0.1353 -0.3689  0.2835
30282SOL    HW293385   9.484   4.243   1.571 -0.2066 -0.7720 -0.7958
30283SOL     OW93386   0.059   0.877   1.428 -0.5841  0.1662  0.1730
30283SOL    HW193387   0.043   0.790   1.463  1.7941 -0.4812 -0.2422
30283SOL    HW293388   0.111   0.921   1.496 -0.4615  0.7281 -0.2791
30284SOL     OW93389   6.933   7.753   6.001 -0.4283 -0.0424  0.2223
30284SOL    HW193390   6.880   7.742   5.923 -4.2113  0.2846  2.6027
30284SOL    HW293391   6.941   7.848   6.011  0.4998 -0.0897 -0.0508
30285SOL     OW93392   5.878   8.788   3.636  0.2821  0.1819  0.4556
30285SOL    HW193393   5.971   8.802   3.657  0.5658 -1.5995  0.4914
30285SOL    HW293394   5.877   8.704   3.589 -1.5165 -0.7890  2.1548
30286SOL     OW93395   4.960   3.646   2.398  0.6937 -0.1325  0.1189
30286SOL    HW193396   4.876   3.638   2.444  0.5560 -1.8041 -0.3818
30286SOL    HW293397   4.990   3.734   2.418 -0.5758  0.0409  1.3533
30287SOL     OW93398   9.864   7.508  10.066 -0.2321 -0.0605 -0.4294
30287SOL    HW193399   9.819   7.487   9.984  1.7049 -0.9834 -1.2964
30287SOL    HW293400   9.819   7.585  10.100 -1.7613 -0.3276 -1.8088
30288SOL     OW93401   3.080   8.799   3.803  0.3486 -0.0595 -0.5382
30288SOL    HW193402   3.030   8.880   3.811  1.6247  0.5925  1.2512
30288SOL    HW293403   3.172   8.826   3.804  0.7834 -1.3950 -1.7155
30289SOL     OW93404   0.226   3.776   0.851 -0.0060 -0.4815  0.0831
30289SOL    HW193405   0.215   3.681   0.850 -0.0244 -0.4724 -0.5252
30289SOL    HW293406   0.186   3.806   0.769 -2.1605  0.2867  1.3512
30290SOL     OW93407   5.545   7.213   6.811 -0.5860 -0.0680 -0.0510
30290SOL    HW193408   5.551   7.308   6.818  0.2391 -0.1395  0.3440
30290SOL    HW293409   5.453   7.195   6.792 -0.8167  0.7831  0.2738
30291SOL     OW93410   5.522   1.245   2.917 -0.2695 -0.2400 -0.1967
30291SOL    HW193411   5.535   1.249   2.823  1.9436  1.5349  0.1283
30291SOL    HW293412   5.611   1.237   2.953 -1.0754 -0.9143  1.7361
30292SOL     OW93413   5.590   7.272   8.602 -0.1679 -0.0620  0.0959
30292SOL    HW193414   5.597   7.367   8.606  0.5053 -0.0641 -0.9070
30292SOL    HW293415   5.672   7.240   8.639  0.2039 -0.2273 -0.8521
30293SOL     OW93416   4.543   0.829   3.269 -0.2570 -0.2269 -0.2387
30293SOL    HW193417   4.500   0.884   3.334 -0.4477 -0.2114 -0.3779
30293SOL    HW293418   4.610   0.781   3.318 -0.2425 -0.0387 -0.0768
30294SOL     OW93419   9.814   4.655   1.784  0.0274 -0.1416  0.0339
30294SOL    HW193420   9.865   4.574   1.786 -0.3481 -0.3781  0.2462
30294SOL    HW293421   9.729   4.630   1.822  0.3150  0.6373  1.2106
30295SOL     OW93422   2.408   6.862   7.000 -0.0794 -0.0455  0.3513
30295SOL    HW193423   2.391   6.860   7.094  1.4343 -0.5369  0.6195
30295SOL    HW293424   2.492   6.818   6.990 -0.9601 -1.3804 -1.3927
30296SOL     OW93425   3.758   5.653   1.107 -0.1838  0.0617 -0.2560
30296SOL    HW193426   3.727   5.685   1.022  0.8407  0.2295 -0.5790
30296SOL    HW293427   3.804   5.571   1.087  0.3571  0.2755  0.0848
30297SOL     OW93428   6.690   1.622   2.204 -0.5871  0.3637  0.2540
30297SOL    HW193429   6.779   1.627   2.239 -0.0226 -1.3902 -0.8692
30297SOL    HW293430   6.693   1.677   2.125 -0.7339  1.0140  0.7042
30298SOL     OW93431   7.524   0.871   6.355 -0.0660 -0.1735 -0.3722
30298SOL    HW193432   7.467   0.844   6.427  0.3461 -0.8919 -0.3063
30298SOL    HW293433   7.559   0.789   6.321  0.5157  0.2302 -0.7505
30299SOL     OW93434   8.924   2.464   5.198  0.2965  0.0626  0.3107
30299SOL    HW193435   9.010   2.452   5.159 -0.0777  0.9190 -0.8101
30299SOL    HW293436   8.876   2.384   5.175  0.7043 -0.2968  0.7075
30300SOL     OW93437   3.814   5.911   4.319  0.5914  0.1975 -0.4944
30300SOL    HW193438   3.760   5.925   4.396 -0.2076 -1.3648 -0.7340
30300SOL    HW293439   3.900   5.887   4.354  0.1066 -0.9830 -0.0534
30301SOL     OW93440   6.563   1.939   3.834 -0.2568 -0.1474 -0.2886
30301SOL    HW193441   6.552   1.892   3.751  0.2630  0.6443 -0.8190
30301SOL    HW293442   6.658   1.943   3.846 -0.3116  0.2874  0.0184
30302SOL     OW93443   0.805   7.201   6.907  0.0936  0.5894 -0.1148
30302SOL    HW193444   0.898   7.177   6.901 -0.1051 -0.2785  0.2387
30302SOL    HW293445   0.803   7.293   6.880  1.5152  1.5776  2.9307
30303SOL     OW93446   9.381   3.072   2.898 -0.0896 -0.0205  0.1577
30303SOL    HW193447   9.447   3.003   2.913 -1.5214 -1.0249  2.0876
30303SOL    HW293448   9.377   3.119   2.982  0.7094  2.3067 -1.0722
30304SOL     OW93449   3.602   4.403   5.428  0.1206  0.3707  0.0769
30304SOL    HW193450   3.569   4.489   5.402  1.1144 -0.0098 -2.5901
30304SOL    HW293451   3.687   4.396   5.385  0.9734 -1.1073  1.9737
30305SOL     OW93452   6.892   8.462   2.998  0.3099  0.0991  0.3206
30305SOL    HW193453   6.987   8.452   2.992  0.1230 -0.7088 -1.3137
30305SOL    HW293454   6.875   8.549   2.962  0.2387 -0.5744 -1.3081
30306SOL     OW93455   0.716   1.367   8.922 -0.1120 -0.2846 -0.1832
30306SOL    HW193456   0.803   1.331   8.903  0.4251  1.0429 -0.3588
30306SOL    HW293457   0.660   1.333   8.853  0.8840  1.0414 -1.6897
30307SOL     OW93458   6.528   3.310   2.287  1.3963  0.4009  0.2606
30307SOL    HW193459   6.528   3.219   2.257  0.5953  0.5623 -0.2344
30307SOL    HW293460   6.614   3.322   2.326  1.9376 -0.2266 -0.7281
30308SOL     OW93461   5.118   8.817   5.929  0.1990  0.3157 -0.4487
30308SOL    HW193462   5.162   8.855   5.853  0.4443  0.9055 -0.0124
30308SOL    HW293463   5.174   8.839   6.004 -0.6122  0.7122  0.0538
30309SOL     OW93464   4.735   9.589   0.285 -0.2722  0.4053 -0.4948
30309SOL    HW193465   4.693   9.504   0.276 -1.1572  0.5249  2.1136
30309SOL    HW293466   4.828   9.573   0.266 -0.7270 -0.7624 -1.7814
30310SOL     OW93467   6.740   7.430   8.427  0.4488 -0.3545  0.1335
30310SOL    HW193468   6.811   7.488   8.454 -0.6268  1.5989 -1.1187
30310SOL    HW293469   6.753   7.417   8.333 -0.4390 -0.5556  0.0280
30311SOL     OW93470   7.361   1.999   5.233 -0.1847  0.2182 -0.3865
30311SOL    HW193471   7.305   2.034   5.165 -0.2744 -1.7689 -1.3738
30311SOL    HW293472   7.346   1.904   5.230  0.3341  0.0287  1.9145
30312SOL     OW93473   4.902   1.733   6.557  0.1898 -0.1760  0.5093
30312SOL    HW193474   4.868   1.644   6.566 -0.0875  0.1428  3.0556
30312SOL    HW293475   4.988   1.722   6.517 -0.0325 -1.5597  0.3938
30313SOL     OW93476   0.676   4.152   9.048 -0.6744 -0.0898 -0.6554
30313SOL    HW193477   0.603   4.101   9.081 -0.2752  1.0581  2.1650
30313SOL    HW293478   0.636   4.218   8.991 -1.8784  0.4434  0.7483
30314SOL     OW93479   4.935   1.515   7.632 -0.1113  0.3607  0.1481
30314SOL    HW193480   4.858   1.568   7.614 -0.5176  0.4204  1.9435
30314SOL    HW293481   5.009   1.573   7.614 -0.4960  0.6342 -0.5714
30315SOL     OW93482   5.592   7.855   0.319  0.2521 -0.5623  0.3966
30315SOL    HW193483   5.670   7.899   0.286 -0.6436 -0.5672 -1.8435
30315SOL    HW293484   5.592   7.769   0.276 -0.9855 -0.5512  0.3444
30316SOL     OW93485   5.120   8.230   2.414  0.3545  0.0022 -0.1414
30316SOL    HW193486   5.123   8.148   2.463 -1.0329 -0.3187 -0.5716
30316SOL    HW293487   5.200   8.277   2.439 -0.4982  0.0117  2.6664
30317SOL     OW93488   1.530   8.781   3.506 -0.4379 -0.2725  0.5910
30317SOL    HW193489   1.605   8.824   3.465 -0.7402  1.6781  1.9916
30317SOL    HW293490   1.506   8.711   3.446  0.3633  1.2539 -1.5701
30318SOL     OW93491   1.808   9.541   6.432 -0.4402  0.1982 -0.5313
30318SOL    HW193492   1.817   9.499   6.517 -1.3664 -2.5045 -1.7139
30318SOL    HW293493   1.747   9.613   6.447  0.9501  1.0036  1.4753
30319SOL     OW93494   7.337   6.194   3.480  0.1862  0.2848 -0.7264
30319SOL    HW193495   7.320   6.127   3.546  1.3788  0.4618 -0.2196
30319SOL    HW293496   7.432   6.205   3.482  0.6070 -1.6867 -4.3947
30320SOL     OW93497   5.547   1.368   0.136 -0.2375 -0.0699 -0.5814
30320SOL    HW193498   5.496   1.445   0.114  0.0795 -0.2236 -1.8575
30320SOL    HW293499   5.497   1.325   0.206 -0.5464  1.1298 -0.0539
30321SOL     OW93500   1.307   3.092   9.151 -0.1131  0.5943 -0.2663
30321SOL    HW193501   1.327   3.162   9.213 -1.2976  0.5344  0.1921
30321SOL    HW293502   1.389   3.042   9.143 -0.2980 -0.1244  2.1618
30322SOL     OW93503   2.002   1.899  10.153  0.0098 -0.4064 -0.5101
30322SOL    HW193504   1.906   1.908  10.155  0.1285  1.1745 -1.2417
30322SOL    HW293505   2.034   1.987  10.171  1.3692 -1.4672  2.7363
30323SOL     OW93506   9.210   1.992   1.749 -0.2836  0.4276  0.5093
30323SOL    HW193507   9.128   1.979   1.701  0.9734 -0.6587 -1.3898
30323SOL    HW293508   9.200   1.938   1.827 -0.8114 -0.8567 -0.4249
30324SOL     OW93509  10.038  10.170   2.603  0.4325 -0.3028 -0.0347
30324SOL    HW193510  10.129  10.201   2.596 -0.1161  1.2060 -0.6013
30324SOL    HW293511  10.044  10.076   2.582  1.6380  0.1107 -1.6414
30325SOL     OW93512   8.588   0.383   8.102 -0.2218 -0.1282 -0.0511
30325SOL    HW193513   8.671   0.351   8.137 -0.9430 -2.4615 -0.4229
30325SOL    HW293514   8.608   0.404   8.010 -0.1584 -1.2083 -0.2923
30326SOL     OW93515   9.263   5.274  10.093 -0.2798 -0.5043  0.4408
30326SOL    HW193516   9.174   5.263  10.127 -0.2979  0.7030  0.8259
30326SOL    HW293517   9.251   5.315  10.007 -0.0923 -0.1698  0.5712
30327SOL     OW93518   8.927   2.233   6.457 -0.1391  0.1281 -0.0124
30327SOL    HW193519   8.946   2.150   6.501 -0.0580  0.1441 -0.0161
30327SOL    HW293520   8.846   2.217   6.409  0.4222 -0.2562 -0.8394
30328SOL     OW93521   9.425   8.735   5.534 -0.0592  0.1697  0.0611
30328SOL    HW193522   9.339   8.771   5.515 -1.2777 -2.2661  0.7145
30328SOL    HW293523   9.422   8.645   5.501  2.1968  0.0071  0.1824
30329SOL     OW93524   4.771   4.749   2.695  0.3722  0.1488  0.1634
30329SOL    HW193525   4.715   4.816   2.734 -0.0880  0.3368 -0.8199
30329SOL    HW293526   4.711   4.689   2.650  0.7175 -1.3609  1.6714
30330SOL     OW93527   9.741   8.444   0.596  0.3975 -0.0108 -0.4506
30330SOL    HW193528   9.737   8.350   0.574 -0.0746  0.4344 -2.3556
30330SOL    HW293529   9.653   8.466   0.624  0.9414 -0.5245  1.7499
30331SOL     OW93530   9.739  10.096   0.404  0.0313 -0.1997 -0.5838
30331SOL    HW193531   9.659  10.050   0.379 -0.2017 -0.4765  0.6172
30331SOL    HW293532   9.719  10.188   0.390 -0.3592 -0.2966 -0.6768
30332SOL     OW93533   8.503   2.039   5.608  0.6071  0.1648  0.7723
30332SOL    HW193534   8.467   2.050   5.521  1.4680  1.1802  0.5276
30332SOL    HW293535   8.442   1.981   5.653  0.7777 -1.3345 -0.8696
30333SOL     OW93536   1.009   8.601   6.556 -0.4094 -0.6218 -0.2199
30333SOL    HW193537   0.997   8.515   6.597 -0.5240 -0.2885  0.4489
30333SOL    HW293538   0.987   8.664   6.625 -1.9095 -0.0659 -1.1734
30334SOL     OW93539   7.988   4.800   4.009  0.3831 -0.0126 -0.4898
30334SOL    HW193540   8.055   4.732   4.005 -1.0427 -1.4521 -0.4624
30334SOL    HW293541   7.923   4.773   3.945 -0.7713  0.7040  0.3626
30335SOL     OW93542   4.384   3.460   0.946  0.2253  0.0097 -0.0965
30335SOL    HW193543   4.369   3.412   0.864  1.2896 -0.7290  0.1428
30335SOL    HW293544   4.329   3.538   0.937  2.1552  1.1665 -2.5677
30336SOL     OW93545   0.450   3.530   5.846 -0.0860  0.6722 -0.1595
30336SOL    HW193546   0.359   3.561   5.856 -0.3891  0.1016 -1.1189
30336SOL    HW293547   0.447   3.438   5.872  0.4436  0.9343  0.8577
30337SOL     OW93548   3.416   9.373   1.344  0.2596  0.3159 -0.8508
30337SOL    HW193549   3.432   9.439   1.412  0.1321 -0.3731 -0.1428
30337SOL    HW293550   3.492   9.315   1.349 -0.2224 -0.3160 -0.5960
30338SOL     OW93551   7.019   2.094   8.559  0.0486  0.5387 -0.1007
30338SOL    HW193552   6.993   2.081   8.467  0.6778 -1.8408  0.0368
30338SOL    HW293553   6.936   2.096   8.607 -0.2646  1.4036 -0.6587
30339SOL     OW93554   6.108   6.354   5.245  0.8480  0.0076  0.2035
30339SOL    HW193555   6.089   6.325   5.334  0.8875 -0.4461  0.0644
30339SOL    HW293556   6.077   6.445   5.243 -1.0817 -0.6384  0.0527
30340SOL     OW93557   1.073   1.017   4.723 -0.1417  0.0908  0.4796
30340SOL    HW193558   1.005   0.958   4.755 -0.7798  0.9385  0.6927
30340SOL    HW293559   1.118   0.966   4.655 -1.7475 -0.0495 -0.4923
30341SOL     OW93560   9.198   7.178   9.955  0.4930 -0.4167  0.4510
30341SOL    HW193561   9.183   7.091   9.916 -0.7257  0.7426 -1.7957
30341SOL    HW293562   9.284   7.204   9.921 -0.1086  0.1609 -0.6311
30342SOL     OW93563   6.749   3.637   3.777  0.5963  0.7104 -0.2704
30342SOL    HW193564   6.800   3.577   3.831  0.2262  0.5203 -0.1313
30342SOL    HW293565   6.769   3.724   3.812  2.7468  0.8788 -1.7752
30343SOL     OW93566   5.654   6.347   0.098  0.7182 -0.6737 -0.6789
30343SOL    HW193567   5.680   6.334   0.189 -1.8571  1.3576  0.4343
30343SOL    HW293568   5.736   6.359   0.050  2.0340 -0.0066  1.6790
30344SOL     OW93569   4.707   1.558   8.343 -0.7277 -0.5082 -0.2932
30344SOL    HW193570   4.622   1.531   8.310 -0.1608 -2.2708 -0.3520
30344SOL    HW293571   4.770   1.513   8.287  0.2517 -0.4177  0.7121
30345SOL     OW93572   1.955   7.144   4.112 -0.4537  0.1932 -0.0234
30345SOL    HW193573   2.050   7.146   4.123 -0.5696  0.1844  1.0846
30345SOL    HW293574   1.939   7.193   4.032  0.5258 -0.2626 -0.5061
30346SOL     OW93575   1.020   1.869   5.277 -0.6733  0.3725 -0.7497
30346SOL    HW193576   1.072   1.882   5.198 -1.2697 -1.7803 -1.5295
30346SOL    HW293577   1.057   1.930   5.341  1.9772 -0.2330 -1.6601
30347SOL     OW93578   5.983   3.282   9.283 -0.0779  0.1262 -0.1416
30347SOL    HW193579   6.064   3.231   9.277 -1.1302 -1.7047  0.6928
30347SOL    HW293580   5.997   3.341   9.357  0.1247 -0.8847  0.6395
30348SOL     OW93581   0.103   4.711   2.985  0.4164 -0.2230 -0.4369
30348SOL    HW193582   0.108   4.775   3.056 -0.7469 -0.1446 -0.4159
30348SOL    HW293583   0.088   4.627   3.029  1.2568 -0.4043 -0.5019
30349SOL     OW93584   7.938   4.205   7.718  0.2561 -0.5779  0.0906
30349SOL    HW193585   7.886   4.194   7.639  0.0244  3.0156 -0.3523
30349SOL    HW293586   7.884   4.167   7.788 -0.8897 -1.0403 -1.0219
30350SOL     OW93587   6.607   9.322   5.047  0.2870 -0.4363 -0.1998
30350SOL    HW193588   6.645   9.374   5.118  1.2024 -0.7081 -0.4948
30350SOL    HW293589   6.565   9.387   4.991 -0.2111 -0.1933  0.4358
30351SOL     OW93590   6.369   3.114   6.849  0.6907 -0.4697  0.1285
30351SOL    HW193591   6.422   3.183   6.888  0.6616 -1.1911  1.4971
30351SOL    HW293592   6.429   3.039   6.843  0.4607 -0.6116 -0.4559
30352SOL     OW93593   4.553   6.993   5.924  0.2009 -0.5039 -0.2720
30352SOL    HW193594   4.637   6.948   5.917  0.7207  0.2510  0.7672
30352SOL    HW293595   4.517   6.962   6.007 -0.8381 -1.2838 -1.0059
30353SOL     OW93596   4.438   8.626   2.680 -0.2564  0.5509 -0.1777
30353SOL    HW193597   4.399   8.563   2.620  3.5303 -1.6688 -0.4864
30353SOL    HW293598   4.463   8.575   2.757 -0.1116  2.3039  0.9886
30354SOL     OW93599   0.358   3.431   7.489 -0.3035  0.3167  0.2482
30354SOL    HW193600   0.295   3.360   7.490  0.4286 -0.3389  0.0358
30354SOL    HW293601   0.427   3.403   7.548  0.5813  0.2990 -0.7770
30355SOL     OW93602   1.607   0.393   2.099  0.5253 -0.1272 -0.0027
30355SOL    HW193603   1.532   0.403   2.041  2.6045  1.6307 -2.5135
30355SOL    HW293604   1.646   0.309   2.074  0.1571 -0.4292  0.4208
30356SOL     OW93605   0.413   4.569   5.075  0.5048  0.1039  0.0216
30356SOL    HW193606   0.482   4.599   5.016  0.1194 -0.2500 -0.6098
30356SOL    HW293607   0.332   4.579   5.025  0.1832 -0.2530  0.4681
30357SOL     OW93608   8.791   5.454   3.642 -0.3343 -0.0987  0.1802
30357SOL    HW193609   8.765   5.400   3.716  1.9478  0.5536  1.4903
30357SOL    HW293610   8.818   5.537   3.680 -0.6552  0.8239 -1.5332
30358SOL     OW93611   4.915   8.487   6.714 -0.1485 -0.4370  0.4137
30358SOL    HW193612   4.935   8.400   6.681  0.7833 -0.4677  1.0667
30358SOL    HW293613   4.942   8.486   6.806 -1.3418  0.1260  0.7842
30359SOL     OW93614   2.854   4.885   4.154 -0.2688 -0.5123 -0.0897
30359SOL    HW193615   2.940   4.903   4.191 -0.4004 -1.5391  0.7402
30359SOL    HW293616   2.799   4.866   4.229 -1.2476  0.2226 -0.6145
30360SOL     OW93617   2.423   9.506  10.002  0.0960 -0.1900  0.5446
30360SOL    HW193618   2.474   9.587   9.999  0.0193 -0.1966 -1.6908
30360SOL    HW293619   2.418   9.485  10.095  1.3005  1.6203  1.0570
30361SOL     OW93620   7.121   3.715   3.929  0.1852 -0.6124  0.0182
30361SOL    HW193621   7.088   3.699   4.017 -2.2122  0.4187 -0.6359
30361SOL    HW293622   7.152   3.629   3.899 -1.1391 -1.4657  1.0179
30362SOL     OW93623   6.448   8.081   7.277  0.1884  0.5679 -0.0984
30362SOL    HW193624   6.427   8.174   7.286 -0.2638  0.4443  0.1331
30362SOL    HW293625   6.453   8.066   7.183  0.5716  0.8926 -0.1356
30363SOL     OW93626   6.356   7.630   1.586  0.5552 -0.3084 -0.5663
30363SOL    HW193627   6.389   7.638   1.675 -0.5539  2.4678 -0.3572
30363SOL    HW293628   6.435   7.626   1.532  1.2260 -0.7332  0.4270
30364SOL     OW93629   4.113   5.100   5.409  0.6528 -0.4313 -0.1346
30364SOL    HW193630   4.130   5.128   5.499  0.4265  1.5210 -0.6763
30364SOL    HW293631   4.128   5.179   5.356  0.0111 -1.3509 -1.7140
30365SOL     OW93632   9.295   5.763   5.037  0.1151 -0.0612  0.6236
30365SOL    HW193633   9.336   5.695   4.984 -0.2818  0.4047 -0.2782
30365SOL    HW293634   9.222   5.719   5.080  1.0405 -0.6938  1.6087
30366SOL     OW93635   3.213   5.729   1.725 -0.6307  0.1563  0.2342
30366SOL    HW193636   3.290   5.746   1.671 -0.3237  0.5528  0.7906
30366SOL    HW293637   3.139   5.758   1.672 -0.3065  0.8734  0.1714
30367SOL     OW93638   0.125   0.755   3.175 -0.3618 -0.3017  0.0593
30367SOL    HW193639   0.050   0.810   3.197 -2.0779 -2.1206 -1.0322
30367SOL    HW293640   0.151   0.784   3.088 -0.0157  0.0984  0.2955
30368SOL     OW93641   7.110   2.700   0.531  0.1034  0.9023 -0.0575
30368SOL    HW193642   7.043   2.728   0.468 -0.3474  0.6438  0.3074
30368SOL    HW293643   7.108   2.767   0.599 -1.2357 -0.1917  1.0059
30369SOL     OW93644   1.275   8.213   5.252 -0.6566 -0.5379 -0.2002
30369SOL    HW193645   1.346   8.156   5.283  1.0629  1.7914  0.2258
30369SOL    HW293646   1.265   8.278   5.320 -0.8722  1.1719 -1.8257
30370SOL     OW93647   3.937   5.277   9.957  0.4943  0.1210  0.0838
30370SOL    HW193648   3.886   5.272  10.038 -0.4321  1.3636 -0.4072
30370SOL    HW293649   3.888   5.338   9.901  2.1260  0.7378 -0.6956
30371SOL     OW93650   5.454   2.745   1.865  0.3966  0.4998 -0.0560
30371SOL    HW193651   5.380   2.687   1.846 -0.6820  2.5063 -2.2146
30371SOL    HW293652   5.425   2.798   1.939  0.7983 -0.6205  0.9282
30372SOL     OW93653   3.312   3.474   4.623 -0.4899  0.5934 -0.1646
30372SOL    HW193654   3.290   3.500   4.533 -2.6023 -2.7251 -0.6983
30372SOL    HW293655   3.275   3.544   4.678 -0.9056  1.6773 -1.7788
30373SOL     OW93656   5.215   9.952   4.128  0.6037  0.4581 -1.0366
30373SOL    HW193657   5.181   9.957   4.039 -1.0486 -0.4505 -0.4836
30373SOL    HW293658   5.166  10.019   4.176  2.0078  1.4462 -0.9602
30374SOL     OW93659   6.287   2.073   8.121  0.3075 -0.5963 -0.2909
30374SOL    HW193660   6.197   2.089   8.150  0.5886 -1.6827  1.2421
30374SOL    HW293661   6.297   1.978   8.126  1.1989 -0.5771 -1.5319
30375SOL     OW93662   5.759   9.936   9.644 -0.0397  0.3300  0.4726
30375SOL    HW193663   5.721   9.893   9.567 -0.8728  0.4558  0.8121
30375SOL    HW293664   5.717  10.022   9.646  1.4140  1.0765 -0.0452
30376SOL     OW93665   0.150   7.715   0.176  0.4196  0.6300 -0.2445
30376SOL    HW193666   0.112   7.795   0.141  0.1275  0.5640 -0.0774
30376SOL    HW293667   0.146   7.652   0.104 -0.2492  0.4705 -0.0660
30377SOL     OW93668   7.608   8.250   5.661 -0.0466 -0.0420  0.0345
30377SOL    HW193669   7.653   8.173   5.697 -0.4031 -0.2161  0.1164
30377SOL    HW293670   7.676   8.299   5.616  0.5411  0.5464  1.5669
30378SOL     OW93671   1.677   4.392   2.320  0.1792 -0.1864  0.6108
30378SOL    HW193672   1.738   4.362   2.387  1.8902 -0.9461 -1.2292
30378SOL    HW293673   1.676   4.487   2.329  1.2741 -0.2058  0.9659
30379SOL     OW93674   6.653   0.543   0.422  0.0338 -0.0105 -0.2798
30379SOL    HW193675   6.653   0.540   0.326 -0.4217 -0.9324 -0.2585
30379SOL    HW293676   6.620   0.630   0.443 -1.0578 -0.2380 -0.9716
30380SOL     OW93677   0.115   5.734   1.725  0.2687 -0.3617 -0.2354
30380SOL    HW193678   0.026   5.747   1.759  1.1028 -1.7536  2.6244
30380SOL    HW293679   0.132   5.812   1.673 -1.6087  1.2503  1.4541
30381SOL     OW93680   7.713   1.762   8.090 -0.0591  0.4184  0.2166
30381SOL    HW193681   7.728   1.698   8.160  0.4985  2.0417  1.5844
30381SOL    HW293682   7.739   1.846   8.127  1.4694  1.1549 -2.3473
30382SOL     OW93683   7.114   5.206   7.816  0.5980  0.0042  0.5186
30382SOL    HW193684   7.075   5.192   7.902 -1.4870 -0.4989 -0.4934
30382SOL    HW293685   7.163   5.288   7.825  1.0380 -0.4410  2.3925
30383SOL     OW93686   8.976   1.635   4.550  0.6284 -0.0537  0.0082
30383SOL    HW193687   8.895   1.686   4.552 -0.6875 -2.1096  0.3983
30383SOL    HW293688   9.037   1.685   4.605 -0.4609  1.3514 -0.0348
30384SOL     OW93689   2.277   0.456   8.795 -0.1041  0.1126 -0.2568
30384SOL    HW193690   2.340   0.415   8.855 -1.0229  1.6839  1.8394
30384SOL    HW293691   2.267   0.393   8.724  2.7210 -0.8115  0.1069
30385SOL     OW93692   6.258   8.481   0.542  0.3275  0.2730  0.1414
30385SOL    HW193693   6.301   8.489   0.627 -0.6812  0.5965  0.6234
30385SOL    HW293694   6.297   8.402   0.503  1.5030  0.6780  0.4761
30386SOL     OW93695   0.801   7.133   7.738  0.0254 -0.7116 -0.5137
30386SOL    HW193696   0.874   7.077   7.762  0.5911 -0.4765 -1.6220
30386SOL    HW293697   0.824   7.167   7.651 -0.5415  0.8220 -0.0820
30387SOL     OW93698   4.184   8.490  10.196  0.3225 -0.4581  0.3907
30387SOL    HW193699   4.132   8.410  10.191 -1.7842  0.8459  0.7206
30387SOL    HW293700   4.255   8.468  10.257 -2.2659 -1.0367  3.3738
30388SOL     OW93701   2.656   4.769   7.237 -0.0523 -0.1435  0.4895
30388SOL    HW193702   2.695   4.837   7.292  0.7928 -0.2348  0.0166
30388SOL    HW293703   2.641   4.695   7.295  0.7240 -0.1970  0.6253
30389SOL     OW93704   7.796   3.928   0.165 -0.3987  0.0536 -0.6277
30389SOL    HW193705   7.760   3.904   0.080 -1.3259  0.6800 -0.4219
30389SOL    HW293706   7.834   3.847   0.200 -1.7122 -0.6368 -0.7953
30390SOL     OW93707   3.012   9.314   7.210 -0.0349 -0.5555  0.2964
30390SOL    HW193708   2.979   9.366   7.283 -1.1535 -0.7300 -0.0647
30390SOL    HW293709   2.936   9.304   7.152  0.6500 -1.0276 -0.5317
30391SOL     OW93710   2.124   9.231   7.030  0.0469  0.4945  0.0742
30391SOL    HW193711   2.143   9.242   7.123 -1.8966  1.6372  0.3533
30391SOL    HW293712   2.171   9.303   6.988  1.5715 -0.4716  0.0376
30392SOL     OW93713   2.231   6.552   3.900 -0.0194  0.3094 -0.3693
30392SOL    HW193714   2.198   6.552   3.811  0.4855  0.9382 -0.5622
30392SOL    HW293715   2.325   6.536   3.892 -0.3190 -1.8351  0.2004
30393SOL     OW93716   6.307   5.503   8.734  0.5327  0.6522 -0.6965
30393SOL    HW193717   6.339   5.446   8.804 -2.2280 -1.2723 -0.9496
30393SOL    HW293718   6.234   5.551   8.774 -1.4578 -0.8987 -2.3938
30394SOL     OW93719   4.170   7.336   6.332 -0.0241  0.5901 -0.3538
30394SOL    HW193720   4.116   7.405   6.370 -1.9242 -0.6613 -0.7028
30394SOL    HW293721   4.151   7.341   6.238  0.0236 -0.2337 -0.4079
30395SOL     OW93722   1.416   4.855   9.790  0.2280 -0.2581 -0.2033
30395SOL    HW193723   1.473   4.912   9.738  0.7871 -1.3210 -0.7811
30395SOL    HW293724   1.345   4.911   9.820  1.2692  0.9558  0.0139
30396SOL     OW93725  10.142   8.562   4.485 -0.5361 -0.2973 -0.2690
30396SOL    HW193726  10.223   8.548   4.436 -0.3786 -0.4092  0.0170
30396SOL    HW293727  10.172   8.582   4.574 -0.7976  0.6454 -0.3892
30397SOL     OW93728   2.155   7.946   6.372 -0.0546  0.0950 -0.0144
30397SOL    HW193729   2.069   7.987   6.366 -0.5468 -0.9242  0.0877
30397SOL    HW293730   2.168   7.931   6.465  0.7508  1.3264  0.0848
30398SOL     OW93731   8.833   9.031   6.451  0.2663 -0.0784  0.2663
30398SOL    HW193732   8.792   9.048   6.536 -0.0701 -1.7964  0.4599
30398SOL    HW293733   8.908   8.975   6.471  1.2622  0.9960 -0.3756
30399SOL     OW93734   3.531   1.917   6.155  0.2839  0.3016  0.1107
30399SOL    HW193735   3.591   1.944   6.086  1.3355  2.6886  1.8620
30399SOL    HW293736   3.454   1.971   6.143  0.5544  0.8733  0.9207
30400SOL     OW93737   0.355   7.819   9.637  0.1281 -0.1381 -0.6818
30400SOL    HW193738   0.421   7.871   9.682 -0.7111  0.4928 -0.1798
30400SOL    HW293739   0.399   7.789   9.557  1.5842 -1.1852  0.4893
30401SOL     OW93740   4.433   6.547   2.370 -0.0823 -0.4644 -0.7579
30401SOL    HW193741   4.461   6.458   2.392  0.6656 -0.3122 -1.0690
30401SOL    HW293742   4.405   6.585   2.454 -1.8933 -1.5096 -0.8852
30402SOL     OW93743   0.672   3.453   4.421  0.1998  0.2888 -0.4136
30402SOL    HW193744   0.670   3.549   4.426 -0.8205  0.2514  0.1936
30402SOL    HW293745   0.579   3.428   4.422  0.4804 -0.7415  0.3332
30403SOL     OW93746   5.976   0.312   8.752  0.2842  0.5389 -0.5743
30403SOL    HW193747   5.926   0.345   8.677 -0.4963  1.7983  0.4669
30403SOL    HW293748   6.005   0.225   8.725 -0.5792  0.6903 -2.0664
30404SOL     OW93749   5.655   1.492   5.981  0.3476  0.3878  0.0878
30404SOL    HW193750   5.563   1.477   5.959  0.0851  1.3789  0.4681
30404SOL    HW293751   5.704   1.436   5.920 -0.4989 -0.0400 -0.2064
30405SOL     OW93752   2.583   4.261   5.270  0.7460  0.0307  0.3752
30405SOL    HW193753   2.558   4.261   5.363  0.2985 -0.4122  0.2504
30405SOL    HW293754   2.607   4.352   5.253 -1.6185  0.6596  0.2681
30406SOL     OW93755   2.156   0.725   4.944  0.0687  0.1045  0.4555
30406SOL    HW193756   2.205   0.676   5.010 -1.7464  1.6440  3.0413
30406SOL    HW293757   2.221   0.785   4.907  0.7509  0.3892  2.0597
30407SOL     OW93758   5.215   8.887   3.146 -0.5162  0.2907  0.0037
30407SOL    HW193759   5.247   8.936   3.070 -1.6761  2.0789  0.6334
30407SOL    HW293760   5.153   8.824   3.109 -0.7613  0.8773 -0.6019
30408SOL     OW93761   8.724   6.379   2.521 -0.2035  0.1242 -0.4985
30408SOL    HW193762   8.730   6.474   2.528 -0.8604  0.0769  0.7941
30408SOL    HW293763   8.646   6.364   2.467  1.1232  0.3404 -2.5566
30409SOL     OW93764   7.226   7.437   7.190  0.3425  0.0409  0.3210
30409SOL    HW193765   7.229   7.386   7.271 -1.5395  1.4176  1.2962
30409SOL    HW293766   7.220   7.528   7.219 -1.6482  0.4742 -1.3199
30410SOL     OW93767   0.493   0.836   4.782 -0.6867  0.2181 -0.3960
30410SOL    HW193768   0.505   0.923   4.820 -2.0571 -0.0880  0.7881
30410SOL    HW293769   0.447   0.852   4.700 -1.6070  0.5809  0.1747
30411SOL     OW93770   0.357   5.663   1.488 -0.6106 -0.4314 -0.3504
30411SOL    HW193771   0.411   5.728   1.533  0.5736 -0.7919 -1.2278
30411SOL    HW293772   0.346   5.592   1.552  1.9154 -1.4030 -0.9328
30412SOL     OW93773   7.166   3.809   3.012  0.3525  0.5349 -0.3128
30412SOL    HW193774   7.142   3.743   3.077  2.0513  0.3190  0.1168
30412SOL    HW293775   7.207   3.758   2.941  2.1345  1.1396  0.2467
30413SOL     OW93776   6.107   8.033   8.563 -0.0793  0.3238  0.8778
30413SOL    HW193777   6.197   8.018   8.593  0.0368  1.2598  0.9986
30413SOL    HW293778   6.060   7.955   8.593  1.4786 -2.0823 -2.6119
30414SOL     OW93779   0.845   2.189   3.066 -0.7299 -0.1039 -0.2097
30414SOL    HW193780   0.759   2.215   3.099  0.3582  1.6057  1.4168
30414SOL    HW293781   0.894   2.272   3.062  1.2463 -1.2334  0.1599
30415SOL     OW93782   1.398   6.577   9.956  0.0522 -0.2930  0.1487
30415SOL    HW193783   1.355   6.518   9.894 -1.6181  2.5291 -1.4717
30415SOL    HW293784   1.385   6.535  10.041 -2.3299 -1.5604 -0.7920
30416SOL     OW93785   4.346   3.543   3.425 -0.0641 -0.1583  0.0594
30416SOL    HW193786   4.268   3.500   3.460 -1.7457  0.1213 -3.1791
30416SOL    HW293787   4.328   3.637   3.432 -0.0601 -0.0932 -0.8042
30417SOL     OW93788   4.363   3.270   3.841 -0.2119 -0.3012  0.0757
30417SOL    HW193789   4.276   3.274   3.800 -0.2263  1.1477  0.1987
30417SOL    HW293790   4.421   3.314   3.778  0.2759 -0.5250  0.3693
30418SOL     OW93791   3.689   9.008   8.600  0.9338 -0.2022 -0.2775
30418SOL    HW193792   3.709   8.919   8.629  1.3938 -0.2482 -0.7174
30418SOL    HW293793   3.666   8.999   8.508  0.9579  0.1278 -0.3185
30419SOL     OW93794   5.719   7.866   4.004 -0.2263 -0.0758 -0.3184
30419SOL    HW193795   5.662   7.910   4.069 -1.0286  0.7702 -1.5654
30419SOL    HW293796   5.665   7.796   3.969  0.5385 -1.1284  0.5894
30420SOL     OW93797   0.733   8.105   2.398 -0.2585 -0.7941 -0.4165
30420SOL    HW193798   0.662   8.051   2.433 -1.9076  1.2454 -0.5277
30420SOL    HW293799   0.718   8.191   2.435  0.6840  0.2809 -2.4476
30421SOL     OW93800   2.371   0.981   2.049  0.4580  0.4941  0.2182
30421SOL    HW193801   2.375   1.067   2.091 -0.8459  1.4807 -1.5831
30421SOL    HW293802   2.404   0.997   1.960 -2.4857 -0.2108 -1.0561
30422SOL     OW93803   3.827   7.679   7.718 -0.1026  0.0597 -0.6386
30422SOL    HW193804   3.921   7.673   7.733  0.2514 -0.3487 -2.8770
30422SOL    HW293805   3.810   7.615   7.649 -1.5132  2.2900 -2.4123
30423SOL     OW93806   6.439   7.590   4.863 -0.0083 -0.0990 -0.4485
30423SOL    HW193807   6.374   7.585   4.793  0.0942  1.0136 -0.6211
30423SOL    HW293808   6.515   7.632   4.823  0.1979  0.1743  0.2157
30424SOL     OW93809   4.276   2.930   0.979 -0.3969 -0.0722 -0.0899
30424SOL    HW193810   4.216   2.892   0.915 -1.4395 -0.3300  1.0281
30424SOL    HW293811   4.362   2.896   0.954 -0.8961 -0.7453 -0.9238
30425SOL     OW93812   4.677   5.242   4.788  0.3616  0.0236 -0.1524
30425SOL    HW193813   4.726   5.166   4.819  0.8946 -0.3068 -1.7690
30425SOL    HW293814   4.722   5.269   4.708  0.8859  2.7783  1.0075
30426SOL     OW93815   2.830   2.109   7.566  0.5893  0.2347 -0.0183
30426SOL    HW193816   2.862   2.057   7.493 -1.7837  0.3821 -1.2101
30426SOL    HW293817   2.877   2.192   7.560 -1.2004  1.1127 -2.7769
30427SOL     OW93818   0.403   9.750   7.483 -1.0131  0.0083 -0.2154
30427SOL    HW193819   0.396   9.661   7.516  0.6497 -0.4682 -1.1166
30427SOL    HW293820   0.419   9.803   7.561 -1.1035 -0.5830  0.2109
30428SOL     OW93821   0.967   4.644   8.176  0.5258 -0.0413  0.5711
30428SOL    HW193822   1.010   4.623   8.093  1.0406 -0.9577  1.0619
30428SOL    HW293823   0.948   4.738   8.169  1.5799  0.1352 -0.1207
30429SOL     OW93824   2.127   6.155   0.770 -0.3040  0.3010 -0.3217
30429SOL    HW193825   2.042   6.117   0.748 -1.0105  0.1118  2.6141
30429SOL    HW293826   2.115   6.249   0.756 -0.8698  0.2284 -0.3388
30430SOL     OW93827   4.980   8.959   4.430  0.2581  0.2166  0.3122
30430SOL    HW193828   5.022   8.874   4.441  0.7690  0.7212  2.6363
30430SOL    HW293829   5.051   9.018   4.402  0.8356  0.7404  2.7575
30431SOL     OW93830   0.901   7.474   4.529 -0.0402 -0.2543 -0.0555
30431SOL    HW193831   0.926   7.408   4.593  1.5430 -0.4580 -0.8668
30431SOL    HW293832   0.975   7.534   4.527 -0.8029  0.6854 -0.4800
30432SOL     OW93833   6.896   8.707   8.807 -0.3053  0.1000  0.0085
30432SOL    HW193834   6.880   8.801   8.806 -0.9353  0.0115  0.9338
30432SOL    HW293835   6.991   8.699   8.801 -0.3243  0.7421 -1.5547
30433SOL     OW93836   1.926   2.942   7.460 -0.1561 -0.0191  0.1688
30433SOL    HW193837   1.880   3.006   7.406 -0.5697 -0.3382  0.1440
30433SOL    HW293838   1.925   2.862   7.408 -0.0399 -0.1706  0.4006
30434SOL     OW93839   4.495   9.070   1.555 -0.1555 -0.1071  0.3711
30434SOL    HW193840   4.519   9.128   1.483 -1.2040  0.3363  0.3683
30434SOL    HW293841   4.570   9.011   1.564  0.1543  0.0849 -0.8208
30435SOL     OW93842   4.897  10.181   8.966 -0.1297  0.3463  0.1492
30435SOL    HW193843   4.985  10.162   8.933 -0.9809 -3.3806 -0.1259
30435SOL    HW293844   4.912  10.221   9.052  1.8190 -2.1329  1.0253
30436SOL     OW93845   3.888   2.919   1.941 -0.3644 -0.3154 -1.0554
30436SOL    HW193846   3.874   2.904   2.035 -0.5392 -0.6047 -1.1265
30436SOL    HW293847   3.876   2.833   1.901  1.2073 -0.4836 -1.1798
30437SOL     OW93848   6.643   8.101   6.923 -0.1236  0.8196 -0.7102
30437SOL    HW193849   6.560   8.056   6.905 -0.1049  1.1289 -1.5595
30437SOL    HW293850   6.679   8.054   6.998 -1.1885  0.8311 -0.1708
30438SOL     OW93851   3.529   8.599  10.168  0.5829 -0.3390 -0.0689
30438SOL    HW193852   3.533   8.656  10.091  0.5564  0.9434  0.8520
30438SOL    HW293853   3.522   8.511  10.132 -0.2470  0.2925 -1.5360
30439SOL     OW93854   3.028   2.922   4.860 -0.4450  0.0831 -0.0113
30439SOL    HW193855   3.080   2.864   4.805 -1.1625  1.1317 -1.8649
30439SOL    HW293856   2.941   2.882   4.862 -0.5297  0.2676  0.0145
30440SOL     OW93857   7.604   0.212   3.834  0.5292  0.3691  0.6011
30440SOL    HW193858   7.639   0.248   3.753 -0.2947 -0.4687 -0.1230
30440SOL    HW293859   7.538   0.276   3.862  0.2571  0.2657  0.1984
30441SOL     OW93860   0.064   3.029   7.116 -0.2458 -0.1270 -0.1609
30441SOL    HW193861   0.125   3.091   7.155 -1.5860  0.1550  1.5421
30441SOL    HW293862   0.058   2.958   7.179 -1.2948 -0.3673 -0.5172
30442SOL     OW93863   8.922   1.728   2.023 -0.5014 -0.0198  0.5166
30442SOL    HW193864   8.902   1.641   1.987  2.5558  0.2266 -2.1222
30442SOL    HW293865   8.841   1.777   2.014 -1.3077 -1.5909 -1.3126
30443SOL     OW93866   8.138   5.204   1.175  0.5083 -0.2249  0.2989
30443SOL    HW193867   8.119   5.169   1.263  0.6717  0.0045  0.4260
30443SOL    HW293868   8.127   5.298   1.184  0.9481 -0.1626  0.1829
30444SOL     OW93869   3.545   1.259   6.431 -0.0314  0.8234  0.1257
30444SOL    HW193870   3.479   1.250   6.499  0.8197 -0.3218  0.8138
30444SOL    HW293871   3.560   1.353   6.424 -0.6285  0.9893  1.0187
30445SOL     OW93872   4.781   1.054   4.978  0.3145 -0.1859  0.5110
30445SOL    HW193873   4.755   1.133   4.930 -2.5045 -2.9371 -2.7185
30445SOL    HW293874   4.864   1.028   4.939  0.0011 -0.1926 -0.1610
30446SOL     OW93875   9.063   0.322   0.105 -0.1732 -0.1454 -0.3433
30446SOL    HW193876   9.014   0.380   0.164 -0.4643  0.8774 -1.5731
30446SOL    HW293877   9.152   0.323   0.140 -0.6265 -0.6049  0.8605
30447SOL     OW93878   5.451   0.015   0.680  0.3340 -0.6477 -0.2157
30447SOL    HW193879   5.443   0.058   0.595  1.0519 -0.5390 -0.2309
30447SOL    HW293880   5.362  -0.013   0.701 -0.1735  1.0775 -0.0740
30448SOL     OW93881   1.312   3.559   3.053  0.2673 -0.0635  0.2478
30448SOL    HW193882   1.285   3.476   3.092  0.7962 -0.1404  0.4434
30448SOL    HW293883   1.356   3.534   2.972 -1.6310  0.1290 -0.8838
30449SOL     OW93884   6.606   8.484   5.895 -0.3388  0.4871 -0.2609
30449SOL    HW193885   6.517   8.453   5.882  0.2779 -0.5146 -2.4490
30449SOL    HW293886   6.603   8.577   5.876 -1.6645  1.2735  3.5732
30450SOL     OW93887   9.757   0.517   9.221 -0.4944  0.2196  0.4666
30450SOL    HW193888   9.781   0.472   9.303 -0.5624 -2.5228 -0.9547
30450SOL    HW293889   9.832   0.503   9.163 -1.1343  0.6985 -0.4900
30451SOL     OW93890   4.150   8.346   7.779 -0.1880  0.4371  0.0563
30451SOL    HW193891   4.207   8.419   7.757  1.4394 -0.9459 -0.3887
30451SOL    HW293892   4.138   8.352   7.874  1.1130  0.4202  0.2214
30452SOL     OW93893   5.451   2.894   4.781 -0.4700 -0.0626 -0.6050
30452SOL    HW193894   5.428   2.986   4.795 -0.2204 -0.0991  0.0306
30452SOL    HW293895   5.378   2.845   4.819  0.7564 -0.1844  1.6580
30453SOL     OW93896   8.198   7.830   9.469 -0.8318  0.7784 -0.1894
30453SOL    HW193897   8.104   7.836   9.480 -1.1149 -0.3509 -1.8978
30453SOL    HW293898   8.231   7.916   9.497 -2.2567  0.8551  1.2864
30454SOL     OW93899   6.835   5.877   8.102  0.1621  0.0306 -0.2527
30454SOL    HW193900   6.810   5.814   8.169  0.6677  1.0214  0.8775
30454SOL    HW293901   6.930   5.885   8.111  0.2269  0.2185 -1.0504
30455SOL     OW93902   1.875   1.632   6.583 -0.2209 -0.3085 -0.2281
30455SOL    HW193903   1.787   1.595   6.586 -0.4086  0.0784 -0.9018
30455SOL    HW293904   1.875   1.688   6.505 -0.3674  2.1318  1.4670
30456SOL     OW93905   2.363  10.097   3.318 -0.5568 -0.3080 -0.6728
30456SOL    HW193906   2.268  10.110   3.327 -0.4611 -0.1073  0.1095
30456SOL    HW293907   2.374  10.065   3.229 -1.1521  1.6616 -1.4862
30457SOL     OW93908   3.354   6.708   7.228 -0.4970 -0.4227 -0.0594
30457SOL    HW193909   3.284   6.686   7.289  1.1181  0.3429  2.0920
30457SOL    HW293910   3.433   6.713   7.281  0.4302  3.5333 -1.6060
30458SOL     OW93911   8.252   4.129   7.295 -0.1538 -0.2492 -0.4720
30458SOL    HW193912   8.274   4.093   7.209 -0.5441 -3.0343  0.5526
30458SOL    HW293913   8.219   4.054   7.344  0.9307  1.1143  2.4018
30459SOL     OW93914   4.200   2.776   5.584 -0.6543 -0.8166 -0.3856
30459SOL    HW193915   4.130   2.821   5.633 -1.1870 -1.1610 -0.8302
30459SOL    HW293916   4.276   2.834   5.593 -1.3119  0.1327 -0.8640
30460SOL     OW93917   5.055   2.885   6.909 -0.1337  0.7221  0.1673
30460SOL    HW193918   5.011   2.903   6.992  1.6389  0.5575  1.1641
30460SOL    HW293919   5.058   2.789   6.904  0.7151  0.7322  0.4364
30461SOL     OW93920   3.018   5.690   7.776 -0.7252  0.2124  0.0462
30461SOL    HW193921   2.977   5.605   7.792  1.8507 -0.7196  1.9102
30461SOL    HW293922   3.018   5.733   7.861 -0.8822  1.6025 -0.6456
30462SOL     OW93923   1.613   2.292   4.902  0.4348 -0.1494 -0.0955
30462SOL    HW193924   1.532   2.269   4.949  0.5355  0.7673  0.5439
30462SOL    HW293925   1.582   2.339   4.824  0.3279 -0.3175 -0.1554
30463SOL     OW93926   1.423   7.678   1.833  0.0429  0.3106 -0.1760
30463SOL    HW193927   1.471   7.708   1.756  0.4956  2.3505  0.8590
30463SOL    HW293928   1.341   7.727   1.831 -1.7388 -2.6080 -1.5279
30464SOL     OW93929   2.062   9.960   1.561 -0.3164 -0.1303  0.3353
30464SOL    HW193930   2.132  10.022   1.578 -0.0227 -0.5606  0.7045
30464SOL    HW293931   1.990   9.990   1.616 -0.5277  0.4836 -0.2668
30465SOL     OW93932   6.311   0.974   2.731  0.0885 -0.3665  0.0921
30465SOL    HW193933   6.236   1.031   2.714  1.2054  0.7512 -1.2428
30465SOL    HW293934   6.277   0.905   2.787 -1.6037  0.8930  0.6416
30466SOL     OW93935   6.095   4.901   0.761  0.4481  0.1546  0.6260
30466SOL    HW193936   6.056   4.821   0.725 -3.4737  1.0995  2.5087
30466SOL    HW293937   6.158   4.870   0.826  0.6469 -1.3711 -0.2506
30467SOL     OW93938   8.189   8.036   4.209  0.5294  0.2033  0.2309
30467SOL    HW193939   8.140   8.064   4.132  0.4028 -3.6440 -1.2181
30467SOL    HW293940   8.260   7.982   4.174  2.0142  0.4842  2.6794
30468SOL     OW93941   7.241   3.068   0.428  0.2778  0.4684 -0.5138
30468SOL    HW193942   7.162   3.028   0.392 -1.1968 -0.1134  3.1773
30468SOL    HW293943   7.215   3.157   0.449  0.3787  0.1011  1.2515
30469SOL     OW93944   7.205   1.113   2.219  0.3794 -0.1911 -0.1008
30469SOL    HW193945   7.287   1.105   2.267  0.6605  0.2933 -0.4984
30469SOL    HW293946   7.158   1.185   2.261  0.0790 -0.5821  0.2378
30470SOL     OW93947   2.246   1.976   0.211 -0.2784 -0.1873  0.8005
30470SOL    HW193948   2.266   2.066   0.237  1.1665 -0.9942  2.5399
30470SOL    HW293949   2.162   1.957   0.252 -0.5561  0.3408  0.4795
30471SOL     OW93950   7.876   5.125   9.257  0.4501  0.1002  0.7529
30471SOL    HW193951   7.837   5.052   9.305 -0.6583 -1.9546 -3.0628
30471SOL    HW293952   7.953   5.088   9.213 -0.1261  1.1553 -1.2482
30472SOL     OW93953   9.983   9.693   0.695  0.3227 -0.4485  0.4374
30472SOL    HW193954   9.899   9.710   0.653  1.6003  1.8051 -1.3143
30472SOL    HW293955   9.979   9.738   0.779 -0.0086  0.1373  0.1074
30473SOL     OW93956   7.110   0.120   5.473 -0.0362  0.2471 -0.4726
30473SOL    HW193957   7.128   0.157   5.387  0.1117 -1.0087 -0.9901
30473SOL    HW293958   7.041   0.055   5.457  1.0379 -1.0528  0.0939
30474SOL     OW93959   6.600   6.684   4.031 -0.0487  0.0842  0.1500
30474SOL    HW193960   6.611   6.751   4.099 -0.5438  0.7054 -0.3793
30474SOL    HW293961   6.644   6.607   4.067  1.9265  1.1484  0.0687
30475SOL     OW93962   8.386   9.931   9.034  0.3226 -0.5260  0.2373
30475SOL    HW193963   8.472   9.955   8.999  0.4644 -1.7256 -0.2639
30475SOL    HW293964   8.406   9.872   9.107 -0.0845 -0.7938  0.1281
30476SOL     OW93965   0.894   0.552   4.881 -0.0484  0.1373 -0.2147
30476SOL    HW193966   0.800   0.569   4.880  0.2749  2.0461  0.0660
30476SOL    HW293967   0.930   0.615   4.819  1.0953 -0.3248 -0.0336
30477SOL     OW93968   9.823   1.839   1.332  0.0832 -0.4552 -0.3592
30477SOL    HW193969   9.748   1.899   1.335  0.7814  0.3829  0.5908
30477SOL    HW293970   9.893   1.891   1.292  0.7888 -0.5332  0.7687
30478SOL     OW93971   1.453   3.073   7.577 -0.1678 -0.0683 -0.5498
30478SOL    HW193972   1.449   2.977   7.584  1.5935 -0.3082 -2.3707
30478SOL    HW293973   1.493   3.089   7.491  1.8677  2.2894  0.7828
30479SOL     OW93974   0.466   3.921   2.308  0.2702 -0.5347 -0.4218
30479SOL    HW193975   0.526   3.983   2.350 -0.3546 -0.3502  0.2032
30479SOL    HW293976   0.451   3.957   2.221  0.6559 -0.3089 -0.3956
30480SOL     OW93977   4.791   3.859   6.470 -0.4473  0.3138 -0.4226
30480SOL    HW193978   4.771   3.815   6.553 -0.1823  1.6268  0.3469
30480SOL    HW293979   4.868   3.913   6.490 -0.9975  1.4106 -1.2467
30481SOL     OW93980   4.494   3.472   6.368  0.1168 -0.3701  0.4740
30481SOL    HW193981   4.487   3.403   6.434  0.8203 -1.3285 -0.4400
30481SOL    HW293982   4.471   3.553   6.415  0.9604 -0.9797  1.9689
30482SOL     OW93983   7.985   5.605   1.692  0.3405 -0.0432 -0.3428
30482SOL    HW193984   7.971   5.634   1.782 -0.6199 -1.2663 -0.0808
30482SOL    HW293985   8.066   5.554   1.695  0.2949 -0.1044 -0.1675
30483SOL     OW93986   5.521   4.372   3.042 -0.2898 -0.1674 -0.1718
30483SOL    HW193987   5.499   4.456   3.084  0.2107  0.6685 -1.5507
30483SOL    HW293988   5.542   4.314   3.115 -0.2331  1.0353  0.7843
30484SOL     OW93989   8.328   6.501   7.069 -0.3928 -0.1294 -0.2688
30484SOL    HW193990   8.233   6.502   7.059 -0.3300  0.5672 -0.8433
30484SOL    HW293991   8.348   6.584   7.113 -0.2387 -1.1878  1.7294
30485SOL     OW93992   5.575   4.629   7.075 -0.1431 -0.2299  0.0101
30485SOL    HW193993   5.518   4.662   7.006 -2.5939 -0.5454  1.8474
30485SOL    HW293994   5.664   4.642   7.041 -1.2826  0.3409 -2.8453
30486SOL     OW93995   0.947   8.143   5.799 -0.3041 -0.0131 -0.1981
30486SOL    HW193996   1.004   8.135   5.723  0.0385 -1.2962  0.1832
30486SOL    HW293997   0.864   8.106   5.770 -0.5555  0.6519 -0.3379
30487SOL     OW93998   2.935   0.289   9.014  0.2081  0.3915 -0.2186
30487SOL    HW193999   2.884   0.370   9.021  0.0273  0.3738 -1.1502
30487SOL    HW294000   3.007   0.312   8.955 -0.2376 -0.3065 -1.0612
30488SOL     OW94001   6.284   1.093   5.004  0.5557  0.1916  0.3915
30488SOL    HW194002   6.249   1.004   5.005 -1.4584  0.9386 -0.6115
30488SOL    HW294003   6.268   1.127   5.092 -1.0276  0.4305  0.0178
30489SOL     OW94004   4.772   9.121   6.066  0.2065  0.9458 -0.0522
30489SOL    HW194005   4.692   9.160   6.101 -0.0144 -0.8850  1.5743
30489SOL    HW294006   4.841   9.183   6.088 -0.5162  1.7159  0.0632
30490SOL     OW94007   8.052   8.159   6.476  0.3670 -0.4737  0.1499
30490SOL    HW194008   8.008   8.121   6.400 -0.0253 -1.9011  1.0717
30490SOL    HW294009   8.060   8.252   6.455 -0.9733 -0.6061 -1.0546
30491SOL     OW94010   1.590   0.496   7.894  0.0955  0.3035  0.7084
30491SOL    HW194011   1.496   0.510   7.879  0.0404 -0.1771  0.5782
30491SOL    HW294012   1.630   0.508   7.808 -0.1306 -1.7263  0.2813
30492SOL     OW94013   7.608   0.467   9.571 -0.1931  0.0450 -0.7580
30492SOL    HW194014   7.685   0.522   9.580 -0.7969  0.7614  0.0507
30492SOL    HW294015   7.556   0.510   9.502  0.2689 -0.6131 -1.5309
30493SOL     OW94016   6.266   5.314   5.126  0.4848  0.0933 -0.0717
30493SOL    HW194017   6.331   5.358   5.181 -0.3300 -0.1505  1.1085
30493SOL    HW294018   6.222   5.253   5.186 -0.4497 -0.1308 -0.9840
30494SOL     OW94019   8.650   0.320   6.075 -0.7774  0.1255 -0.4697
30494SOL    HW194020   8.597   0.399   6.082 -0.8838 -0.0646  1.1156
30494SOL    HW294021   8.741   0.351   6.077 -0.8210  0.4012 -2.5158
30495SOL     OW94022   6.737   6.028   1.216  0.3057  0.4367  0.4643
30495SOL    HW194023   6.774   6.049   1.302  2.8409 -0.7410 -0.2805
30495SOL    HW294024   6.805   6.056   1.154 -0.2619 -1.3314 -1.0008
30496SOL     OW94025   5.589   3.601   9.096 -0.2202  0.0880  0.7437
30496SOL    HW194026   5.632   3.653   9.028 -1.8449  1.2708  0.5922
30496SOL    HW294027   5.653   3.534   9.118  1.3440  1.2428 -0.1255
30497SOL     OW94028   6.807   7.846   2.367  0.5139 -0.3014  0.3313
30497SOL    HW194029   6.777   7.902   2.438 -1.7940  1.2413 -1.7692
30497SOL    HW294030   6.889   7.885   2.338  0.1963  0.5282  0.5470
30498SOL     OW94031   6.145   2.478   5.164 -0.1066 -0.0407  0.1535
30498SOL    HW194032   6.174   2.429   5.088 -1.4897  1.0170 -1.0978
30498SOL    HW294033   6.204   2.554   5.168  0.1499 -0.2482  0.3129
30499SOL     OW94034   7.782   9.337   8.273  0.0395 -1.1247 -0.6911
30499SOL    HW194035   7.693   9.318   8.242 -0.6225 -0.1259  0.5009
30499SOL    HW294036   7.839   9.279   8.224 -1.3853 -2.4475 -0.7879
30500SOL     OW94037   7.578   7.096   3.370 -0.5648 -0.2848 -0.3063
30500SOL    HW194038   7.569   7.174   3.424 -1.3184 -0.9880  0.6085
30500SOL    HW294039   7.491   7.082   3.332 -0.0783  0.1238 -1.6062
30501SOL     OW94040   7.047   3.819   8.451 -0.3884 -0.1176  0.2165
30501SOL    HW194041   6.978   3.882   8.470  0.1444 -0.0056  1.8678
30501SOL    HW294042   7.035   3.750   8.516  1.7465  0.4831  1.3211
30502SOL     OW94043   8.455   3.076   4.093 -0.6393 -0.4987  0.0543
30502SOL    HW194044   8.487   3.083   4.183  0.9552  0.7089 -0.5914
30502SOL    HW294045   8.393   3.148   4.083 -0.4140 -0.3143  0.0088
30503SOL     OW94046   7.341   5.029   0.599 -0.2020 -0.4368 -0.0852
30503SOL    HW194047   7.371   5.116   0.574 -1.5829  0.0037 -0.2532
30503SOL    HW294048   7.313   5.039   0.690 -0.8448 -0.5780 -0.2654
30504SOL     OW94049   1.775   3.705   3.235 -0.7711 -0.1173  0.7467
30504SOL    HW194050   1.713   3.717   3.307 -1.1968  1.8862  0.0594
30504SOL    HW294051   1.733   3.744   3.159  0.9762  0.5303  0.0846
30505SOL     OW94052   8.409   1.683   5.510  0.0542 -0.8524 -0.2455
30505SOL    HW194053   8.390   1.592   5.535 -0.4394 -1.1138 -1.4932
30505SOL    HW294054   8.334   1.708   5.455 -0.0975  0.5082  0.5553
30506SOL     OW94055   1.612   4.173   9.072 -0.1723  0.2495  0.2235
30506SOL    HW194056   1.682   4.229   9.037 -1.0642  0.0162 -2.0017
30506SOL    HW294057   1.557   4.154   8.996 -0.5732 -2.6398  1.1923
30507SOL     OW94058   3.304   4.072   3.801 -0.3441  0.6097  0.1366
30507SOL    HW194059   3.342   4.156   3.776 -0.9831  1.2132  1.1768
30507SOL    HW294060   3.254   4.091   3.880 -1.2225 -0.5705 -0.1296
30508SOL     OW94061   8.983   0.791   7.668  0.1756  0.2232 -0.2106
30508SOL    HW194062   9.021   0.864   7.716  2.3285  0.3090 -1.9641
30508SOL    HW294063   8.931   0.831   7.599 -0.7895  0.0910  0.4299
30509SOL     OW94064   3.052   7.188  10.020  0.0507  0.6806 -0.4126
30509SOL    HW194065   3.097   7.249  10.079  2.2816 -0.0365 -1.2879
30509SOL    HW294066   3.059   7.103  10.063  0.7988  0.3269 -1.2168
30510SOL     OW94067   6.753   4.975   1.298  0.1146  0.1709 -0.2938
30510SOL    HW194068   6.706   5.058   1.311  0.3651  0.3739 -0.6684
30510SOL    HW294069   6.843   4.995   1.321 -0.0592 -0.3329  0.8387
30511SOL     OW94070   9.980   8.393   6.327  0.1596  0.5207  0.0589
30511SOL    HW194071  10.043   8.465   6.322  0.0353  0.4938 -2.8631
30511SOL    HW294072  10.033   8.314   6.322  0.0220  0.4760 -0.7541
30512SOL     OW94073   7.450   4.122   1.174  0.2282  0.7880  0.5343
30512SOL    HW194074   7.452   4.215   1.152 -0.6047  0.9917  1.2966
30512SOL    HW294075   7.443   4.078   1.089  0.6434  1.4210  0.1678
30513SOL     OW94076   6.753   7.575   2.444 -0.3187 -0.0048  0.2948
30513SOL    HW194077   6.763   7.661   2.403  0.0154 -0.1261  0.1198
30513SOL    HW294078   6.661   7.570   2.467 -0.8606 -0.5920 -1.8940
30514SOL     OW94079   8.892   3.309   2.469  0.3225 -0.0649  0.6503
30514SOL    HW194080   8.847   3.352   2.542  1.6826  1.3288  0.7154
30514SOL    HW294081   8.975   3.280   2.507  0.6016 -0.2434 -0.0901
30515SOL     OW94082   8.902   6.997   6.596 -0.2792 -0.0931 -0.1638
30515SOL    HW194083   8.956   6.927   6.560  1.1637  0.3168  1.1318
30515SOL    HW294084   8.946   7.022   6.677 -0.7058  2.3735 -0.6415
30516SOL     OW94085   4.845   8.595   8.674 -0.1588 -0.1668  0.3257
30516SOL    HW194086   4.859   8.552   8.589 -0.2772  1.2842 -0.4441
30516SOL    HW294087   4.907   8.668   8.675  0.4542 -0.6918  1.8767
30517SOL     OW94088   4.352   7.205   6.952 -0.3587  1.0249  0.1772
30517SOL    HW194089   4.312   7.256   6.881 -2.3785 -1.5934 -0.6361
30517SOL    HW294090   4.427   7.161   6.912 -2.2922 -1.5306 -0.7632
30518SOL     OW94091   8.758   2.554   4.668  0.0011 -0.5528  0.0616
30518SOL    HW194092   8.774   2.595   4.583 -3.0661 -0.7768 -0.7178
30518SOL    HW294093   8.843   2.522   4.696  1.7297  2.6733 -1.2351
30519SOL     OW94094   6.685   7.084   9.309  0.2805 -0.6357  0.0697
30519SOL    HW194095   6.732   7.007   9.340  2.1458 -0.3571 -1.9629
30519SOL    HW294096   6.740   7.120   9.239 -1.4410  1.4953 -0.2609
30520SOL     OW94097   7.938   9.307   7.304  0.0258  0.1776 -0.1995
30520SOL    HW194098   7.846   9.333   7.293  0.6199  1.5117 -2.2369
30520SOL    HW294099   7.946   9.225   7.254  0.0282  0.2442 -0.3085
30521SOL     OW94100   5.425   7.966   5.234  0.4679  0.8712  0.4935
30521SOL    HW194101   5.497   7.945   5.175  2.5956  0.4596  3.1201
30521SOL    HW294102   5.404   8.058   5.215  1.8508  1.0714 -0.1422
30522SOL     OW94103   1.152   0.602   8.749  0.4816 -0.2204  1.3683
30522SOL    HW194104   1.065   0.639   8.765 -0.5865 -1.5193 -1.0802
30522SOL    HW294105   1.212   0.675   8.759 -1.1397  1.2152  0.8377
30523SOL     OW94106   1.862   5.577   6.742  0.7041  0.5542  0.0569
30523SOL    HW194107   1.789   5.538   6.694  0.2553  0.3250  0.9053
30523SOL    HW294108   1.821   5.620   6.817  1.2179  2.4293 -0.6933
30524SOL     OW94109   9.123   6.701   1.169 -0.2924  0.8919  0.3642
30524SOL    HW194110   9.194   6.645   1.138 -1.3867  0.0275 -0.6460
30524SOL    HW294111   9.129   6.779   1.115 -1.5003 -0.1454 -1.3286
30525SOL     OW94112   7.293   4.027   9.278 -0.2346 -0.0407  0.6687
30525SOL    HW194113   7.304   4.122   9.275  1.1846 -0.1958  0.4964
30525SOL    HW294114   7.326   3.997   9.194 -0.1728 -0.7391  0.9434
30526SOL     OW94115   2.586   8.532   5.057 -0.3476  0.7119 -0.2188
30526SOL    HW194116   2.673   8.564   5.081  1.6381 -3.9239 -0.6502
30526SOL    HW294117   2.588   8.530   4.961  0.1163 -1.9196 -0.1797
30527SOL     OW94118   3.868   9.496   6.063 -0.2893  0.2389  0.5079
30527SOL    HW194119   3.863   9.447   6.145 -0.2161  1.1115  1.0380
30527SOL    HW294120   3.794   9.464   6.011 -1.4471  1.0207  1.6587
30528SOL     OW94121   8.816   5.451   7.171  0.8923  0.6673 -0.4143
30528SOL    HW194122   8.903   5.425   7.144  1.0135  1.4982 -0.8520
30528SOL    HW294123   8.779   5.496   7.095 -1.0336 -2.2170 -1.2938
30529SOL     OW94124   9.490   3.961   1.746 -0.1479 -0.2045 -0.1449
30529SOL    HW194125   9.414   4.018   1.757 -0.0055 -0.0113 -0.1628
30529SOL    HW294126   9.470   3.884   1.798  0.5417  0.7058  1.4925
30530SOL     OW94127   3.322   7.527   5.438 -0.0972  0.5391 -0.1629
30530SOL    HW194128   3.360   7.489   5.359  0.7808 -0.9525  0.9386
30530SOL    HW294129   3.374   7.491   5.509 -1.2177  1.4317  1.1440
30531SOL     OW94130   6.951   1.345   7.302 -0.3724  0.1812  0.1406
30531SOL    HW194131   6.921   1.315   7.388  0.1709 -0.0756  0.2422
30531SOL    HW294132   6.947   1.440   7.307  1.1163  0.2236  0.9821
30532SOL     OW94133   0.544   3.015   4.281 -0.3629 -0.2314  0.2693
30532SOL    HW194134   0.552   3.022   4.376  0.8155 -0.9461  0.2366
30532SOL    HW294135   0.604   3.082   4.247 -0.4070 -0.3146  0.0250
30533SOL     OW94136   5.180   5.919   6.106 -0.5013  0.0483 -1.1252
30533SOL    HW194137   5.174   5.866   6.185  0.9410  0.9897 -0.3506
30533SOL    HW294138   5.122   5.993   6.121  1.6880  1.5446  0.1508
30534SOL     OW94139   1.783   6.729   2.900 -0.5417 -0.3367  0.2948
30534SOL    HW194140   1.731   6.759   2.973 -1.8607 -1.5915 -0.0992
30534SOL    HW294141   1.760   6.636   2.891  1.0781 -0.6807 -0.4539
30535SOL     OW94142   4.290   5.643   7.704  0.2116  0.5185 -0.7334
30535SOL    HW194143   4.223   5.586   7.742 -0.7546  1.2580 -1.3169
30535SOL    HW294144   4.357   5.582   7.671  1.1163 -0.1426  2.1912
30536SOL     OW94145   0.351   5.545   3.523 -0.1132  0.5893 -0.4222
30536SOL    HW194146   0.419   5.612   3.518  1.5951 -0.8665  2.2894
30536SOL    HW294147   0.304   5.566   3.604 -0.2096 -0.8660 -0.0964
30537SOL     OW94148   8.483   2.499   2.787 -0.2217 -0.0080  0.6602
30537SOL    HW194149   8.570   2.501   2.748  0.5774  0.0815  2.3876
30537SOL    HW294150   8.454   2.590   2.788 -0.3528 -0.0446  0.0339
30538SOL     OW94151   6.537   3.876   2.305 -0.2862 -0.0893  0.0605
30538SOL    HW194152   6.511   3.841   2.390 -0.3240  3.8812  1.7827
30538SOL    HW294153   6.625   3.910   2.319 -0.0358 -0.0003 -1.6771
30539SOL     OW94154   8.016   2.585   1.160  0.6477 -0.3352  0.2455
30539SOL    HW194155   8.041   2.522   1.228 -0.0869 -0.4098  0.4534
30539SOL    HW294156   8.065   2.664   1.181  0.1128 -0.2228  1.1139
30540SOL     OW94157   9.845   5.617   6.624  0.4686 -0.7702 -0.5605
30540SOL    HW194158   9.749   5.619   6.621  0.4826  2.4612 -1.3465
30540SOL    HW294159   9.871   5.582   6.539  0.0112 -1.3414 -0.4721
30541SOL     OW94160   7.258   3.053   0.118 -0.4680  0.2879  0.1020
30541SOL    HW194161   7.312   3.043   0.196 -1.4283 -1.7946  0.5369
30541SOL    HW294162   7.319   3.077   0.049  0.5544  1.0032  1.2486
30542SOL     OW94163   1.241  10.069   5.219  0.0745 -0.0578  0.0700
30542SOL    HW194164   1.249   9.997   5.156  1.8119  0.0542  0.1332
30542SOL    HW294165   1.199  10.030   5.295  1.1137 -1.0503  0.1508
30543SOL     OW94166   5.971   2.256   1.188  0.1066 -0.8225  0.5386
30543SOL    HW194167   6.008   2.341   1.211  1.3762 -0.9860 -0.8217
30543SOL    HW294168   5.876   2.267   1.199  0.1524  1.1686 -0.8651
30544SOL     OW94169   3.458   9.070   8.786 -0.1083  0.0334  0.4037
30544SOL    HW194170   3.508   9.049   8.707 -0.2961 -0.7511  0.4798
30544SOL    HW294171   3.522   9.107   8.846 -0.2349  1.9317 -0.6137
30545SOL     OW94172   4.805   7.299   9.604  0.3321 -0.2960 -0.1430
30545SOL    HW194173   4.807   7.374   9.663  0.1820 -0.4079  0.0051
30545SOL    HW294174   4.848   7.229   9.653  0.4591 -0.3101 -0.2763
30546SOL     OW94175   9.079   7.848   4.461 -1.0282  0.3502  0.1520
30546SOL    HW194176   9.089   7.943   4.472  0.8500 -0.0778  2.5774
30546SOL    HW294177   9.086   7.813   4.550 -0.3080 -2.1786 -0.8617
30547SOL     OW94178   4.953   8.539   0.440  0.0542  0.4551  0.1908
30547SOL    HW194179   5.019   8.596   0.478  1.1523 -1.6583  1.5346
30547SOL    HW294180   4.894   8.517   0.512 -1.4685  1.3652 -0.7293
30548SOL     OW94181   0.758   4.133   1.294 -0.3304  0.0838  0.2923
30548SOL    HW194182   0.774   4.094   1.380  0.1344 -2.9663 -1.1168
30548SOL    HW294183   0.818   4.207   1.290 -0.7601  0.6104  2.8096
30549SOL     OW94184   1.254   9.178   7.847 -0.6882  0.4690 -0.0468
30549SOL    HW194185   1.215   9.160   7.762 -0.0689 -0.7507 -0.0857
30549SOL    HW294186   1.298   9.262   7.836 -0.3024  0.1506 -1.0487
30550SOL     OW94187   1.597   6.987   7.397  0.1258  0.2636 -1.3053
30550SOL    HW194188   1.658   7.060   7.404  0.5498 -0.2388  0.6884
30550SOL    HW294189   1.645   6.912   7.431 -2.0081  0.1528  1.7105
30551SOL     OW94190   3.223   1.656   2.304 -0.3152 -0.1151  0.6167
30551SOL    HW194191   3.151   1.691   2.357  0.5982  0.1263  1.7173
30551SOL    HW294192   3.278   1.731   2.286 -0.8602 -0.1098 -1.1031
30552SOL     OW94193   0.397   3.077   2.332 -0.5026 -0.0076 -0.1044
30552SOL    HW194194   0.383   3.170   2.348 -0.1543  0.0757 -0.2691
30552SOL    HW294195   0.372   3.065   2.240  0.4358  0.1320 -0.3855
30553SOL     OW94196   1.513   1.513   4.870  0.5121 -0.3530 -0.1286
30553SOL    HW194197   1.484   1.426   4.844 -0.2506 -0.1999  0.2031
30553SOL    HW294198   1.590   1.497   4.925  1.0711 -0.7574 -1.0169
30554SOL     OW94199   5.700   7.274   0.402 -0.3919 -0.4946 -0.1013
30554SOL    HW194200   5.678   7.227   0.321 -0.2460 -0.3015 -0.2536
30554SOL    HW294201   5.616   7.283   0.447 -0.1108 -2.7977  0.9564
30555SOL     OW94202   9.874   6.984   7.944 -0.2375 -0.2329 -0.2591
30555SOL    HW194203   9.821   6.909   7.971  0.1321 -1.1714 -2.0009
30555SOL    HW294204   9.814   7.040   7.896 -0.0116 -0.5845 -0.9730
30556SOL     OW94205   3.333   2.998   2.302 -0.3962 -0.0748  0.7690
30556SOL    HW194206   3.282   3.026   2.226 -1.6555 -0.2444  1.5569
30556SOL    HW294207   3.282   2.928   2.342  0.3073 -0.0485  1.7264
30557SOL     OW94208   2.228   9.442   6.259  0.2453  0.3392  0.3370
30557SOL    HW194209   2.249   9.362   6.212 -0.6943  1.0052 -1.2669
30557SOL    HW294210   2.181   9.413   6.337 -0.5747 -0.6381 -0.5149
30558SOL     OW94211   6.344   2.867   8.069  0.1676  0.7572  0.2874
30558SOL    HW194212   6.340   2.923   8.146  1.3676  1.4360 -0.1300
30558SOL    HW294213   6.412   2.803   8.088 -0.1940  0.3309  0.1730
30559SOL     OW94214   0.384   8.385   3.061 -0.2831  0.5346  0.7056
30559SOL    HW194215   0.467   8.341   3.077 -1.0265 -0.5814  1.5997
30559SOL    HW294216   0.344   8.393   3.148 -0.9488  1.3925  0.3321
30560SOL     OW94217   0.408   5.201   8.489 -0.4371 -0.2404 -0.1984
30560SOL    HW194218   0.326   5.233   8.452 -0.6119  1.2816  1.4344
30560SOL    HW294219   0.382   5.153   8.568  0.3400  1.8146  1.3530
30561SOL     OW94220   1.680   1.717   5.919 -0.4438  0.0723  0.2861
30561SOL    HW194221   1.751   1.654   5.903 -1.3637 -1.4900  2.2147
30561SOL    HW294222   1.637   1.727   5.834  0.4051 -1.0430 -0.2782
30562SOL     OW94223   6.720   5.286   7.206 -0.1892 -0.7855 -0.1430
30562SOL    HW194224   6.806   5.258   7.177 -0.1711 -1.1347  0.2457
30562SOL    HW294225   6.675   5.313   7.126  0.3344 -0.4470 -0.3295
30563SOL     OW94226   3.731   5.082   9.233 -0.1390  0.3614 -0.2762
30563SOL    HW194227   3.731   5.134   9.313 -1.2234 -1.9495  1.2787
30563SOL    HW294228   3.665   5.015   9.248 -0.5053 -0.0027 -3.2076
30564SOL     OW94229   6.817   8.448   6.067  0.0634 -0.2718 -0.6618
30564SOL    HW194230   6.747   8.469   6.006  0.5523  0.3057 -1.0322
30564SOL    HW294231   6.830   8.528   6.117  1.0993 -0.0686 -1.2411
30565SOL     OW94232   3.561   6.668   6.782 -0.0963  0.1317  0.0241
30565SOL    HW194233   3.567   6.603   6.712 -1.6799 -0.5280  0.4780
30565SOL    HW294234   3.538   6.617   6.860  1.3828  0.8910  0.9758
30566SOL     OW94235   5.098   6.641   1.111 -0.1543 -0.2144 -0.0085
30566SOL    HW194236   5.183   6.681   1.129 -0.4046  0.4410 -0.2734
30566SOL    HW294237   5.072   6.602   1.195 -0.5006  1.3111  0.6203
30567SOL     OW94238   6.826   8.127   3.141 -0.7209  0.1422  0.3606
30567SOL    HW194239   6.868   8.212   3.151  1.3251 -0.6638 -0.9772
30567SOL    HW294240   6.739   8.138   3.180 -0.9250  3.1398 -0.8103
30568SOL     OW94241   6.747   8.548   4.858  0.6539 -0.2304  0.5897
30568SOL    HW194242   6.713   8.582   4.941  0.7706  0.6893  0.2558
30568SOL    HW294243   6.818   8.606   4.834  0.8104 -0.6618 -0.0184
30569SOL     OW94244   8.764   1.954   8.066 -0.0497 -0.1855  0.8214
30569SOL    HW194245   8.813   2.002   8.133  1.5461 -1.2968  0.4766
30569SOL    HW294246   8.793   1.863   8.076 -0.2379 -0.4532 -0.9958
30570SOL     OW94247   7.779   7.525   7.737 -0.1264  0.2280 -0.1191
30570SOL    HW194248   7.824   7.561   7.660 -0.8576  0.0395 -0.6366
30570SOL    HW294249   7.825   7.564   7.812  0.9655 -0.0331 -0.6409
30571SOL     OW94250   9.681   2.427   4.790  0.0796  0.3871  0.3291
30571SOL    HW194251   9.592   2.408   4.762  0.7957  0.4038 -2.0698
30571SOL    HW294252   9.700   2.514   4.753  1.5873 -0.2449 -0.4588
30572SOL     OW94253  10.096   1.712   0.289  0.4153 -0.2168 -0.4375
30572SOL    HW194254  10.073   1.741   0.377  1.4659 -0.7204  0.0150
30572SOL    HW294255  10.038   1.762   0.231  1.2088  1.7403  0.4153
30573SOL     OW94256   1.861   2.737  10.165 -0.4483  0.4071 -0.0162
30573SOL    HW194257   1.851   2.645  10.192 -0.4270  0.3400 -0.2379
30573SOL    HW294258   1.825   2.787  10.239  2.6203  0.3391  1.6098
30574SOL     OW94259   2.536   0.043   1.474  0.1572  0.3348 -0.2770
30574SOL    HW194260   2.499   0.127   1.446 -0.7751  0.0329  0.0355
30574SOL    HW294261   2.543  -0.009   1.394  0.0501  0.4419 -0.3550
30575SOL     OW94262   7.426   2.808   6.103 -0.3102 -0.7158 -0.1797
30575SOL    HW194263   7.434   2.759   6.021 -0.2127 -1.3112  0.1801
30575SOL    HW294264   7.333   2.799   6.127 -0.1026 -1.5025  0.3573
30576SOL     OW94265   8.610   6.625   5.060 -0.3058  0.7752  0.4325
30576SOL    HW194266   8.540   6.674   5.016 -0.8318  0.2668  0.6921
30576SOL    HW294267   8.594   6.534   5.036 -1.4304  0.3178  2.7802
30577SOL     OW94268   4.978   2.075   8.238 -0.1901  0.3891 -0.3304
30577SOL    HW194269   4.944   1.995   8.279  0.8221  0.1892  0.1420
30577SOL    HW294270   5.015   2.125   8.311 -1.7816  1.7867 -0.4727
30578SOL     OW94271   5.661   1.427   6.384 -0.0808  0.3319  0.2328
30578SOL    HW194272   5.752   1.457   6.390 -0.0676  0.3496 -0.0419
30578SOL    HW294273   5.618   1.492   6.328 -0.5127  0.8964  1.2024
30579SOL     OW94274   5.356   8.370   7.146 -0.0172 -0.3915 -0.0981
30579SOL    HW194275   5.383   8.423   7.221  1.3934  0.3463 -1.0826
30579SOL    HW294276   5.431   8.375   7.086 -1.0644 -1.0661 -1.4878
30580SOL     OW94277   8.331   0.651   5.543 -0.4237  0.4372  0.2243
30580SOL    HW194278   8.247   0.651   5.497  0.2028  1.1823 -0.9453
30580SOL    HW294279   8.396   0.636   5.475  0.2319 -2.9348  1.5087
30581SOL     OW94280   1.184   0.450   0.529  0.6192  0.5081 -0.2568
30581SOL    HW194281   1.118   0.486   0.588  0.2723  0.3462 -0.5511
30581SOL    HW294282   1.188   0.357   0.551  1.7863  0.7852  0.7654
30582SOL     OW94283   6.537   2.546   6.751 -0.6508  0.1022 -0.5393
30582SOL    HW194284   6.615   2.597   6.729  0.0833 -1.3196 -1.3088
30582SOL    HW294285   6.464   2.600   6.719 -0.0438  1.6853  0.6463
30583SOL     OW94286  10.091   6.111   4.196  0.2962 -0.2219 -0.4520
30583SOL    HW194287  10.106   6.062   4.277 -0.5869 -0.6511 -0.5376
30583SOL    HW294288  10.156   6.077   4.135 -0.9206 -2.0188 -0.8092
30584SOL     OW94289   7.597   8.176   7.820 -0.2394  0.3272  0.0894
30584SOL    HW194290   7.599   8.270   7.835 -0.0677  0.5522 -1.3082
30584SOL    HW294291   7.505   8.152   7.828 -0.2891  0.6190  0.3885
30585SOL     OW94292   7.117   4.015   7.518 -0.3541  0.0240 -0.2212
30585SOL    HW194293   7.140   3.934   7.563  2.2521  0.6804 -0.2904
30585SOL    HW294294   7.149   4.003   7.429  1.4654  1.7196  0.1855
30586SOL     OW94295   7.570   1.062   0.562  0.0715 -0.0576  0.4400
30586SOL    HW194296   7.549   1.076   0.655 -0.2909 -1.5496  0.5903
30586SOL    HW294297   7.651   1.012   0.563 -0.5843 -1.1409 -0.0246
30587SOL     OW94298   5.635   7.457   6.926 -0.3803  0.0307  0.2995
30587SOL    HW194299   5.674   7.542   6.947  1.6531 -0.5050 -1.1061
30587SOL    HW294300   5.567   7.444   6.992  1.2912  1.3874  2.3534
30588SOL     OW94301   4.617   6.819   7.102 -0.3492 -0.5161  0.1684
30588SOL    HW194302   4.553   6.803   7.032 -1.4632  1.7366  0.6098
30588SOL    HW294303   4.571   6.794   7.182 -0.2755 -0.0071  0.3755
30589SOL     OW94304   2.112   8.932   9.289 -0.0873 -0.3889  0.5774
30589SOL    HW194305   2.020   8.929   9.316 -0.2254 -1.2847  0.0436
30589SOL    HW294306   2.116   9.003   9.225  0.0402  1.0829  2.1943
30590SOL     OW94307   0.660   8.415   5.253 -0.1062 -0.2887  0.0398
30590SOL    HW194308   0.652   8.328   5.293  3.0542 -0.2961  0.7873
30590SOL    HW294309   0.702   8.398   5.168 -0.0436  0.4662 -0.0802
30591SOL     OW94310   6.159   8.989   2.965 -0.2721  0.4147 -0.3673
30591SOL    HW194311   6.099   9.062   2.980 -0.3743 -0.0353  1.4147
30591SOL    HW294312   6.113   8.912   2.996 -0.2016 -0.4541 -2.3513
30592SOL     OW94313   7.395   0.068   0.782  1.2858  0.0075 -0.2638
30592SOL    HW194314   7.303   0.068   0.809  1.9000 -3.6123  2.2605
30592SOL    HW294315   7.439   0.122   0.848  1.2260  0.2618 -0.4321
30593SOL     OW94316   8.802   3.800   3.886  0.5711  0.0893 -0.4116
30593SOL    HW194317   8.821   3.713   3.849 -1.6356  0.5643 -2.7998
30593SOL    HW294318   8.710   3.797   3.909  1.1368  0.9322  2.0621
30594SOL     OW94319   6.099   4.795   0.018  0.1419 -0.0636  0.2984
30594SOL    HW194320   6.024   4.759  -0.028 -0.4319  0.2322  0.9906
30594SOL    HW294321   6.173   4.741  -0.011 -0.5941 -1.3801  0.8321
30595SOL     OW94322   3.905   0.867   9.781  0.1356 -0.1980 -0.0110
30595SOL    HW194323   3.927   0.817   9.860  1.4957 -1.2158 -0.9916
30595SOL    HW294324   3.890   0.956   9.812  0.1316 -0.6985  1.4650
30596SOL     OW94325   3.070   0.233   8.378 -0.1329 -0.1675 -0.4387
30596SOL    HW194326   3.007   0.161   8.376 -0.4314  0.0078  1.1916
30596SOL    HW294327   3.088   0.246   8.471  0.5365  1.3254 -0.7539
30597SOL     OW94328   1.169   3.511   7.535 -0.2644 -0.3096 -0.3560
30597SOL    HW194329   1.236   3.558   7.485  2.0946 -1.4013  1.6707
30597SOL    HW294330   1.201   3.421   7.538 -1.8484 -0.8525  0.6474
30598SOL     OW94331   5.655   8.079   3.422  0.4644  0.0956 -0.0678
30598SOL    HW194332   5.688   8.099   3.509 -1.0468 -1.5873  0.9173
30598SOL    HW294333   5.639   7.985   3.423 -2.5206  0.5271 -1.1130
30599SOL     OW94334   8.802   0.458   2.601  0.5786  0.2286 -0.1964
30599SOL    HW194335   8.834   0.418   2.520  0.2446  0.2189 -0.3258
30599SOL    HW294336   8.879   0.498   2.640  1.0316 -1.0461  0.2312
30600SOL     OW94337   0.334   2.344   1.835  0.1050 -0.4932 -0.2478
30600SOL    HW194338   0.380   2.346   1.919  2.0047  0.4650 -1.2821
30600SOL    HW294339   0.283   2.425   1.833  0.0091 -0.5466 -0.0061
30601SOL     OW94340   7.186   3.618   5.506 -0.3134  0.1498 -0.2289
30601SOL    HW194341   7.213   3.644   5.418  1.5911  0.6369  0.4700
30601SOL    HW294342   7.151   3.530   5.496  1.3677 -0.4126 -1.2307
30602SOL     OW94343   8.831   2.768   1.486  0.4317 -0.2150  0.5281
30602SOL    HW194344   8.822   2.861   1.506 -0.0902 -0.1818  0.1755
30602SOL    HW294345   8.915   2.760   1.441  0.3942  0.1164  0.4008
30603SOL     OW94346   9.056   4.641   0.894  0.1026  0.3782 -0.0034
30603SOL    HW194347   8.989   4.688   0.845 -0.0802 -1.5081 -1.6120
30603SOL    HW294348   9.139   4.681   0.866 -0.1038  0.2486 -0.8204
30604SOL     OW94349   8.049   3.423   4.456  0.0775  0.4061 -0.4872
30604SOL    HW194350   7.985   3.481   4.496  0.6320 -1.1911  2.9369
30604SOL    HW294351   8.134   3.466   4.470  0.0747  0.9120 -1.9878
30605SOL     OW94352   5.339   6.536   6.152 -0.1524 -0.0191  0.3273
30605SOL    HW194353   5.309   6.459   6.103 -1.8352  0.8652 -0.0630
30605SOL    HW294354   5.406   6.575   6.096 -0.6839 -0.1063 -0.3765
30606SOL     OW94355   8.267   7.129   8.827 -0.1953 -0.3622  0.2218
30606SOL    HW194356   8.336   7.145   8.762  1.0313 -0.1958  1.5314
30606SOL    HW294357   8.291   7.185   8.901 -1.5590 -0.5684  0.8292
30607SOL     OW94358   2.084   2.851   0.971  0.1103  0.4800  0.0284
30607SOL    HW194359   2.051   2.843   1.060  0.1683 -1.6738 -0.1185
30607SOL    HW294360   2.177   2.827   0.977 -0.7856 -3.6812 -1.2061
30608SOL     OW94361   1.556   9.363   6.587 -0.2140 -0.1239  0.2239
30608SOL    HW194362   1.503   9.353   6.508  1.6903 -0.3805 -1.0593
30608SOL    HW294363   1.550   9.277   6.630  0.2342 -0.5785 -0.6075
30609SOL     OW94364   7.342   5.689   8.889 -0.3516  0.5064 -0.1088
30609SOL    HW194365   7.412   5.755   8.883  0.1622  0.1086  1.3932
30609SOL    HW294366   7.380   5.611   8.848  0.8806 -0.3417  2.5603
30610SOL     OW94367   6.283   7.033   5.973 -0.4471  0.0292  0.2751
30610SOL    HW194368   6.298   7.049   5.880  3.1613 -1.3668  0.5475
30610SOL    HW294369   6.331   7.103   6.017  0.6178 -1.2383  1.1371
30611SOL     OW94370   7.907   9.581   6.761 -0.5629  0.0961  0.3896
30611SOL    HW194371   7.951   9.664   6.777  0.4291 -0.5498  1.0267
30611SOL    HW294372   7.969   9.530   6.708 -0.2201 -1.0936  1.9021
30612SOL     OW94373   9.076   3.367   0.885 -0.8069 -0.1533  0.2151
30612SOL    HW194374   9.008   3.343   0.948  1.1459  0.5380  2.6734
30612SOL    HW294375   9.157   3.336   0.925  0.4748  0.1083 -2.0904
30613SOL     OW94376   8.913   3.908   2.422  0.0176 -0.1759 -0.4144
30613SOL    HW194377   8.935   3.842   2.357 -0.5284 -0.3022 -0.4693
30613SOL    HW294378   8.817   3.911   2.423 -0.0031 -0.7048  0.9083
30614SOL     OW94379   8.522   2.343   2.536 -0.5518  0.1588  0.1005
30614SOL    HW194380   8.476   2.359   2.454  1.4850  1.1164 -0.8966
30614SOL    HW294381   8.462   2.374   2.604 -1.8543  0.2497 -1.0901
30615SOL     OW94382   1.269   7.115   8.779  0.0362  0.1786 -0.4057
30615SOL    HW194383   1.356   7.134   8.744 -0.2680  0.5976 -0.9412
30615SOL    HW294384   1.227   7.200   8.787 -0.5022 -0.0624 -0.6157
30616SOL     OW94385   4.167   2.138   4.709  0.1668 -0.7309 -0.1695
30616SOL    HW194386   4.096   2.140   4.772  0.3369  0.2528  0.0150
30616SOL    HW294387   4.246   2.123   4.762  0.3152  0.1385 -0.1217
30617SOL     OW94388  10.107   4.724   9.168 -1.0355 -0.1087  0.5899
30617SOL    HW194389  10.091   4.818   9.165  0.0895  0.0856  0.5321
30617SOL    HW294390  10.202   4.715   9.157 -0.9762 -1.1834  1.8032
30618SOL     OW94391   2.087   1.193   4.315  0.8321 -0.4202  1.0830
30618SOL    HW194392   2.035   1.152   4.384  1.3352  0.1575  1.8111
30618SOL    HW294393   2.082   1.287   4.334 -1.4508 -0.0032 -1.3556
30619SOL     OW94394   2.041   1.597   0.337 -0.7109 -0.4290  0.3015
30619SOL    HW194395   2.063   1.580   0.245 -0.1739  1.8629 -0.0176
30619SOL    HW294396   1.956   1.640   0.334  0.1391  1.3214  0.7346
30620SOL     OW94397   0.805   5.281   7.710 -0.2530 -0.7443 -0.5663
30620SOL    HW194398   0.815   5.244   7.798  1.1731  0.5931 -0.1424
30620SOL    HW294399   0.755   5.215   7.662 -2.5487 -0.7520  1.7081
30621SOL     OW94400   7.068   5.103  10.016  0.4012 -0.1849  0.6004
30621SOL    HW194401   7.053   5.196  10.036  1.7541  0.1758  0.0009
30621SOL    HW294402   7.068   5.060  10.101 -2.7913 -0.0593  0.7447
30622SOL     OW94403   8.601   7.989   9.499 -0.1021 -0.0600  0.0128
30622SOL    HW194404   8.626   7.940   9.577  0.2194  1.0806  0.6537
30622SOL    HW294405   8.657   8.067   9.502 -0.8502  0.5065 -0.7765
30623SOL     OW94406  10.048   2.272   6.059 -0.3823 -0.0623 -0.1598
30623SOL    HW194407  10.136   2.271   6.023  0.2780 -1.7036  1.4352
30623SOL    HW294408  10.019   2.363   6.049  1.2628  0.3785 -1.1618
30624SOL     OW94409   2.205   9.071  10.174 -0.0333  0.1112 -0.4320
30624SOL    HW194410   2.225   9.122  10.096  1.0511 -0.3237 -0.4467
30624SOL    HW294411   2.155   8.996  10.141 -1.2532  0.9238 -0.4600
30625SOL     OW94412   4.545   6.037   1.934  0.4842  0.5630  0.3184
30625SOL    HW194413   4.597   6.117   1.926  0.8720  0.2249 -0.6520
30625SOL    HW294414   4.568   5.986   1.856 -0.9951  0.2333  0.0854
30626SOL     OW94415   0.744   5.825   1.322 -0.0522 -0.0130  0.1106
30626SOL    HW194416   0.704   5.738   1.328 -0.0728 -0.0175 -0.0796
30626SOL    HW294417   0.834   5.813   1.352  0.0187 -0.1526 -0.1560
30627SOL     OW94418   1.238   8.421   8.091 -0.2929  0.4284  0.0789
30627SOL    HW194419   1.237   8.327   8.108  1.1193  0.4677  0.4679
30627SOL    HW294420   1.180   8.432   8.015  1.2597 -1.0614 -1.3981
30628SOL     OW94421   8.608   8.037   3.283  0.5081 -0.4219  0.4438
30628SOL    HW194422   8.603   8.132   3.297  1.1958 -0.0501 -1.7038
30628SOL    HW294423   8.547   8.001   3.347 -1.7521  1.6574 -0.4504
30629SOL     OW94424   6.339   6.960   2.764 -0.1991  0.2872  0.1053
30629SOL    HW194425   6.247   6.942   2.784 -0.3066  0.1549 -0.5081
30629SOL    HW294426   6.388   6.893   2.813 -0.5820 -1.5587 -1.9457
30630SOL     OW94427   3.031   8.366   6.276 -0.0851 -0.1409 -0.3822
30630SOL    HW194428   3.040   8.381   6.182 -1.2814 -0.7774 -0.6123
30630SOL    HW294429   2.941   8.334   6.286  0.0973 -0.2431  0.9554
30631SOL     OW94430   5.225   1.323  10.144  0.3103  1.1557  0.7750
30631SOL    HW194431   5.258   1.361  10.063 -0.8429  2.5834  0.9594
30631SOL    HW294432   5.284   1.249  10.161  0.4113  0.6909 -1.4657
30632SOL     OW94433   9.589   5.332   8.701 -0.0459 -0.3860 -0.0915
30632SOL    HW194434   9.614   5.368   8.786  1.2763 -0.3361 -0.4854
30632SOL    HW294435   9.611   5.402   8.639  0.3011 -0.9634 -0.6181
30633SOL     OW94436   3.380   9.185   5.811  0.6285  0.1899  0.7571
30633SOL    HW194437   3.429   9.232   5.878  1.7244  0.8005 -0.4630
30633SOL    HW294438   3.446   9.152   5.751 -0.4515  1.1101 -0.9669
30634SOL     OW94439   0.306   4.454  10.059 -0.0380 -0.0300  0.4775
30634SOL    HW194440   0.280   4.373  10.103 -0.2726 -0.8588 -1.1791
30634SOL    HW294441   0.240   4.467   9.991  0.2327  1.3331  0.4585
30635SOL     OW94442   5.939   4.653   6.057  0.2305  0.3827 -0.1379
30635SOL    HW194443   5.891   4.615   5.983  1.7956 -0.6376 -0.6544
30635SOL    HW294444   5.878   4.717   6.094 -1.5211 -0.8822 -0.7574
30636SOL     OW94445   1.343   6.040   4.114 -0.0967  0.3653  0.3161
30636SOL    HW194446   1.253   6.068   4.093 -0.5786  1.4747  3.6596
30636SOL    HW294447   1.396   6.082   4.047 -1.9301  0.7796 -0.9315
30637SOL     OW94448   9.257   4.088   9.340 -0.5601 -0.5033  0.0008
30637SOL    HW194449   9.344   4.054   9.360 -0.5176  0.2341  1.1300
30637SOL    HW294450   9.273   4.170   9.295 -0.6579 -0.1133  0.6613
30638SOL     OW94451   3.840   1.795   5.820  0.9693 -0.1083 -0.6281
30638SOL    HW194452   3.932   1.776   5.803  1.0244  1.0899 -1.7828
30638SOL    HW294453   3.841   1.877   5.869  0.4913  0.4911 -1.6023
30639SOL     OW94454   2.398   9.418   4.039 -0.2471 -0.7178  0.2517
30639SOL    HW194455   2.320   9.462   4.073  1.2457  2.7602 -0.5336
30639SOL    HW294456   2.375   9.397   3.948 -0.3257  0.2077  0.0497
30640SOL     OW94457   3.445   4.591  10.180  0.4520 -0.2501  0.3933
30640SOL    HW194458   3.484   4.595  10.267  0.0390  0.3151  0.5513
30640SOL    HW294459   3.354   4.567  10.196  0.4009 -0.2487  0.1035
30641SOL     OW94460   0.332   1.578   1.194  0.0340 -0.0668  0.1014
30641SOL    HW194461   0.253   1.598   1.144  0.0677  0.9755  0.4476
30641SOL    HW294462   0.390   1.653   1.179  0.0866  0.2127  1.6023
30642SOL     OW94463   1.033   5.261   7.231 -0.7081 -0.4203  0.5707
30642SOL    HW194464   1.007   5.321   7.300  2.3100  0.3937  1.0579
30642SOL    HW294465   1.067   5.317   7.161 -0.8228 -1.4012 -0.2874
30643SOL     OW94466   0.581   2.858   3.391 -0.4505  0.2366  0.1198
30643SOL    HW194467   0.517   2.908   3.340  0.8180  0.4343 -1.3369
30643SOL    HW294468   0.529   2.803   3.449 -1.9007  1.5088  0.0365
30644SOL     OW94469   7.129   3.302   9.743  0.4572 -0.1694 -0.2627
30644SOL    HW194470   7.145   3.225   9.688 -0.0835 -1.2449  1.0581
30644SOL    HW294471   7.207   3.356   9.732  0.1331 -0.1085 -2.5005
30645SOL     OW94472   5.908   3.441   3.338  0.4116 -0.2190 -0.3524
30645SOL    HW194473   5.913   3.528   3.298 -0.3598 -0.2824 -0.5959
30645SOL    HW294474   5.822   3.439   3.379  1.0770 -0.2579  1.0909
30646SOL     OW94475   8.288   9.693   9.303  0.1369 -0.1233  0.6735
30646SOL    HW194476   8.262   9.771   9.353 -1.8458  1.5657 -2.7702
30646SOL    HW294477   8.213   9.634   9.310 -0.3288  0.2972 -0.5647
30647SOL     OW94478   2.318   8.819   9.420  0.1047  0.5851  0.0520
30647SOL    HW194479   2.367   8.902   9.419  1.0401  0.0388 -0.8205
30647SOL    HW294480   2.232   8.843   9.387  0.7228  1.0348 -1.3176
30648SOL     OW94481   9.511   5.357   9.019 -0.2087  0.0187  0.5209
30648SOL    HW194482   9.589   5.401   9.054 -1.4692  1.9210  1.0245
30648SOL    HW294483   9.497   5.283   9.078 -0.6293  1.5285  2.3713
30649SOL     OW94484   8.051   7.917   0.824  0.0720  0.0684  0.0832
30649SOL    HW194485   8.093   7.993   0.783 -1.3628  0.9160  0.1200
30649SOL    HW294486   7.982   7.892   0.763 -0.8630  0.1596  1.0856
30650SOL     OW94487   7.249   8.189   8.502 -0.1665  0.0796 -0.6102
30650SOL    HW194488   7.184   8.120   8.504  0.1165 -0.2130 -1.3493
30650SOL    HW294489   7.248   8.226   8.590 -1.6801  0.4164 -0.7497
30651SOL     OW94490   6.332   5.531   7.037  0.1491 -0.4015  0.2597
30651SOL    HW194491   6.263   5.548   7.101  1.2910  2.6388  0.8032
30651SOL    HW294492   6.363   5.619   7.012  1.5472 -1.6019 -2.4579
30652SOL     OW94493   9.244   3.184   3.088 -0.3810 -1.0045  0.2099
30652SOL    HW194494   9.181   3.179   3.016  0.1051 -1.6445 -0.1779
30652SOL    HW294495   9.198   3.147   3.163 -1.1074  0.2463  0.3844
30653SOL     OW94496   0.518   0.248   0.497 -0.3614 -0.0598  0.6242
30653SOL    HW194497   0.516   0.153   0.507 -2.3572 -0.0217  0.7371
30653SOL    HW294498   0.602   0.266   0.454 -0.2341 -1.9189  0.0574
30654SOL     OW94499   7.297   9.745   7.910  0.3625 -0.3061  0.1763
30654SOL    HW194500   7.313   9.769   7.819  1.1000  1.1828  0.6696
30654SOL    HW294501   7.360   9.676   7.928  0.7867 -0.0216 -0.2038
30655SOL     OW94502   0.764   8.798   1.104 -0.0503  0.4956  0.0943
30655SOL    HW194503   0.775   8.824   1.012 -2.7256  0.6316 -0.2264
30655SOL    HW294504   0.743   8.880   1.149  1.7794  0.5112  0.9411
30656SOL     OW94505   6.997   1.978   5.855  0.2290 -0.3004  0.2918
30656SOL    HW194506   6.938   2.046   5.824  0.7568 -0.6194 -1.4793
30656SOL    HW294507   6.941   1.916   5.902 -0.3248  1.0823  1.4599
30657SOL     OW94508   5.721   0.158   7.711  0.0868  1.1591  0.5068
30657SOL    HW194509   5.814   0.164   7.688  0.3037  0.0049  1.0017
30657SOL    HW294510   5.713   0.206   7.794  0.2770  1.1281  0.5433
30658SOL     OW94511   0.021   8.317   9.176 -0.3226 -0.0329 -0.4698
30658SOL    HW194512   0.031   8.263   9.255  1.5452 -0.1444 -0.7601
30658SOL    HW294513   0.091   8.382   9.183 -1.2589  1.0695 -1.1714
30659SOL     OW94514   7.388   8.955   7.039  0.2826 -0.4744 -0.4622
30659SOL    HW194515   7.441   8.947   7.119 -0.6010  0.5788  0.2485
30659SOL    HW294516   7.382   9.049   7.024 -1.4970 -0.5797 -0.4527
30660SOL     OW94517   3.303   8.898   3.187 -0.7137 -0.2713 -0.3766
30660SOL    HW194518   3.383   8.926   3.231 -0.7069 -1.9442  0.7316
30660SOL    HW294519   3.283   8.813   3.226 -2.5668 -0.2582 -1.2431
30661SOL     OW94520   7.664   4.938   4.016  0.3530 -0.1756  0.2691
30661SOL    HW194521   7.623   5.020   3.988 -0.3867 -0.5042  0.3546
30661SOL    HW294522   7.723   4.914   3.945  1.3337  0.9534  0.6922
30662SOL     OW94523   2.107   5.314   1.156  0.1255  0.1725  0.3267
30662SOL    HW194524   2.182   5.256   1.140 -1.7501 -2.4977  0.9290
30662SOL    HW294525   2.132   5.365   1.233  1.3287 -0.6435  0.4847
30663SOL     OW94526   7.938   1.909   6.103 -0.0132 -0.5690  0.0956
30663SOL    HW194527   7.896   1.993   6.123  1.1495 -0.3778  1.8090
30663SOL    HW294528   7.899   1.883   6.019 -0.5688  1.5562 -0.3529
30664SOL     OW94529   3.272   8.935   2.616  0.3847 -0.0637  0.0417
30664SOL    HW194530   3.285   8.891   2.532  2.2103  1.1683 -0.3389
30664SOL    HW294531   3.264   8.863   2.679 -0.9438 -0.9932 -1.1596
30665SOL     OW94532   4.560   9.028   9.055 -0.4451  0.0268 -0.3392
30665SOL    HW194533   4.622   9.044   9.126 -0.8405 -1.6350  0.4029
30665SOL    HW294534   4.484   8.988   9.097  0.2848 -3.2382 -1.9726
30666SOL     OW94535   5.969   9.720   6.596  0.0698  0.3216 -0.0471
30666SOL    HW194536   5.989   9.645   6.652 -1.6509 -0.3179 -0.2706
30666SOL    HW294537   5.874   9.732   6.604  0.4255  3.1407  0.8133
30667SOL     OW94538   8.838   0.503   9.229  0.2034  0.0743 -0.7699
30667SOL    HW194539   8.904   0.475   9.293  0.3228 -0.6802 -1.2185
30667SOL    HW294540   8.798   0.421   9.198 -0.8512  0.5147 -0.5992
30668SOL     OW94541   2.071   2.323   5.336 -0.2995 -0.3413 -0.5401
30668SOL    HW194542   2.066   2.415   5.362  1.3113 -0.4778  0.3111
30668SOL    HW294543   1.989   2.284   5.368 -0.5041  0.5590  0.0400
30669SOL     OW94544   8.196   1.303   4.317  0.5211 -0.5525  0.4770
30669SOL    HW194545   8.101   1.306   4.306  0.7017  0.7591 -0.8835
30669SOL    HW294546   8.223   1.223   4.273  0.1413 -0.4825  0.1189
30670SOL     OW94547   4.015   7.655  10.054 -0.4597 -0.5889 -0.1134
30670SOL    HW194548   4.034   7.618   9.968  0.5555 -2.0536  0.7237
30670SOL    HW294549   4.065   7.737  10.056 -0.1767 -0.7361 -0.7640
30671SOL     OW94550   6.609   0.206   0.880 -0.7951  0.0330  0.3998
30671SOL    HW194551   6.695   0.167   0.870 -1.2240 -0.9124  0.3655
30671SOL    HW294552   6.624   0.286   0.931 -0.0704 -0.7560  1.4365
30672SOL     OW94553   5.651   9.358   0.328  0.2326 -0.5901 -0.3749
30672SOL    HW194554   5.609   9.408   0.398 -1.3173 -0.2560 -1.5003
30672SOL    HW294555   5.650   9.268   0.359  0.0295 -0.3681  0.2686
30673SOL     OW94556   5.960   0.168   6.823 -0.4269  0.2485  0.2570
30673SOL    HW194557   6.026   0.215   6.772  0.9924 -1.2527  0.6596
30673SOL    HW294558   5.962   0.079   6.788 -3.4790  0.5792 -0.8749
30674SOL     OW94559   2.355   2.242   0.303  0.0769  0.6542 -0.4638
30674SOL    HW194560   2.354   2.336   0.283 -1.4566  0.7369 -0.0644
30674SOL    HW294561   2.379   2.237   0.395 -0.5300  0.7040 -0.2985
30675SOL     OW94562   0.133   8.467   3.567 -0.8580  0.1381 -0.1032
30675SOL    HW194563   0.088   8.551   3.559  0.8791  1.1047  0.1171
30675SOL    HW294564   0.175   8.469   3.653  0.1259 -0.4772 -0.5562
30676SOL     OW94565   9.118   4.302   8.887  0.3636  0.3063  0.2773
30676SOL    HW194566   9.046   4.348   8.930  0.1048  1.0635 -0.9674
30676SOL    HW294567   9.182   4.370   8.867  1.4271 -0.3595  1.3428
30677SOL     OW94568   7.998   1.697   1.352 -0.2263 -0.4517  0.0760
30677SOL    HW194569   7.910   1.680   1.386 -0.7333  0.4050 -0.7916
30677SOL    HW294570   8.011   1.791   1.364 -0.6921 -0.0094 -2.6943
30678SOL     OW94571   1.481   0.697   4.970 -0.0612  0.3750 -0.5893
30678SOL    HW194572   1.392   0.704   4.936 -0.0002  0.8210 -0.6614
30678SOL    HW294573   1.532   0.759   4.917  0.1886  0.5083 -0.1974
30679SOL     OW94574   2.856   5.302  10.202 -0.2959 -0.7008  0.3767
30679SOL    HW194575   2.794   5.338  10.138  2.7985  1.4855 -1.5666
30679SOL    HW294576   2.881   5.377  10.256  0.6441 -1.5388  1.1310
30680SOL     OW94577   6.625   4.428   6.572  0.1990 -0.0603 -0.2045
30680SOL    HW194578   6.614   4.483   6.494  1.7953  0.6733  0.0725
30680SOL    HW294579   6.716   4.397   6.567  0.8177  1.2847  2.1706
30681SOL     OW94580   6.845   2.791   7.947  0.2310  0.2005 -0.2695
30681SOL    HW194581   6.794   2.746   7.880  1.3346 -2.2403  0.4642
30681SOL    HW294582   6.935   2.787   7.916  0.4943  0.8000  0.4088
30682SOL     OW94583   9.485   5.327   7.543 -0.1995  0.1058 -0.2412
30682SOL    HW194584   9.530   5.251   7.507  0.1412  0.0702  0.2498
30682SOL    HW294585   9.392   5.309   7.530 -0.1224 -0.4761  0.0333
30683SOL     OW94586   3.874   5.897   1.859 -0.0308  0.1032 -0.3812
30683SOL    HW194587   3.785   5.863   1.868 -0.0864 -0.0596 -1.4351
30683SOL    HW294588   3.863   5.990   1.841  0.0810  0.4517  1.3048
30684SOL     OW94589   6.487   6.178   5.282 -0.1514  0.8825  0.0355
30684SOL    HW194590   6.413   6.151   5.337  0.0212 -1.6965 -0.9233
30684SOL    HW294591   6.564   6.154   5.334  0.0304 -2.8832 -1.8352
30685SOL     OW94592   6.043   9.914   0.144  0.1683  0.6092 -0.4556
30685SOL    HW194593   6.045  10.008   0.127  1.7472  0.8330  0.8898
30685SOL    HW294594   6.037   9.907   0.239 -1.3354 -0.6654 -0.6210
30686SOL     OW94595   1.966   1.868   9.025 -0.3465 -0.5261  0.4083
30686SOL    HW194596   2.050   1.833   9.055 -0.3785 -1.1446 -0.2066
30686SOL    HW294597   1.980   1.886   8.931 -0.7329 -0.1096  0.4287
30687SOL     OW94598   1.782   3.189   9.508  1.0058  0.0190 -0.4240
30687SOL    HW194599   1.729   3.266   9.490 -0.7052 -1.3504 -1.4230
30687SOL    HW294600   1.861   3.201   9.454  0.8733  1.1715 -0.3743
30688SOL     OW94601   4.318   8.886   4.595 -0.1664 -0.3604  0.0743
30688SOL    HW194602   4.228   8.873   4.564  0.1767  1.3453 -1.7785
30688SOL    HW294603   4.373   8.842   4.530  0.3851 -1.0521  0.9839
30689SOL     OW94604   9.675   2.750   9.832  0.2143  0.2040 -0.0868
30689SOL    HW194605   9.622   2.827   9.811  0.3906 -0.1209 -1.7865
30689SOL    HW294606   9.760   2.768   9.794 -0.4191 -1.8099 -2.5690
30690SOL     OW94607   6.391   3.730   1.318 -0.0652 -0.4597  0.3403
30690SOL    HW194608   6.372   3.741   1.411  1.6654 -0.6638  0.7376
30690SOL    HW294609   6.453   3.657   1.315  1.3234  0.7352 -0.8002
30691SOL     OW94610   4.787   1.245   0.157 -0.1729  0.4339  0.1165
30691SOL    HW194611   4.742   1.253   0.073 -0.5585  1.2444  0.4000
30691SOL    HW294612   4.751   1.315   0.211  1.7083  1.3613  0.2160
30692SOL     OW94613   9.216   9.168   2.105 -0.3128 -0.5028 -0.4802
30692SOL    HW194614   9.199   9.083   2.063  0.1930 -0.4546 -0.7812
30692SOL    HW294615   9.286   9.151   2.167 -1.9044 -0.8503  1.2833
30693SOL     OW94616   7.526   1.193   6.683  0.1857  0.1855 -0.2662
30693SOL    HW194617   7.585   1.119   6.694  0.0427 -0.2118 -1.9352
30693SOL    HW294618   7.454   1.176   6.743 -0.9108 -2.1697 -2.1481
30694SOL     OW94619   0.852   3.401   2.056 -0.0006  0.0214 -0.4914
30694SOL    HW194620   0.789   3.376   2.122 -0.2904  1.0885 -0.3615
30694SOL    HW294621   0.850   3.497   2.054  3.9648  0.2827  1.8444
30695SOL     OW94622   7.511   2.009   2.708 -0.0099 -0.8678 -0.8443
30695SOL    HW194623   7.550   1.951   2.643 -0.0582 -0.9471 -0.8030
30695SOL    HW294624   7.542   1.974   2.792  0.9612 -0.0914 -0.8750
30696SOL     OW94625   3.741   8.400   3.236 -1.1700  0.8235 -0.5881
30696SOL    HW194626   3.821   8.426   3.282 -0.8504 -0.6814 -0.2568
30696SOL    HW294627   3.670   8.426   3.293 -0.9027  1.6974 -0.6421
30697SOL     OW94628   6.470   3.332   2.660 -0.5560  0.3124  0.0603
30697SOL    HW194629   6.426   3.401   2.711  1.0503 -0.3380  2.3952
30697SOL    HW294630   6.563   3.351   2.671 -0.1736 -0.2905 -2.0676
30698SOL     OW94631   3.053   0.252   2.189 -0.0956  0.4781 -0.5405
30698SOL    HW194632   3.040   0.177   2.246 -0.5917  0.9509 -0.0244
30698SOL    HW294633   3.039   0.328   2.246  1.2953  0.9690 -0.8372
30699SOL     OW94634   7.924   7.563   6.251  0.2734  0.0315  0.1017
30699SOL    HW194635   7.921   7.649   6.294  0.8635 -0.4308  1.1105
30699SOL    HW294636   7.883   7.577   6.166 -1.5429  0.8224  1.0831
30700SOL     OW94637   8.566   5.709   9.190  0.2561  0.1901 -0.5709
30700SOL    HW194638   8.472   5.726   9.186  0.2881  0.1823 -1.6970
30700SOL    HW294639   8.573   5.616   9.213  0.0057  0.3748  0.2632
30701SOL     OW94640   7.864   2.139   4.018 -0.1583  0.2207  0.0256
30701SOL    HW194641   7.835   2.130   4.109 -0.0633 -0.9631 -0.0581
30701SOL    HW294642   7.887   2.050   3.991  1.8906  0.8796 -0.4760
30702SOL     OW94643   8.009   7.005   4.443  0.4613 -0.5176  0.2271
30702SOL    HW194644   8.083   7.050   4.483  0.6650 -0.1332 -0.5805
30702SOL    HW294645   8.042   6.917   4.424  0.9725 -0.0928 -0.8892
30703SOL     OW94646   8.175   6.522   1.408  0.2333  0.3097  0.5422
30703SOL    HW194647   8.186   6.616   1.423  0.2530  0.7088 -1.7753
30703SOL    HW294648   8.261   6.493   1.376  1.0597 -1.0726  3.7789
30704SOL     OW94649   0.120   1.335   6.350  0.5409  0.1063 -0.4196
30704SOL    HW194650   0.038   1.327   6.398  0.0181 -1.3970 -1.5409
30704SOL    HW294651   0.134   1.430   6.342 -1.6001  0.3862 -1.0720
30705SOL     OW94652   3.687   2.371  10.086  0.0084 -0.2144 -0.4751
30705SOL    HW194653   3.730   2.411  10.161 -0.9755 -0.1320  0.0586
30705SOL    HW294654   3.753   2.372  10.017 -0.2090  3.0967 -0.7147
30706SOL     OW94655   0.428   5.447   9.193 -0.2218 -0.0190  0.1718
30706SOL    HW194656   0.338   5.415   9.203  0.5069 -2.1608  0.0161
30706SOL    HW294657   0.420   5.519   9.131 -1.7927 -0.3653 -0.0648
30707SOL     OW94658   1.365   7.968   7.396 -0.3682 -0.1392 -0.7281
30707SOL    HW194659   1.406   7.936   7.316 -0.7548 -1.0743 -0.5605
30707SOL    HW294660   1.356   7.890   7.451 -1.3495  0.2460 -0.3241
30708SOL     OW94661   2.767   2.844   1.514  0.9385  0.4612 -0.2878
30708SOL    HW194662   2.681   2.816   1.483  1.2159 -0.7217 -0.0089
30708SOL    HW294663   2.769   2.817   1.605  0.9342  2.0671  0.2013
30709SOL     OW94664   1.143   6.121   1.517  0.2705  0.4364 -0.4436
30709SOL    HW194665   1.207   6.140   1.585  0.8872 -0.8903 -0.6406
30709SOL    HW294666   1.131   6.204   1.471  0.3686  1.1650  0.8351
30710SOL     OW94667   4.648   7.332   5.942 -0.1608  0.2872  0.7527
30710SOL    HW194668   4.593   7.261   5.909  0.1076  0.5339 -0.2570
30710SOL    HW294669   4.645   7.323   6.037 -1.0657 -0.3613  0.6676
30711SOL     OW94670   5.457  10.118   7.141  0.1019  0.8237 -0.0553
30711SOL    HW194671   5.412  10.088   7.062  2.3096 -1.3027 -0.5520
30711SOL    HW294672   5.549  10.121   7.117  0.6858  1.3216  2.0960
30712SOL     OW94673   8.117   1.705   0.781 -0.0166 -0.0483  0.2545
30712SOL    HW194674   8.050   1.659   0.731  0.3953 -0.3329 -0.0373
30712SOL    HW294675   8.150   1.771   0.721 -0.1550  0.2083  0.4576
30713SOL     OW94676   7.171   1.628   6.176 -0.4041 -0.2320 -0.1246
30713SOL    HW194677   7.246   1.676   6.141  0.0680 -0.7100  0.2336
30713SOL    HW294678   7.108   1.697   6.201  0.7809  0.2665  1.5659
30714SOL     OW94679   8.157   4.187   1.286  0.1238  0.4990 -0.2179
30714SOL    HW194680   8.109   4.124   1.232 -0.8809  0.4375  0.7515
30714SOL    HW294681   8.244   4.149   1.295 -0.9322 -1.5615  1.6976
30715SOL     OW94682   2.437   6.813   1.663  0.4078  0.0558 -0.1014
30715SOL    HW194683   2.367   6.751   1.645 -2.5659  3.5490 -1.3370
30715SOL    HW294684   2.492   6.812   1.585 -1.9269  1.8061 -1.8336
30716SOL     OW94685   4.830   3.332   2.738  0.4217  0.0723  0.4727
30716SOL    HW194686   4.806   3.270   2.807  1.5210 -0.2313  0.5913
30716SOL    HW294687   4.861   3.276   2.666  0.7873  0.4552  0.3325
30717SOL     OW94688   5.350   6.338   9.747 -0.1150 -0.1834 -0.4803
30717SOL    HW194689   5.413   6.348   9.676  2.5028  1.0348  1.8941
30717SOL    HW294690   5.392   6.278   9.809 -0.8732  1.2898  1.5483
30718SOL     OW94691   4.957   6.995   3.906 -0.7918  0.0149  0.0212
30718SOL    HW194692   4.975   7.079   3.950 -0.0426 -0.1463  0.0326
30718SOL    HW294693   4.871   6.969   3.938 -1.2771  1.0630 -0.4204
30719SOL     OW94694   2.111   5.611   5.315 -0.5106 -0.0782 -0.2777
30719SOL    HW194695   2.197   5.588   5.350  0.0612  2.0438 -0.1942
30719SOL    HW294696   2.111   5.707   5.313 -2.2290 -0.0817 -1.8833
30720SOL     OW94697   8.594   9.570   0.823  0.3399  0.0227  0.4539
30720SOL    HW194698   8.600   9.477   0.848  3.3439 -0.2531 -1.0938
30720SOL    HW294699   8.578   9.616   0.906 -2.5789 -1.9246  1.0821
30721SOL     OW94700   4.348   4.946   1.210  0.2755  0.6519  0.0351
30721SOL    HW194701   4.317   5.016   1.268 -0.6551  0.8063 -0.6333
30721SOL    HW294702   4.341   4.866   1.262  0.6640  0.9532  0.5611
30722SOL     OW94703   9.705  10.133   8.080  0.2751 -0.2265 -0.8421
30722SOL    HW194704   9.630  10.185   8.051 -0.3394 -0.3112  0.5706
30722SOL    HW294705   9.671  10.043   8.086  0.3393 -0.1826  0.3072
30723SOL     OW94706   8.645   3.053   6.473 -0.8627  0.2820  0.5927
30723SOL    HW194707   8.740   3.055   6.481 -0.9646  0.5695  1.8749
30723SOL    HW294708   8.614   3.032   6.561 -2.0348  1.5382  0.4943
30724SOL     OW94709   0.289   4.041   7.621 -0.0004  0.2691 -0.3755
30724SOL    HW194710   0.362   3.984   7.596 -0.2082  0.1255 -0.6577
30724SOL    HW294711   0.229   4.039   7.546 -0.8114 -0.4695  0.2783
30725SOL     OW94712   8.860   6.738   4.972  0.3470  0.2915  0.0469
30725SOL    HW194713   8.779   6.693   4.998  1.2221 -0.3921  1.7177
30725SOL    HW294714   8.862   6.816   5.027  0.0391  1.1207 -1.1208
30726SOL     OW94715   1.963   0.167   9.780 -0.1431  0.0525 -0.1010
30726SOL    HW194716   1.892   0.216   9.821  0.5896 -1.4906  3.1351
30726SOL    HW294717   2.042   0.197   9.824  0.9239 -0.1854 -1.8174
30727SOL     OW94718   1.460   8.112   0.543 -1.1412  0.2704  0.2488
30727SOL    HW194719   1.533   8.157   0.500 -0.1600 -0.4822  1.1223
30727SOL    HW294720   1.413   8.069   0.471 -0.3893  0.2649 -0.2443
30728SOL     OW94721   8.568   4.129   3.271 -0.0273 -0.6203 -0.5704
30728SOL    HW194722   8.551   4.035   3.281 -2.1619 -0.2694 -0.8634
30728SOL    HW294723   8.497   4.172   3.318 -0.6312  0.8857 -2.8244
30729SOL     OW94724   1.785   8.050   6.695  0.1018 -0.3141  0.0548
30729SOL    HW194725   1.727   8.074   6.623  0.1892 -1.6974 -0.4896
30729SOL    HW294726   1.849   7.991   6.656  0.4264 -0.7223  1.1693
30730SOL     OW94727   0.827   2.714   4.919 -0.2257  0.5210 -0.6737
30730SOL    HW194728   0.743   2.671   4.935  0.3484 -0.1876  0.4775
30730SOL    HW294729   0.834   2.715   4.823 -1.0229 -0.4497 -0.7619
30731SOL     OW94730   6.702   4.552   3.908  0.1695 -0.2810  0.5018
30731SOL    HW194731   6.737   4.641   3.898 -0.0047 -0.2276  0.3746
30731SOL    HW294732   6.732   4.525   3.995  0.2676 -0.1170  0.5196
30732SOL     OW94733   9.910   8.568   0.450 -0.1290  0.4884 -0.0843
30732SOL    HW194734   9.962   8.501   0.406  0.2885  1.7666 -1.6051
30732SOL    HW294735   9.854   8.520   0.510  0.2542 -1.2128 -1.0542
30733SOL     OW94736   5.795   8.475  10.081 -0.5949  0.3964 -0.6486
30733SOL    HW194737   5.774   8.383  10.099 -0.4767  0.2705 -1.1394
30733SOL    HW294738   5.824   8.510  10.165  1.5940 -0.6255 -0.9348
30734SOL     OW94739   7.026   5.698   3.776  0.2560  0.0238 -0.0487
30734SOL    HW194740   6.954   5.759   3.796 -2.0144 -1.0417 -4.3881
30734SOL    HW294741   7.093   5.753   3.737 -0.7536  0.1703 -1.6238
30735SOL     OW94742   8.625   2.638   3.632  0.2167  0.2333  0.4727
30735SOL    HW194743   8.585   2.566   3.583 -0.1091  0.3265  0.6072
30735SOL    HW294744   8.683   2.680   3.569  0.0026  0.1866  0.2442
30736SOL     OW94745   2.105   2.399   2.929 -0.6702 -0.5039  0.5733
30736SOL    HW194746   2.188   2.353   2.917  0.2087  0.5820  2.2970
30736SOL    HW294747   2.040   2.329   2.943  0.3647 -1.2881  1.5305
30737SOL     OW94748   4.199   8.719   6.827  0.1542  0.3077 -0.1148
30737SOL    HW194749   4.163   8.699   6.741  0.0658  0.0988 -0.0289
30737SOL    HW294750   4.237   8.637   6.857  0.6911  0.5298 -0.1973
30738SOL     OW94751   5.226   0.481   1.847  0.5501 -0.3157  0.0342
30738SOL    HW194752   5.286   0.506   1.777  0.0356  0.2703 -0.2031
30738SOL    HW294753   5.279   0.484   1.927  0.7223  0.6547 -0.1132
30739SOL     OW94754   8.490  10.188   1.596  0.5327  0.0709 -0.2460
30739SOL    HW194755   8.459  10.216   1.510  0.5836 -1.4040 -0.7539
30739SOL    HW294756   8.574  10.146   1.578  0.7345  0.1302  0.5711
30740SOL     OW94757   1.715   4.489   5.528  0.3836  0.3900 -0.0985
30740SOL    HW194758   1.623   4.467   5.515  0.5043 -0.7136  0.7862
30740SOL    HW294759   1.748   4.509   5.441 -0.6230  0.5010 -0.4580
30741SOL     OW94760   6.432   7.047   8.914  0.2836  0.0287 -0.9866
30741SOL    HW194761   6.416   7.045   8.820 -0.6746 -2.0036 -0.8121
30741SOL    HW294762   6.464   6.959   8.935 -3.0997 -0.8184  1.1279
30742SOL     OW94763   9.175   4.106   4.408 -0.2008  0.6757  0.1262
30742SOL    HW194764   9.132   4.186   4.440 -0.3171  0.2675  0.9896
30742SOL    HW294765   9.204   4.061   4.487 -0.4408 -0.3173 -0.3514
30743SOL     OW94766   3.753   1.713   1.049 -0.5845 -0.7589 -0.0212
30743SOL    HW194767   3.737   1.807   1.059  0.7554 -0.8349  3.2346
30743SOL    HW294768   3.673   1.672   1.080 -0.8146 -0.7284 -0.5664
30744SOL     OW94769   6.310   8.884   2.778  0.6612 -0.2470 -0.2935
30744SOL    HW194770   6.240   8.842   2.728 -0.8270  0.1598  1.3788
30744SOL    HW294771   6.264   8.939   2.842  2.5518  2.8208 -1.4868
30745SOL     OW94772   7.324   8.499   8.141 -0.0942 -0.0450  0.4606
30745SOL    HW194773   7.318   8.593   8.126 -1.0525 -0.0465  0.8292
30745SOL    HW294774   7.260   8.482   8.210 -1.7041 -1.3805 -1.3560
30746SOL     OW94775   1.333   0.659   3.960 -0.1636 -0.0904 -0.5777
30746SOL    HW194776   1.307   0.731   4.017 -0.1775 -0.5477  0.0057
30746SOL    HW294777   1.270   0.590   3.979  2.6785 -2.0230  2.4673
30747SOL     OW94778   1.552  10.057   3.250  0.1295 -0.3006  0.4931
30747SOL    HW194779   1.461  10.033   3.265  0.6080 -1.6232  1.3974
30747SOL    HW294780   1.581  10.093   3.334  0.6020 -0.4509  0.3938
30748SOL     OW94781   1.541   4.115   7.107  0.2038 -0.0668  0.1835
30748SOL    HW194782   1.476   4.099   7.176 -0.7018  0.1774 -0.5900
30748SOL    HW294783   1.507   4.066   7.032  0.6469  0.4968 -0.3866
30749SOL     OW94784   3.780   0.693   4.837 -0.0240 -0.6523 -0.1744
30749SOL    HW194785   3.783   0.709   4.743  0.1954  1.2259  0.1290
30749SOL    HW294786   3.867   0.659   4.859 -0.0979 -1.1574 -0.6563
30750SOL     OW94787   9.807   2.934   3.559 -0.1759 -0.0992  0.3883
30750SOL    HW194788   9.777   2.844   3.548  2.5550 -0.9592 -0.4620
30750SOL    HW294789   9.775   2.979   3.481  1.7478 -1.3224 -1.1681
30751SOL     OW94790   1.401   0.218   3.994  0.0480  0.2575  0.0262
30751SOL    HW194791   1.324   0.162   4.002 -0.2470  0.7872  1.0234
30751SOL    HW294792   1.476   0.158   3.997 -0.2695 -0.0936  0.9716
30752SOL     OW94793   2.451   8.705   7.900 -0.0434  0.0375  0.5432
30752SOL    HW194794   2.486   8.745   7.979 -0.8905 -0.6266  1.2678
30752SOL    HW294795   2.523   8.706   7.838  0.8031  0.0318  1.5252
30753SOL     OW94796   8.120   0.028   8.343  0.2023 -0.5075  0.5682
30753SOL    HW194797   8.172   0.062   8.416  1.9438 -0.6578 -0.5686
30753SOL    HW294798   8.083   0.106   8.301 -1.5312 -0.4648  2.0945
30754SOL     OW94799  10.173   2.570   9.038  0.1043  0.3702 -0.3073
30754SOL    HW194800  10.133   2.654   9.057  0.2049  0.2241  0.5626
30754SOL    HW294801  10.137   2.510   9.103 -0.8727 -0.5320 -1.6433
30755SOL     OW94802   1.340   3.503   6.033  0.7662 -0.2000  0.1124
30755SOL    HW194803   1.322   3.474   6.123  1.0970 -1.7695 -0.3148
30755SOL    HW294804   1.431   3.530   6.034  1.0422 -1.1302  0.0150
30756SOL     OW94805   5.224   6.574   3.340  0.0614 -0.3535  0.6750
30756SOL    HW194806   5.179   6.634   3.281  1.6407  0.6436  0.4469
30756SOL    HW294807   5.191   6.597   3.427 -0.4283 -0.1446  0.4346
30757SOL     OW94808   1.941   0.961   1.242  0.6868 -0.3209  0.0615
30757SOL    HW194809   1.865   1.012   1.271 -1.0598 -2.6073 -0.3004
30757SOL    HW294810   1.956   0.898   1.312  0.6594 -1.4918 -0.9619
30758SOL     OW94811   6.897   6.054   2.964 -0.1157 -0.6293  0.4488
30758SOL    HW194812   6.829   6.065   3.031  1.4864  0.1991  1.9828
30758SOL    HW294813   6.935   6.141   2.954  1.2802 -1.2519  0.2317
30759SOL     OW94814   4.143   9.916   4.532  0.0478  0.0694  0.2301
30759SOL    HW194815   4.197   9.842   4.562 -0.1427 -0.1088  0.1237
30759SOL    HW294816   4.157   9.919   4.437 -1.6530 -1.1768 -0.0655
30760SOL     OW94817   4.786   3.675   0.958  0.2183 -0.1604  0.3001
30760SOL    HW194818   4.717   3.675   0.892  2.4942  0.1948 -2.1427
30760SOL    HW294819   4.799   3.767   0.980 -0.2942 -0.2521  1.0205
30761SOL     OW94820   2.291   3.534   3.124  0.2073 -0.0090  0.4269
30761SOL    HW194821   2.365   3.473   3.123 -0.5130 -0.8947  0.4113
30761SOL    HW294822   2.216   3.481   3.099 -0.2666  1.1203 -0.5949
30762SOL     OW94823   0.950   1.203   5.936 -0.3154 -0.1608  0.0656
30762SOL    HW194824   0.906   1.246   5.863  0.3464 -1.4627 -1.1286
30762SOL    HW294825   1.040   1.188   5.905  0.4514  0.7367  1.7544
30763SOL     OW94826   7.042   6.144   5.560  0.3426 -0.1294  0.1836
30763SOL    HW194827   7.017   6.212   5.498 -0.4686 -0.3258  0.2900
30763SOL    HW294828   7.032   6.062   5.511 -0.9319 -0.3347  0.7623
30764SOL     OW94829   6.426   9.553   2.500 -0.7706 -0.7687 -0.1730
30764SOL    HW194830   6.463   9.549   2.588 -0.7672 -0.5483 -0.1622
30764SOL    HW294831   6.490   9.508   2.445  0.4650  1.2238 -0.4636
30765SOL     OW94832   2.059   7.989   0.184 -0.4254  0.1036  0.2703
30765SOL    HW194833   2.006   8.064   0.212 -1.1074 -0.8421  1.5346
30765SOL    HW294834   2.033   7.973   0.094  1.5057  2.9391 -0.8607
30766SOL     OW94835   7.412   2.143   4.791  0.0274 -0.1917  0.7328
30766SOL    HW194836   7.483   2.188   4.745 -2.2364  0.3098 -2.3516
30766SOL    HW294837   7.434   2.050   4.783 -0.6663 -0.1502 -1.9720
30767SOL     OW94838   1.905   6.528   1.635  0.1098  0.2874 -1.1624
30767SOL    HW194839   1.914   6.493   1.723  0.2998  0.5645 -1.0710
30767SOL    HW294840   1.838   6.596   1.643  2.7062  2.8812 -0.4570
30768SOL     OW94841   5.235   4.943   6.471 -0.2620 -0.6653  0.3023
30768SOL    HW194842   5.220   4.886   6.396 -1.7387 -0.0549  0.1138
30768SOL    HW294843   5.220   5.031   6.438  1.8919 -0.1543  0.6268
30769SOL     OW94844   4.952   2.462   6.327 -0.2697 -0.0559 -0.2013
30769SOL    HW194845   4.917   2.404   6.395  0.7216  1.6672  1.8176
30769SOL    HW294846   4.874   2.501   6.286 -0.8449  1.3345  2.1303
30770SOL     OW94847   4.755   6.961   2.097 -0.3780 -0.0515 -0.2113
30770SOL    HW194848   4.840   6.966   2.052 -0.9986  1.3689 -1.2536
30770SOL    HW294849   4.761   6.881   2.150  0.9289 -0.9657 -1.6787
30771SOL     OW94850   1.425   3.554   0.097 -0.2408  0.7037 -0.2220
30771SOL    HW194851   1.338   3.589   0.076 -1.7762 -3.0063 -0.5723
30771SOL    HW294852   1.455   3.515   0.015  1.4878  1.3752  0.0793
30772SOL     OW94853   4.100   5.944   4.149  0.1588 -0.5055 -0.7996
30772SOL    HW194854   4.070   5.960   4.239 -1.9234 -1.0485 -1.3874
30772SOL    HW294855   4.188   5.908   4.160  0.6482  1.1020  0.9464
30773SOL     OW94856   6.096   0.991   1.667 -0.0924  0.5039  0.1079
30773SOL    HW194857   6.072   1.015   1.757 -0.2916 -0.9648  0.4588
30773SOL    HW294858   6.189   0.970   1.673 -0.8340 -2.8834  0.7056
30774SOL     OW94859   4.648   3.064   3.709 -0.0052 -0.0612  0.1355
30774SOL    HW194860   4.569   3.119   3.705 -0.0778 -0.1525  0.3152
30774SOL    HW294861   4.699   3.101   3.781 -2.0043 -2.8076  3.1145
30775SOL     OW94862   8.644   0.094   3.812 -0.1252 -0.2619 -0.1756
30775SOL    HW194863   8.686   0.031   3.870  1.5312  1.3506  0.4149
30775SOL    HW294864   8.633   0.047   3.729  1.1708 -1.3166  0.2311
30776SOL     OW94865   6.078   1.648   6.728  0.3163  0.2275 -0.3642
30776SOL    HW194866   6.006   1.703   6.700  0.3180  1.0089  1.1436
30776SOL    HW294867   6.121   1.697   6.797  0.6839 -1.3910  0.5923
30777SOL     OW94868   2.028   6.999   1.093  0.7517  0.1195  0.0105
30777SOL    HW194869   1.959   6.943   1.129  0.0010  0.6923 -0.5107
30777SOL    HW294870   1.998   7.088   1.112  1.0783  0.3835 -0.7252
30778SOL     OW94871   1.245   6.391   8.604 -0.6618  0.2810 -0.2273
30778SOL    HW194872   1.211   6.479   8.592  2.1698  1.5415  0.5130
30778SOL    HW294873   1.304   6.377   8.530  0.1249 -0.3338  0.4955
30779SOL     OW94874   8.624   2.755   2.765 -0.3958  0.6111  0.3085
30779SOL    HW194875   8.633   2.759   2.860 -0.8277  0.0016  0.3779
30779SOL    HW294876   8.633   2.846   2.736  1.1429  0.6286  0.8014
30780SOL     OW94877   9.288   9.981   4.452  0.0894 -0.0921 -0.0708
30780SOL    HW194878   9.259   9.890   4.456  1.1660 -0.5463 -1.8712
30780SOL    HW294879   9.232  10.021   4.384  2.1481 -0.4145 -1.9957
30781SOL     OW94880   6.860   1.920   1.286  0.5449 -0.1601  0.7894
30781SOL    HW194881   6.925   1.970   1.236 -1.6360  1.6685 -0.2826
30781SOL    HW294882   6.799   1.886   1.221 -1.5726  1.1316  2.0142
30782SOL     OW94883   0.371   6.701   3.664 -0.3107  0.7391 -0.3972
30782SOL    HW194884   0.378   6.658   3.579 -1.1227  0.6106 -0.4030
30782SOL    HW294885   0.302   6.653   3.710  0.1079  0.8174  0.3280
30783SOL     OW94886   7.326   7.138   7.647  0.4070  0.2149  0.1600
30783SOL    HW194887   7.274   7.064   7.615  1.5117 -0.7180  0.5023
30783SOL    HW294888   7.262   7.193   7.693 -0.6776  0.1924 -1.2855
30784SOL     OW94889   9.182   1.320   3.266 -0.0750 -0.0196 -0.1564
30784SOL    HW194890   9.208   1.249   3.324 -1.3446  0.3591  0.9110
30784SOL    HW294891   9.146   1.387   3.324 -1.7882  0.1845 -1.3929
30785SOL     OW94892   0.917   0.646   9.651 -0.6912  0.2307  0.5172
30785SOL    HW194893   0.898   0.727   9.698 -1.1277 -1.0228  2.5756
30785SOL    HW294894   0.855   0.583   9.686  0.7475 -1.4169  0.1755
30786SOL     OW94895   0.961   0.821   9.887 -0.1222 -0.0018 -0.1841
30786SOL    HW194896   1.001   0.750   9.938 -0.6618 -0.9433 -1.0507
30786SOL    HW294897   1.026   0.892   9.890  0.2583 -0.3791  1.0161
30787SOL     OW94898   6.794   4.309   7.667  0.2850  1.1325 -0.2041
30787SOL    HW194899   6.862   4.356   7.716  1.1439 -0.1751 -0.1143
30787SOL    HW294900   6.837   4.285   7.584  1.0926 -2.6161  1.1730
30788SOL     OW94901   0.920   0.552   5.269 -0.0917  0.2377  0.1582
30788SOL    HW194902   0.892   0.535   5.179  0.4938  0.0771  0.0047
30788SOL    HW294903   0.861   0.499   5.322  0.1323 -0.3489 -0.1797
30789SOL     OW94904   8.167   5.389   5.814 -0.3171 -0.1862 -0.3195
30789SOL    HW194905   8.113   5.313   5.790 -0.3897  0.3450 -1.8689
30789SOL    HW294906   8.249   5.377   5.766  1.4549 -1.5551  2.8663
30790SOL     OW94907   7.281   1.365   6.649 -0.1304  0.5165  0.7644
30790SOL    HW194908   7.349   1.313   6.605 -0.6940 -0.6614  1.2580
30790SOL    HW294909   7.199   1.325   6.622 -0.4684 -0.8796  3.6228
30791SOL     OW94910   5.921   7.768   0.655 -0.0358 -0.7579 -0.4655
30791SOL    HW194911   6.010   7.738   0.671  0.4480 -0.3310 -2.2647
30791SOL    HW294912   5.893   7.807   0.738  1.5386 -0.6739  0.0322
30792SOL     OW94913   0.752   1.165  10.122  0.0356 -0.8601 -0.3750
30792SOL    HW194914   0.685   1.191  10.185  2.5299  2.5710  1.0043
30792SOL    HW294915   0.816   1.116  10.173  1.3886  0.7704 -0.4774
30793SOL     OW94916   7.775   8.773   9.813 -0.0159  0.5224 -1.0160
30793SOL    HW194917   7.761   8.680   9.834 -1.6617  1.0625  0.4668
30793SOL    HW294918   7.799   8.774   9.721 -0.1032 -1.3799 -1.0724
30794SOL     OW94919   0.910   1.829   2.962 -0.1842  0.2459  0.0197
30794SOL    HW194920   0.879   1.804   3.049  1.0882  1.7348  0.9230
30794SOL    HW294921   0.953   1.750   2.928 -0.7683 -0.3668  0.6866
30795SOL     OW94922   2.590   8.482   4.110 -0.2878  0.3326  0.0796
30795SOL    HW194923   2.592   8.386   4.112 -0.0389  0.3444  1.9395
30795SOL    HW294924   2.608   8.507   4.201 -0.3108  2.1432 -0.4087
30796SOL     OW94925   1.178   7.580   6.618  0.2200 -0.2346 -0.0619
30796SOL    HW194926   1.090   7.614   6.632  0.8821  1.4613  0.0435
30796SOL    HW294927   1.169   7.485   6.629 -1.3316  0.0423  1.2176
30797SOL     OW94928   0.141   8.376   4.369  0.4244  0.4367 -0.0478
30797SOL    HW194929   0.140   8.288   4.407  2.6280  1.0265  1.4942
30797SOL    HW294930   0.230   8.408   4.384  0.4068  1.9731 -2.8699
30798SOL     OW94931   7.767   1.793   2.795 -0.5084 -0.3628  0.6404
30798SOL    HW194932   7.817   1.838   2.727 -0.1149 -1.6660  0.0594
30798SOL    HW294933   7.735   1.864   2.851 -0.8772  0.7413 -0.9115
30799SOL     OW94934   4.859   0.349   7.928 -0.4071 -0.1552  0.3053
30799SOL    HW194935   4.814   0.323   8.009 -1.4500 -2.2717 -0.9152
30799SOL    HW294936   4.950   0.358   7.954 -0.9513  0.6312  2.0439
30800SOL     OW94937   9.882   5.237   2.890  0.3205  0.0158  0.4168
30800SOL    HW194938   9.865   5.153   2.932 -0.4344 -0.0479  0.0001
30800SOL    HW294939   9.931   5.287   2.955  3.0657 -1.6580 -0.2392
30801SOL     OW94940   3.889   8.963   3.353 -0.2401 -0.2060 -0.0329
30801SOL    HW194941   3.813   9.004   3.395 -0.5592 -1.6204  0.8262
30801SOL    HW294942   3.860   8.873   3.337  1.0226 -0.5542 -0.3367
30802SOL     OW94943   8.674  10.102   7.312  0.3945  0.2026 -0.2756
30802SOL    HW194944   8.596  10.053   7.340  1.2806  0.5628  2.9915
30802SOL    HW294945   8.746  10.040   7.323  1.0434  1.0607  0.3803
30803SOL     OW94946   1.948   8.860   8.560 -0.4885  0.1349  0.4421
30803SOL    HW194947   2.033   8.894   8.587 -0.7060 -0.1344  1.4813
30803SOL    HW294948   1.886   8.899   8.622 -0.9392 -0.8490  0.6156
30804SOL     OW94949   5.668   2.416   0.683 -0.8115 -0.1118  0.2263
30804SOL    HW194950   5.641   2.407   0.591 -1.0854  0.3355  0.2623
30804SOL    HW294951   5.751   2.462   0.679 -1.0082  0.2422  0.2232
30805SOL     OW94952   9.660   4.795   2.990  0.2087 -0.2071 -0.1383
30805SOL    HW194953   9.647   4.754   2.904 -0.3933  0.3124 -0.2969
30805SOL    HW294954   9.584   4.768   3.042  0.3453 -0.1602  0.0881
30806SOL     OW94955   2.791   0.169   4.292  0.1501  0.4848  0.3019
30806SOL    HW194956   2.785   0.074   4.285  0.1428  0.4712  0.4926
30806SOL    HW294957   2.701   0.199   4.293  0.0971  0.3063  2.8149
30807SOL     OW94958   1.586   0.989   0.498 -0.2757  0.3905  0.2066
30807SOL    HW194959   1.549   0.977   0.585 -2.4822 -0.8274 -0.8602
30807SOL    HW294960   1.523   1.046   0.453 -0.7558 -1.5155 -1.5755
30808SOL     OW94961  10.042   5.802   4.793  0.0304 -0.4754  0.1799
30808SOL    HW194962  10.101   5.742   4.838  1.0289  1.1989  1.1563
30808SOL    HW294963  10.095   5.880   4.776 -1.5515  0.5852 -0.0182
30809SOL     OW94964   8.040   5.956   7.118  0.6735 -0.0298 -0.1743
30809SOL    HW194965   7.992   5.873   7.120 -0.2851  0.5243  0.1981
30809SOL    HW294966   8.042   5.981   7.026 -1.1779  0.7464 -0.0275
30810SOL     OW94967   6.974   3.728   0.760 -0.6701 -0.1312 -0.2768
30810SOL    HW194968   6.982   3.676   0.839 -0.4140  0.4209  0.0659
30810SOL    HW294969   7.061   3.765   0.746  0.0351 -2.4836 -2.4074
30811SOL     OW94970   5.506   3.256   3.182  0.2266 -0.1653  0.1843
30811SOL    HW194971   5.598   3.229   3.177  0.3777  0.4439 -0.4663
30811SOL    HW294972   5.468   3.226   3.100 -0.5008 -1.6443  1.0535
30812SOL     OW94973   5.374   5.419   2.773 -0.1915  0.2593 -0.2818
30812SOL    HW194974   5.366   5.363   2.695 -1.6054  0.6194 -0.3988
30812SOL    HW294975   5.422   5.365   2.836  0.2422 -0.3422 -1.1120
30813SOL     OW94976   9.855   8.244   5.594  0.3160 -0.0431 -0.0521
30813SOL    HW194977   9.804   8.169   5.562  0.2861 -0.7657  1.5986
30813SOL    HW294978   9.822   8.259   5.683  0.7189  1.5821 -0.1600
30814SOL     OW94979   7.102  10.121   3.914 -0.1047  0.7080  0.3024
30814SOL    HW194980   7.077  10.147   4.003 -0.2402 -0.3383  0.5791
30814SOL    HW294981   7.023  10.134   3.862 -0.2025  0.7436  0.4600
30815SOL     OW94982   8.623   2.323   4.798 -0.1774  0.4931 -0.5527
30815SOL    HW194983   8.681   2.379   4.746 -0.1788  1.4649  0.4597
30815SOL    HW294984   8.577   2.384   4.856  0.3876 -0.6280  1.1155
30816SOL     OW94985   1.933   9.447   6.102  0.0147  0.1004 -0.0665
30816SOL    HW194986   1.857   9.506   6.101  0.5066  0.7471  0.4963
30816SOL    HW294987   1.913   9.384   6.171 -0.5133 -0.3971 -0.6690
30817SOL     OW94988   3.457   2.301   0.753  0.0627  0.1394 -0.1246
30817SOL    HW194989   3.411   2.251   0.686  0.2695  1.7552 -1.5269
30817SOL    HW294990   3.392   2.364   0.785  0.0521 -0.4245  1.0063
30818SOL     OW94991   3.322   4.301   2.528 -0.2563  0.5147  0.3771
30818SOL    HW194992   3.408   4.271   2.558  0.0308  2.5049  1.6273
30818SOL    HW294993   3.312   4.261   2.441  0.4404 -2.4611  1.6168
30819SOL     OW94994   8.587   0.516   7.053 -0.2463  0.2146  0.3743
30819SOL    HW194995   8.663   0.474   7.013  0.1900  0.4816  0.9276
30819SOL    HW294996   8.575   0.597   7.003  0.1589  0.4346  0.6344
30820SOL     OW94997   8.545   2.320   9.642 -0.0874 -0.2477 -0.6523
30820SOL    HW194998   8.631   2.353   9.619 -0.2633  1.6037  1.1826
30820SOL    HW294999   8.562   2.248   9.702  0.1992  0.1541 -0.2487
30821SOL     OW95000   2.604   9.055   3.327  0.1385 -0.3586  0.2070
30821SOL    HW195001   2.563   8.972   3.303  1.1390 -0.6592 -0.5357
30821SOL    HW295002   2.610   9.104   3.245  1.2298 -0.3207  0.2954
30822SOL     OW95003   4.603   7.489   4.316 -0.2157  0.0922  0.1972
30822SOL    HW195004   4.510   7.480   4.337 -0.4025  1.4327  0.0161
30822SOL    HW295005   4.626   7.575   4.350  0.5505  0.4732 -1.2425
30823SOL     OW95006   2.375   8.573   9.114  0.6642 -0.5113 -0.0782
30823SOL    HW195007   2.429   8.649   9.135  0.6995 -1.1050  2.0952
30823SOL    HW295008   2.437   8.503   9.098  0.6659  0.0992 -3.0623
30824SOL     OW95009   0.149   7.568   1.370 -0.2036 -0.1121  0.5104
30824SOL    HW195010   0.144   7.616   1.452 -0.0167 -1.0351  1.0710
30824SOL    HW295011   0.143   7.635   1.302  0.1049  0.6947  1.2758
30825SOL     OW95012   3.949   7.834   0.766  0.1818 -0.4828  0.4097
30825SOL    HW195013   3.893   7.757   0.770  0.5907 -0.7718  0.6196
30825SOL    HW295014   3.947   7.861   0.674 -0.7130 -0.1837  0.5092
30826SOL     OW95015   2.882   7.142   8.852 -0.0980 -0.0470 -0.0496
30826SOL    HW195016   2.946   7.182   8.794 -0.2448 -1.1087 -0.9607
30826SOL    HW295017   2.797   7.166   8.815 -0.1902 -0.9002 -0.3948
30827SOL     OW95018   1.042   3.433   2.424 -0.0645  0.4941  0.1997
30827SOL    HW195019   1.006   3.418   2.511 -1.4238 -0.3642 -0.5082
30827SOL    HW295020   0.986   3.501   2.386  1.1612  1.6382  0.3608
30828SOL     OW95021   7.000   6.476  10.065  0.0275 -0.0950  0.0233
30828SOL    HW195022   7.071   6.425  10.103  0.3897 -0.1135 -0.6578
30828SOL    HW295023   7.033   6.501   9.978 -0.0407  1.4913  0.4287
30829SOL     OW95024   1.383   6.359   2.664  0.3688 -0.3297 -0.1389
30829SOL    HW195025   1.437   6.364   2.743 -0.1747 -1.6069  0.3389
30829SOL    HW295026   1.294   6.380   2.694  0.1924 -0.6303 -0.4457
30830SOL     OW95027   5.813   9.711   0.433  0.8776 -0.3349  0.3277
30830SOL    HW195028   5.885   9.770   0.457  0.4318  1.1055 -1.7718
30830SOL    HW295029   5.750   9.721   0.505  0.6776  2.0036 -0.1219
30831SOL     OW95030   4.212   2.873   9.493 -0.1631 -0.4969 -0.5750
30831SOL    HW195031   4.141   2.918   9.448 -0.0838  1.1238  0.8661
30831SOL    HW295032   4.272   2.846   9.424  0.1696  2.2992 -1.4330
30832SOL     OW95033   9.267   7.363   2.226 -0.1714  0.0591  0.0084
30832SOL    HW195034   9.174   7.343   2.221 -0.0391 -0.5672  0.0182
30832SOL    HW295035   9.302   7.340   2.140  0.0776 -0.2512  0.1922
30833SOL     OW95036   1.845   6.256   3.869  0.2329  0.5085 -0.3759
30833SOL    HW195037   1.882   6.289   3.951  2.0743  0.2958 -1.1026
30833SOL    HW295038   1.895   6.176   3.851 -0.0851  0.6065 -1.7474
30834SOL     OW95039   4.138   4.535   5.684 -0.1236  0.2581  0.0575
30834SOL    HW195040   4.085   4.466   5.645  0.9062 -3.1114  4.1629
30834SOL    HW295041   4.225   4.524   5.646  0.2114 -1.2688  1.2015
30835SOL     OW95042   7.056   5.750   2.123  0.4282 -0.5094  0.2856
30835SOL    HW195043   7.075   5.674   2.069  0.3637 -0.4028  0.1123
30835SOL    HW295044   7.020   5.714   2.204  0.8237 -0.6859  0.3836
30836SOL     OW95045   0.295   1.410   3.319 -0.3652  0.2276  0.0589
30836SOL    HW195046   0.327   1.356   3.247 -1.9929  1.1595 -1.4092
30836SOL    HW295047   0.201   1.415   3.306 -0.8385 -0.4356  2.8823
30837SOL     OW95048   7.423   8.382   1.843 -1.1438 -0.0509 -0.5356
30837SOL    HW195049   7.377   8.300   1.863  1.4897 -1.2618  0.7732
30837SOL    HW295050   7.408   8.436   1.921  0.2788 -0.7494  0.2351
30838SOL     OW95051   7.724   5.346   1.255 -0.5640  0.5117 -0.0501
30838SOL    HW195052   7.653   5.291   1.287  0.5677 -1.4092 -0.7476
30838SOL    HW295053   7.686   5.433   1.247 -2.5239 -0.2654  0.6243
30839SOL     OW95054   3.087   0.022   5.605  0.2262 -0.4168  0.6407
30839SOL    HW195055   3.068  -0.047   5.541  0.5221  1.0090 -1.0032
30839SOL    HW295056   3.168  -0.007   5.648  0.6164 -0.8672 -0.3867
30840SOL     OW95057   9.661   3.992   5.630  0.0461  0.0237  0.1072
30840SOL    HW195058   9.567   3.999   5.649 -0.1046 -2.0338  0.2095
30840SOL    HW295059   9.697   3.948   5.707  1.1457  0.9779  0.1499
30841SOL     OW95060   5.346   2.713   2.132 -0.2643  0.0226 -0.0618
30841SOL    HW195061   5.275   2.661   2.168 -0.0229  1.2059  2.1869
30841SOL    HW295062   5.415   2.710   2.199  1.4609 -0.3659 -1.7992
30842SOL     OW95063   5.360   0.141   4.301  0.1414 -0.3897 -0.0168
30842SOL    HW195064   5.411   0.220   4.280 -0.3440  0.2130  0.9927
30842SOL    HW295065   5.269   0.171   4.298 -0.1024 -1.2029 -0.7618
30843SOL     OW95066   4.975   1.428   9.299 -0.3970  0.1428 -0.3549
30843SOL    HW195067   5.017   1.456   9.218 -1.8669 -0.7167 -1.4469
30843SOL    HW295068   5.023   1.349   9.325  0.3300  0.6435 -0.1686
30844SOL     OW95069   8.451   8.268   5.187  0.0862 -0.4337  0.2837
30844SOL    HW195070   8.364   8.280   5.225 -0.1390 -0.7680 -0.1316
30844SOL    HW295071   8.435   8.238   5.097  0.5932  1.2630 -0.4078
30845SOL     OW95072   5.046   8.699   1.677 -0.1539  0.0154 -0.1730
30845SOL    HW195073   5.118   8.732   1.729 -0.6469  1.3310 -0.3236
30845SOL    HW295074   4.967   8.719   1.728 -0.3811 -2.2011  0.4139
30846SOL     OW95075   6.198   7.423   6.513  0.3550 -0.5011  0.1919
30846SOL    HW195076   6.169   7.336   6.486 -0.7118 -0.7033  1.9533
30846SOL    HW295077   6.120   7.465   6.548  1.3332  0.3828  1.3432
30847SOL     OW95078   6.998   3.656   2.784  0.1400 -0.2665  0.1354
30847SOL    HW195079   6.924   3.686   2.732  0.3043  0.3776  0.2682
30847SOL    HW295080   7.067   3.637   2.720 -0.7329 -2.7076 -0.1666
30848SOL     OW95081   9.759   3.417   0.369 -0.4234 -0.2427 -0.2223
30848SOL    HW195082   9.705   3.489   0.335 -2.1405 -1.6782 -0.5994
30848SOL    HW295083   9.729   3.340   0.321  1.1949 -1.2734  0.3907
30849SOL     OW95084   4.540   2.015   5.574 -0.2376  0.3781  0.3748
30849SOL    HW195085   4.524   1.950   5.505 -0.4350  0.1114  0.6700
30849SOL    HW295086   4.635   2.015   5.586 -0.1574  0.8093 -0.2668
30850SOL     OW95087   6.851  10.080   3.773 -0.1037  0.2495 -0.4846
30850SOL    HW195088   6.820  10.170   3.757  0.1780  0.6080  0.9490
30850SOL    HW295089   6.786  10.042   3.831  2.5052  1.2900  3.2854
30851SOL     OW95090   0.760   5.784   1.667  0.5999  0.3233  0.1199
30851SOL    HW195091   0.751   5.704   1.616 -0.0629  1.3387 -1.3759
30851SOL    HW295092   0.846   5.817   1.645  0.9449 -0.0516  0.8728
30852SOL     OW95093   6.868   1.490   6.195 -0.4934  0.0874  0.2757
30852SOL    HW195094   6.861   1.500   6.100 -1.5435  0.8261  0.4132
30852SOL    HW295095   6.781   1.514   6.228 -0.1058 -0.0416  1.4307
30853SOL     OW95096   3.515   0.094   6.064  0.6776  0.7190  0.2109
30853SOL    HW195097   3.570   0.035   6.013 -0.3176  0.8223 -1.0225
30853SOL    HW295098   3.577   0.156   6.104  1.9029 -2.1665  2.9931
30854SOL     OW95099   5.892   5.314   6.810  0.5743  0.6321 -0.5337
30854SOL    HW195100   5.910   5.329   6.903 -1.4129  2.6078 -0.4153
30854SOL    HW295101   5.884   5.402   6.773 -2.4399 -0.0932 -1.7632
30855SOL     OW95102   2.952   4.589   0.321 -0.2377  0.1544 -0.3630
30855SOL    HW195103   2.944   4.571   0.228 -0.8948 -1.8979  0.0551
30855SOL    HW295104   2.864   4.618   0.347 -0.7104 -1.6378  0.0783
30856SOL     OW95105   2.708   0.065   2.079 -0.3900 -0.2200 -0.1164
30856SOL    HW195106   2.738   0.052   2.169 -1.5514  0.8210  0.4442
30856SOL    HW295107   2.673   0.155   2.078 -0.2383 -0.1583 -1.6445
30857SOL     OW95108   2.722   3.337   3.875  0.0049  0.0485 -0.0322
30857SOL    HW195109   2.796   3.291   3.836  0.5724  1.0750 -0.1856
30857SOL    HW295110   2.703   3.289   3.955 -0.3968 -1.3557 -0.9578
30858SOL     OW95111   3.923   9.689   0.787 -0.3020 -0.0374 -0.2867
30858SOL    HW195112   4.017   9.700   0.778 -0.3580  0.3183 -0.4778
30858SOL    HW295113   3.886   9.770   0.751 -0.6359  0.3177  0.8490
30859SOL     OW95114   8.919   1.515   8.934 -0.3954 -0.3573  0.7102
30859SOL    HW195115   8.924   1.558   9.019  0.7232 -2.1815  1.6247
30859SOL    HW295116   8.848   1.451   8.943  0.0296 -0.8748  0.4434
30860SOL     OW95117   2.033   7.679   6.356  0.5511 -0.4412 -0.2008
30860SOL    HW195118   2.113   7.635   6.327  1.0935 -0.4466  1.2447
30860SOL    HW295119   2.062   7.767   6.380 -0.2064  0.1363 -1.3714
30861SOL     OW95120   5.161   4.273   3.887  0.2385  0.0319  0.1887
30861SOL    HW195121   5.170   4.231   3.973  1.0218 -1.4293 -0.5936
30861SOL    HW295122   5.245   4.257   3.843  0.9037  3.2032  0.1835
30862SOL     OW95123   5.186   9.361   5.810 -0.3073  0.3808  0.0860
30862SOL    HW195124   5.147   9.294   5.753 -0.4358  0.1031  0.5005
30862SOL    HW295125   5.113   9.418   5.833 -0.8606 -1.1298  2.2756
30863SOL     OW95126   4.893   0.351   4.826 -0.1586 -0.1043 -0.1287
30863SOL    HW195127   4.838   0.376   4.900  0.4660 -1.1097  0.6956
30863SOL    HW295128   4.847   0.278   4.785  0.2098 -0.5120  0.1666
30864SOL     OW95129   4.443   5.761   4.938 -0.0587 -0.0042  0.5159
30864SOL    HW195130   4.506   5.833   4.932  0.3205 -0.5045 -2.1490
30864SOL    HW295131   4.490   5.693   4.985  1.1993 -0.1286 -0.8746
30865SOL     OW95132   7.428   4.517   5.447 -0.1333  0.6807  0.8089
30865SOL    HW195133   7.435   4.491   5.356 -0.1751  0.5278  0.8503
30865SOL    HW295134   7.481   4.454   5.495 -0.1319  0.7457  0.8938
30866SOL     OW95135   0.328   3.585   4.279  0.3019  0.1050 -0.3002
30866SOL    HW195136   0.302   3.521   4.346 -2.9047 -0.8574 -2.3687
30866SOL    HW295137   0.303   3.669   4.317  2.5161  0.0294  1.4886
30867SOL     OW95138   3.187   3.582   4.387  0.8569  0.5418  0.4736
30867SOL    HW195139   3.140   3.505   4.355 -0.4909  0.6420  2.1691
30867SOL    HW295140   3.208   3.631   4.308 -2.3331  0.7428 -0.2924
30868SOL     OW95141  10.057   7.930   3.932 -0.3002  0.1543  0.0429
30868SOL    HW195142   9.967   7.941   3.961 -0.7610 -0.3975 -1.1179
30868SOL    HW295143  10.051   7.922   3.837  0.8478 -1.1013  0.0545
30869SOL     OW95144   4.893   5.918   3.511  0.4807  0.0064 -0.1285
30869SOL    HW195145   4.922   5.919   3.420  0.1133 -0.9685 -0.2570
30869SOL    HW295146   4.828   5.989   3.516 -0.8052 -1.0734 -1.0599
30870SOL     OW95147   2.578   6.597   9.456 -0.6106  0.2044  0.2141
30870SOL    HW195148   2.651   6.654   9.481 -1.6798  1.7009  0.0266
30870SOL    HW295149   2.596   6.573   9.365 -0.8083  1.3356 -0.1322
30871SOL     OW95150   1.374   6.087   7.652  0.0737  0.1836  0.2494
30871SOL    HW195151   1.349   6.030   7.579 -0.3180  0.7557 -0.0739
30871SOL    HW295152   1.349   6.175   7.623 -0.1098  0.4156  1.0870
30872SOL     OW95153   2.727   5.862   1.518 -0.6182 -0.2322  0.0365
30872SOL    HW195154   2.767   5.783   1.482  0.2828 -0.3796  1.3405
30872SOL    HW295155   2.640   5.865   1.479  0.1714 -0.6347 -1.7920
30873SOL     OW95156   1.648   9.194   9.364 -0.1984  0.0948  0.0443
30873SOL    HW195157   1.564   9.150   9.378 -0.8802  1.2102 -0.4368
30873SOL    HW295158   1.681   9.210   9.453 -1.2030  0.9572  0.2700
30874SOL     OW95159   1.661   6.175   3.244 -0.2290 -0.8633 -0.1408
30874SOL    HW195160   1.715   6.108   3.203  1.7972  1.0819 -0.7803
30874SOL    HW295161   1.629   6.134   3.325  0.4898 -2.7633 -0.7924
30875SOL     OW95162   5.846   3.029   2.110  0.3100 -0.0792 -0.0867
30875SOL    HW195163   5.820   3.108   2.157  2.4180  1.0028 -0.6638
30875SOL    HW295164   5.786   3.023   2.037 -2.2991 -1.1585  2.0687
30876SOL     OW95165   7.821   8.688   8.838  0.0665 -0.2166  0.0778
30876SOL    HW195166   7.788   8.777   8.845  3.2876  0.9069  2.3784
30876SOL    HW295167   7.749   8.633   8.869 -0.4669  1.9336  2.8109
30877SOL     OW95168   6.695   3.744   1.114 -0.0001  0.0188  0.6785
30877SOL    HW195169   6.712   3.679   1.045  0.7400  0.2330  0.6548
30877SOL    HW295170   6.646   3.813   1.070  1.0508  0.4741  0.1914
30878SOL     OW95171   8.535   6.920   8.546  0.8281 -0.0461 -0.0315
30878SOL    HW195172   8.590   6.881   8.614 -0.9650 -1.1131  0.8311
30878SOL    HW295173   8.483   6.986   8.591  0.6878  0.2740 -0.6499
30879SOL     OW95174   0.888   8.507   3.513  0.0308 -0.4883  0.1065
30879SOL    HW195175   0.808   8.556   3.532  1.3279  2.5049 -1.6345
30879SOL    HW295176   0.938   8.509   3.595 -0.6649 -0.3260  0.5242
30880SOL     OW95177   1.316   6.051   8.570  0.4711 -0.6865 -0.4200
30880SOL    HW195178   1.378   5.980   8.550 -1.8147 -2.9053  0.0990
30880SOL    HW295179   1.262   6.016   8.641 -2.0688  0.7703 -1.5735
30881SOL     OW95180   4.384   4.211   2.160 -0.4448  0.5985 -0.0001
30881SOL    HW195181   4.414   4.188   2.072 -0.9968 -1.5370  0.3366
30881SOL    HW295182   4.464   4.218   2.212 -0.1775  0.9007 -0.4511
30882SOL     OW95183   4.954   4.636   2.991  0.0157 -0.0630 -0.4001
30882SOL    HW195184   5.003   4.707   3.034  1.2647 -1.1129 -0.0789
30882SOL    HW295185   4.865   4.647   3.022  0.4793  0.5225  0.7654
30883SOL     OW95186   1.688   9.746   1.020 -0.3319  0.3530  0.0935
30883SOL    HW195187   1.633   9.681   1.064 -0.2149  0.7032  0.7692
30883SOL    HW295188   1.743   9.782   1.090 -1.0922  1.8790 -0.0821
30884SOL     OW95189   3.429   5.820   1.571  0.0472  0.1925 -0.0553
30884SOL    HW195190   3.519   5.850   1.588  0.5106 -1.5721  0.6798
30884SOL    HW295191   3.436   5.769   1.491 -0.1939 -0.4189  0.3131
30885SOL     OW95192   5.774   7.473   8.460 -0.4965 -0.1132  0.4221
30885SOL    HW195193   5.858   7.455   8.503 -0.5144  0.8877  0.8784
30885SOL    HW295194   5.715   7.496   8.531 -1.0074 -0.2327  0.0380
30886SOL     OW95195   7.606   8.913   1.173  0.1554  0.8246 -0.5672
30886SOL    HW195196   7.649   8.920   1.258  2.3497 -1.5455 -1.3980
30886SOL    HW295197   7.542   8.842   1.185  0.1154  0.8329 -0.7423
30887SOL     OW95198   2.048   2.577   6.264 -0.3929 -0.0577 -0.5497
30887SOL    HW195199   1.991   2.505   6.237 -0.3230  0.0074 -0.8765
30887SOL    HW295200   2.134   2.554   6.227  0.1355 -0.8705  1.1425
30888SOL     OW95201   6.716   6.761   8.749 -0.1078  0.0285  0.1369
30888SOL    HW195202   6.697   6.855   8.746 -2.3921 -0.4321 -0.8180
30888SOL    HW295203   6.706   6.731   8.659  2.9010 -0.7426  0.0160
30889SOL     OW95204   5.091   9.299   7.335 -0.0517 -0.1396  0.2362
30889SOL    HW195205   5.132   9.379   7.366  0.4286 -0.5801  0.7390
30889SOL    HW295206   5.045   9.325   7.255  1.2293  0.3559 -0.3476
30890SOL     OW95207   9.573   3.576   4.877  0.0675 -0.4867 -0.6277
30890SOL    HW195208   9.542   3.489   4.852 -0.5013 -0.7936  1.1216
30890SOL    HW295209   9.615   3.610   4.798  0.2394 -2.3261 -1.3426
30891SOL     OW95210   4.326   5.721   5.344  0.5229  0.2089  0.0034
30891SOL    HW195211   4.342   5.639   5.391  1.2328 -0.0086 -0.6167
30891SOL    HW295212   4.236   5.713   5.312  0.8722 -0.6812 -0.7728
30892SOL     OW95213   2.751  10.146   0.186 -0.0099 -0.2287  0.4028
30892SOL    HW195214   2.813  10.129   0.257 -1.2343 -0.5697  1.4030
30892SOL    HW295215   2.801  10.128   0.106  1.0767 -0.8051  1.1977
30893SOL     OW95216   1.489   1.750   1.161 -0.3275 -0.1019  0.5325
30893SOL    HW195217   1.465   1.752   1.068  0.5335  2.4777  0.3082
30893SOL    HW295218   1.421   1.698   1.203 -0.6620 -1.4177 -1.5489
30894SOL     OW95219   0.644   7.149   9.268 -0.5272  0.0600  0.7723
30894SOL    HW195220   0.588   7.077   9.297 -1.2287  0.6555  0.9163
30894SOL    HW295221   0.733   7.119   9.286 -0.7036 -1.5318 -0.8895
30895SOL     OW95222   0.055   2.346   2.784  0.1645  0.0970 -0.2085
30895SOL    HW195223   0.061   2.437   2.812 -0.1451  0.1129 -0.1852
30895SOL    HW295224  -0.008   2.348   2.711 -0.0764 -0.1424 -0.0092
30896SOL     OW95225  10.148   5.300   7.257  0.4469 -0.4688  0.0939
30896SOL    HW195226  10.209   5.350   7.311 -0.8860  0.7670  0.4609
30896SOL    HW295227  10.143   5.350   7.175  0.5148 -0.9911 -0.2324
30897SOL     OW95228   0.427   1.975   0.883  0.2764 -0.5534  0.4215
30897SOL    HW195229   0.460   1.908   0.823 -0.4181  0.9245 -1.6616
30897SOL    HW295230   0.462   2.057   0.850 -2.8170  0.6907  0.0290
30898SOL     OW95231   9.173   3.789   2.252 -0.0336  0.2641 -0.1272
30898SOL    HW195232   9.152   3.698   2.270 -0.7757  0.5528  0.5071
30898SOL    HW295233   9.242   3.786   2.186 -1.7864 -0.7374 -1.9645
30899SOL     OW95234   8.942   2.351   8.086 -0.3180  0.8615 -0.0955
30899SOL    HW195235   8.861   2.332   8.133  0.0131 -0.8655 -0.1848
30899SOL    HW295236   8.921   2.335   7.994 -0.0771  1.1287 -0.2005
30900SOL     OW95237   1.719   8.616   8.502 -0.0614 -0.0758 -0.1483
30900SOL    HW195238   1.631   8.637   8.533 -0.3360 -0.3824 -0.7188
30900SOL    HW295239   1.760   8.701   8.486 -0.5198  0.0566 -0.6326
30901SOL     OW95240   4.291   5.714   6.159 -0.8436 -0.7558 -0.7672
30901SOL    HW195241   4.255   5.800   6.139 -0.2131 -0.3713 -0.2961
30901SOL    HW295242   4.355   5.731   6.229  0.7083 -1.3073 -2.0118
30902SOL     OW95243   1.687   6.241   5.847  0.6928  0.0536  0.0357
30902SOL    HW195244   1.617   6.270   5.905  0.8888 -1.2460  0.9334
30902SOL    HW295245   1.652   6.164   5.803  0.8558  0.5359 -0.9847
30903SOL     OW95246   4.992   1.779   8.088  0.6187  0.5164 -0.3074
30903SOL    HW195247   4.948   1.745   8.010  1.1340 -0.5251 -0.1525
30903SOL    HW295248   4.947   1.737   8.161 -1.1684  2.9832  0.0844
30904SOL     OW95249   6.582   0.210   1.876 -0.0922  0.1346 -0.4574
30904SOL    HW195250   6.588   0.243   1.965 -0.3777  0.9349 -0.7334
30904SOL    HW295251   6.540   0.280   1.826  1.2042  0.2056 -1.4914
30905SOL     OW95252   9.986   1.243   9.064  0.6131  0.1206 -0.1126
30905SOL    HW195253   9.951   1.323   9.103 -0.2664  0.0268 -0.7064
30905SOL    HW295254  10.006   1.186   9.139  2.6128  1.4321  0.4118
30906SOL     OW95255   9.316   1.655   6.206  0.0506 -0.3213  0.7231
30906SOL    HW195256   9.340   1.735   6.160  0.1142  0.7980  2.6816
30906SOL    HW295257   9.399   1.612   6.226 -0.0023 -1.1270 -0.7418
30907SOL     OW95258   6.546   2.706   0.375  0.9138 -0.3316 -0.2033
30907SOL    HW195259   6.569   2.778   0.433 -0.4871 -0.1954  0.1941
30907SOL    HW295260   6.494   2.647   0.430 -0.7967  0.0166 -1.4326
30908SOL     OW95261   9.275   3.501   9.568 -0.0250 -0.0258  0.4836
30908SOL    HW195262   9.274   3.551   9.485  0.0271  1.2562  1.2399
30908SOL    HW295263   9.328   3.424   9.548  3.1182  2.0651  0.3032
30909SOL     OW95264   1.560   5.198   4.813 -0.2758 -0.2047 -0.0194
30909SOL    HW195265   1.519   5.230   4.732 -0.1994  0.0474  0.0416
30909SOL    HW295266   1.588   5.277   4.858 -0.4194 -0.3389  0.3084
30910SOL     OW95267   3.191   3.665   2.187  0.0248  0.2852  0.0839
30910SOL    HW195268   3.120   3.666   2.123  0.0875 -2.1544 -0.0740
30910SOL    HW295269   3.249   3.595   2.157  0.9151  0.2234  1.8953
30911SOL     OW95270   8.577   2.112   8.237  0.3194 -0.2290 -0.0228
30911SOL    HW195271   8.563   2.191   8.184  0.6080  0.7184  1.2752
30911SOL    HW295272   8.581   2.041   8.173 -1.2742  0.6214 -1.1251
30912SOL     OW95273   8.058   0.646   8.352 -0.3704 -0.1823  0.3147
30912SOL    HW195274   7.988   0.588   8.322 -0.6260  0.4107 -0.2449
30912SOL    HW295275   8.043   0.728   8.304  1.7164 -0.6007 -1.1230
30913SOL     OW95276   9.012   4.657   8.494 -0.4983 -0.0142  0.5136
30913SOL    HW195277   9.069   4.671   8.569 -1.8073 -2.9370  2.1346
30913SOL    HW295278   9.071   4.629   8.424  0.5553  1.2120  0.9023
30914SOL     OW95279   2.866   8.598   2.341 -0.0073  0.1042 -0.1195
30914SOL    HW195280   2.907   8.610   2.427 -1.9914  0.1095  0.8637
30914SOL    HW295281   2.847   8.687   2.311 -0.1155  0.0654 -0.1668
30915SOL     OW95282   0.893   3.973   3.469 -0.1639 -0.0652  0.1377
30915SOL    HW195283   0.971   3.929   3.436  0.3383  0.5029  0.5585
30915SOL    HW295284   0.877   3.934   3.554 -0.5296 -0.4057 -0.0840
30916SOL     OW95285   3.166   3.954   3.615 -0.0835 -0.2244  0.4317
30916SOL    HW195286   3.219   3.989   3.688  0.5590 -1.1328  0.4153
30916SOL    HW295287   3.129   3.873   3.650 -0.5179 -0.1919  0.0440
30917SOL     OW95288   7.949   0.785   0.145 -0.1587 -0.1106 -0.6580
30917SOL    HW195289   8.036   0.774   0.107 -0.1255  0.7329 -0.8360
30917SOL    HW295290   7.923   0.873   0.120 -0.3268  0.3022  0.9275
30918SOL     OW95291   2.937   1.162   9.965 -0.0852 -0.3297 -0.0338
30918SOL    HW195292   2.950   1.178   9.872 -0.3850 -0.6365 -0.1321
30918SOL    HW295293   2.931   1.249  10.004  1.3129 -0.1969 -0.1167
30919SOL     OW95294   2.957   5.447   5.191 -0.1071 -0.7577 -0.3351
30919SOL    HW195295   3.045   5.483   5.195  0.0245 -0.9522 -1.3175
30919SOL    HW295296   2.900   5.524   5.186  0.0984 -0.6589 -1.1883
30920SOL     OW95297   8.157   9.981   5.294 -0.6456 -0.2370  0.4425
30920SOL    HW195298   8.071   9.977   5.252 -0.5911 -0.5310  0.3554
30920SOL    HW295299   8.180   9.890   5.310 -0.8128 -0.1037  1.4366
30921SOL     OW95300   8.957   0.533   3.305  0.1155 -0.2881 -0.6325
30921SOL    HW195301   9.005   0.566   3.381  0.1967 -1.1408 -0.3116
30921SOL    HW295302   8.986   0.589   3.233  0.2769  0.3253 -0.0977
30922SOL     OW95303   6.764   5.881   7.392  0.5691 -0.2611  0.1745
30922SOL    HW195304   6.704   5.856   7.322 -0.5059  1.2854  0.5001
30922SOL    HW295305   6.766   5.806   7.451 -2.7558  0.4067  1.2742
30923SOL     OW95306   1.747   4.643   2.406 -0.0274  0.2819  0.1001
30923SOL    HW195307   1.790   4.719   2.365 -0.0948 -0.4883 -1.4393
30923SOL    HW295308   1.655   4.668   2.412 -0.1550  0.1134 -0.9626
30924SOL     OW95309   7.290   2.888   3.503 -0.5627 -0.1973  0.0716
30924SOL    HW195310   7.381   2.864   3.486 -0.8094 -0.6328 -0.6512
30924SOL    HW295311   7.238   2.822   3.457 -1.2539 -0.3440  1.0209
30925SOL     OW95312   3.941   0.321   9.177 -0.0205 -0.1106  0.1210
30925SOL    HW195313   4.029   0.285   9.166  0.3882  0.2591  1.9525
30925SOL    HW295314   3.911   0.285   9.261 -0.5423  1.8916  0.8150
30926SOL     OW95315   2.773   6.759   1.403  0.0067  0.9079 -0.5784
30926SOL    HW195316   2.793   6.766   1.310 -2.3654  0.9209 -1.1391
30926SOL    HW295317   2.777   6.665   1.422 -0.1139  0.8491 -0.8404
30927SOL     OW95318   8.537   5.119   2.292 -0.3418 -0.0700 -0.1523
30927SOL    HW195319   8.460   5.131   2.348  0.8340  1.4759  1.1743
30927SOL    HW295320   8.604   5.085   2.351  0.1583 -0.9547 -1.2061
30928SOL     OW95321   7.104   3.814   4.274 -0.2152  0.6241 -0.1912
30928SOL    HW195322   7.033   3.875   4.255  0.1751  1.1902  0.1187
30928SOL    HW295323   7.079   3.733   4.230 -0.9532  0.8767 -0.2504
30929SOL     OW95324   1.380   3.000   0.801  0.2669  0.4970 -0.5363
30929SOL    HW195325   1.408   2.910   0.784  0.6399  0.3894  0.5779
30929SOL    HW295326   1.350   3.033   0.716  0.5864 -0.5156 -1.0477
30930SOL     OW95327   0.993   1.096   7.747 -0.1542 -0.4084  0.3873
30930SOL    HW195328   1.071   1.044   7.727  0.5017  1.3163 -1.7923
30930SOL    HW295329   0.998   1.170   7.686  0.1407  3.4400  4.8246
30931SOL     OW95330   0.942   2.519   6.375 -0.0032 -0.8627 -0.3487
30931SOL    HW195331   0.870   2.576   6.403  0.3410 -0.5371 -0.1328
30931SOL    HW295332   1.007   2.579   6.339 -0.6422 -1.3006 -2.3063
30932SOL     OW95333   5.546   3.899   3.162  0.8146 -0.1139  0.3511
30932SOL    HW195334   5.534   3.985   3.122 -0.1676  0.3432  1.6013
30932SOL    HW295335   5.532   3.837   3.090  1.0664  0.7527 -0.4498
30933SOL     OW95336   5.841   9.205   1.716 -0.0521  0.1616  0.4099
30933SOL    HW195337   5.923   9.243   1.747 -0.7551  0.2871  2.1501
30933SOL    HW295338   5.809   9.266   1.649 -0.5782  2.0581  2.3541
30934SOL     OW95339   4.250   5.506   4.971 -0.2764 -0.0380  0.3688
30934SOL    HW195340   4.253   5.601   4.981  1.0497 -0.1976  1.4517
30934SOL    HW295341   4.309   5.488   4.897  0.0019 -0.0910  0.6066
30935SOL     OW95342   0.415   7.330   8.736 -0.7781  0.5285  0.0360
30935SOL    HW195343   0.463   7.402   8.775 -0.4866  0.5501 -0.3531
30935SOL    HW295344   0.389   7.275   8.810 -1.7630  1.4811  0.4185
30936SOL     OW95345   5.344   0.541   2.439 -0.4270 -0.4180 -0.1597
30936SOL    HW195346   5.279   0.491   2.488 -0.9781  1.0027  0.6080
30936SOL    HW295347   5.295   0.579   2.366 -0.0236 -0.9382 -0.7085
30937SOL     OW95348   7.170   6.548   3.949 -0.3800 -0.1986  0.3061
30937SOL    HW195349   7.232   6.584   3.886 -1.4090  0.7037 -0.1969
30937SOL    HW295350   7.090   6.535   3.900 -1.3293  0.9249  1.5318
30938SOL     OW95351   5.622   9.968   7.568 -0.1294 -0.4175 -0.4502
30938SOL    HW195352   5.677  10.033   7.524 -2.0152  1.3423 -0.2948
30938SOL    HW295353   5.582  10.017   7.641  0.1581 -2.3541  1.0419
30939SOL     OW95354   8.188   2.494   6.002 -0.4863 -0.1728  0.2923
30939SOL    HW195355   8.123   2.450   5.948  0.5452 -0.0104 -1.1231
30939SOL    HW295356   8.239   2.423   6.041  0.9700 -0.3072 -1.7337
30940SOL     OW95357   4.794   7.326   3.356  0.3379  0.1829 -0.0794
30940SOL    HW195358   4.823   7.332   3.265 -2.3931 -0.0828 -1.0345
30940SOL    HW295359   4.839   7.398   3.401  0.4683  1.3449 -2.0017
30941SOL     OW95360   2.513   6.606   2.105 -0.0201  0.2972 -0.3891
30941SOL    HW195361   2.430   6.608   2.153 -1.5440  2.5916 -3.0105
30941SOL    HW295362   2.493   6.563   2.022  2.0276 -1.3637 -0.0915
30942SOL     OW95363   8.212   5.146   6.537 -0.2244 -0.3878  0.5386
30942SOL    HW195364   8.178   5.125   6.450 -3.2674 -0.2069  1.5882
30942SOL    HW295365   8.145   5.203   6.575  2.6171  2.2441  1.8103
30943SOL     OW95366   6.581  10.019   4.198 -0.7924  0.2255  0.3485
30943SOL    HW195367   6.655  10.072   4.228  0.2341 -1.4039  0.7098
30943SOL    HW295368   6.512  10.083   4.181  0.9262  1.8498 -0.7110
30944SOL     OW95369   9.152   3.566   1.226  0.0046 -0.2948 -0.4945
30944SOL    HW195370   9.223   3.523   1.273 -0.2277  0.5564  0.6460
30944SOL    HW295371   9.082   3.502   1.224  0.8024 -1.1508 -1.6478
30945SOL     OW95372   3.102   8.011   0.678 -0.3627  0.2514 -0.4915
30945SOL    HW195373   3.070   8.064   0.751 -0.9657  1.3866 -1.5426
30945SOL    HW295374   3.023   7.980   0.634 -0.0651  1.5545 -2.0328
30946SOL     OW95375   7.532   2.260   5.823 -0.1458 -0.1285 -0.0541
30946SOL    HW195376   7.581   2.233   5.745 -0.7163 -0.7053 -0.2162
30946SOL    HW295377   7.480   2.183   5.847 -1.0453  0.5017  0.0552
30947SOL     OW95378   9.674   3.810   8.067  0.8603  0.2632 -0.2480
30947SOL    HW195379   9.605   3.876   8.067  0.5867 -0.0107  0.8502
30947SOL    HW295380   9.737   3.842   8.133  0.2718 -1.0321  0.9645
30948SOL     OW95381   2.411   3.518   4.132 -0.0029 -0.4707  0.2162
30948SOL    HW195382   2.362   3.590   4.092  2.0305  0.6114 -0.3778
30948SOL    HW295383   2.445   3.554   4.214  0.7865 -0.8564  0.0601
30949SOL     OW95384   5.243   2.249   8.070  0.5736 -0.2790  0.2701
30949SOL    HW195385   5.218   2.182   8.007 -0.8863 -0.5418  1.1160
30949SOL    HW295386   5.252   2.202   8.153  0.1183  0.4643  0.7463
30950SOL     OW95387   5.307   8.795   8.515 -0.5353  0.3140 -0.0673
30950SOL    HW195388   5.221   8.811   8.555 -1.5212 -0.6822 -1.7183
30950SOL    HW295389   5.321   8.871   8.457 -0.2561  0.5230  0.2733
30951SOL     OW95390   3.081  10.094   4.311  0.2718 -0.0861  0.6327
30951SOL    HW195391   3.099  10.184   4.283 -0.1418  0.1068  0.9792
30951SOL    HW295392   3.055  10.048   4.230  0.8986 -0.0054  0.3826
30952SOL     OW95393   2.834   1.502   1.320  0.3727  0.3879  0.2052
30952SOL    HW195394   2.839   1.552   1.239  0.3720 -1.4610 -0.9877
30952SOL    HW295395   2.777   1.554   1.378  0.8943  2.0266 -0.7386
30953SOL     OW95396   4.232   0.536   3.571 -0.3729 -0.2586  0.1692
30953SOL    HW195397   4.238   0.461   3.631 -0.0639  1.0057  1.7516
30953SOL    HW295398   4.263   0.610   3.622 -4.7183  1.7815  0.0478
30954SOL     OW95399   3.445   1.258   1.120 -0.1322 -0.5337  0.4323
30954SOL    HW195400   3.475   1.337   1.165  0.7352 -0.2670 -0.5768
30954SOL    HW295401   3.398   1.291   1.043 -1.6626 -0.9831  1.1497
30955SOL     OW95402   4.798   8.012   5.984  0.6738 -0.2140  0.3456
30955SOL    HW195403   4.715   8.033   6.028 -0.5955  0.3116 -2.2487
30955SOL    HW295404   4.798   8.066   5.905  2.4325 -1.9472 -0.8739
30956SOL     OW95405   4.111   8.967   7.360 -0.2523  0.7317  0.1576
30956SOL    HW195406   4.046   8.900   7.383  0.5142  0.5787  1.9545
30956SOL    HW295407   4.188   8.945   7.412  0.3035  2.5351  0.1370
30957SOL     OW95408   7.569   2.838   8.261  0.2271 -0.0302  0.2865
30957SOL    HW195409   7.493   2.835   8.319  2.0161 -0.2708  2.6796
30957SOL    HW295410   7.553   2.769   8.197 -0.9161 -1.0566  1.6422
30958SOL     OW95411   8.568   9.902   2.568  0.1565 -0.0184 -0.1348
30958SOL    HW195412   8.626   9.908   2.644  0.7377 -2.9767 -0.2725
30958SOL    HW295413   8.617   9.850   2.505 -2.2566 -1.7286 -0.6594
30959SOL     OW95414   5.054   5.180   3.284 -0.3547 -0.0376  0.0108
30959SOL    HW195415   5.123   5.133   3.238 -1.1790  0.0661 -1.3726
30959SOL    HW295416   5.089   5.197   3.371  2.2186  1.9335 -1.3336
30960SOL     OW95417   2.156   9.458   8.122  0.4161  0.2081 -0.0806
30960SOL    HW195418   2.152   9.389   8.188  0.7106  0.7503  0.5079
30960SOL    HW295419   2.078   9.511   8.136  0.9113  0.8244  0.3943
30961SOL     OW95420   9.294   4.693   0.750  0.3633 -0.0362 -0.3183
30961SOL    HW195421   9.294   4.617   0.808  1.7930 -0.1962 -0.5215
30961SOL    HW295422   9.384   4.702   0.721  0.2103  1.7179 -0.3310
30962SOL     OW95423   6.441   5.241   9.161  0.1289 -0.1496  0.1194
30962SOL    HW195424   6.485   5.221   9.244 -0.0617 -2.1238 -0.2273
30962SOL    HW295425   6.484   5.184   9.097  1.0519  2.1556 -1.4021
30963SOL     OW95426   1.145   4.019   1.991  0.2369  0.5978 -0.5749
30963SOL    HW195427   1.153   4.054   2.079 -0.2839  1.8591 -1.0182
30963SOL    HW295428   1.235   4.015   1.959  0.3252  1.3517 -0.4397
30964SOL     OW95429   6.476   7.760   0.829 -0.4573  0.0107 -0.2496
30964SOL    HW195430   6.521   7.714   0.900 -1.3316 -2.1365 -1.0713
30964SOL    HW295431   6.545   7.812   0.787  0.4610 -0.2162  0.9551
30965SOL     OW95432   8.706   6.873   6.244  0.3048  0.1855  0.6692
30965SOL    HW195433   8.713   6.961   6.282  2.4943 -0.2485  1.3912
30965SOL    HW295434   8.735   6.815   6.314 -0.5435 -1.0747 -0.0043
30966SOL     OW95435   2.819   4.832   1.756 -0.1334  0.0379  0.6119
30966SOL    HW195436   2.765   4.867   1.827 -0.8287 -0.6495  0.4223
30966SOL    HW295437   2.770   4.852   1.676  1.4403  2.3257  0.1572
30967SOL     OW95438   2.909   7.865   6.556  0.4926 -1.0523  0.2570
30967SOL    HW195439   2.965   7.788   6.552 -0.6120 -1.8532 -0.3266
30967SOL    HW295440   2.941   7.916   6.631  0.9396 -2.3103  0.9232
30968SOL     OW95441   8.061   2.047   3.563  0.1629  0.0135 -0.4376
30968SOL    HW195442   8.072   1.994   3.484  1.0734  0.1572 -0.4166
30968SOL    HW295443   8.136   2.106   3.562 -0.2101  0.4944  0.1634
30969SOL     OW95444   3.485   1.891   6.813  0.2264 -0.1458 -0.0924
30969SOL    HW195445   3.564   1.896   6.760  0.5154 -1.1932  0.2265
30969SOL    HW295446   3.509   1.930   6.897  0.3849 -0.3779 -0.0282
30970SOL     OW95447   7.187   0.424   8.376 -0.4352  0.1205  0.1983
30970SOL    HW195448   7.236   0.391   8.452 -1.3736  0.9320  1.1850
30970SOL    HW295449   7.095   0.406   8.398 -0.6420 -0.6580 -1.2702
30971SOL     OW95450   5.509   1.877   3.024 -0.0660 -0.5671  0.5143
30971SOL    HW195451   5.458   1.798   3.007  0.9484 -1.0643 -0.2912
30971SOL    HW295452   5.494   1.933   2.947  1.9473 -1.4470 -0.5567
30972SOL     OW95453   0.915   2.168   8.709  0.1477  0.4670 -0.1189
30972SOL    HW195454   0.982   2.129   8.654  0.1473  0.3368 -0.0271
30972SOL    HW295455   0.835   2.122   8.686  0.0390  0.8067 -0.4207
30973SOL     OW95456   5.299   4.725   3.815  0.0875  0.2934  0.0847
30973SOL    HW195457   5.320   4.790   3.882  0.3816 -0.0292  0.3090
30973SOL    HW295458   5.377   4.669   3.810 -0.5730 -0.7000  0.6707
30974SOL     OW95459   4.827   9.765   7.680  0.2088  0.2565 -0.4715
30974SOL    HW195460   4.840   9.852   7.716  0.9735 -1.1730  2.9448
30974SOL    HW295461   4.741   9.768   7.638 -2.0323  1.3682  3.8857
30975SOL     OW95462   5.326   6.776   1.509  0.6629  0.0386 -0.0726
30975SOL    HW195463   5.230   6.778   1.505  0.6860 -0.2309 -0.8213
30975SOL    HW295464   5.354   6.816   1.427  1.1886 -0.3636 -0.0935
30976SOL     OW95465   5.281   9.863   4.835  0.9047  0.4994 -0.9427
30976SOL    HW195466   5.327   9.874   4.752  0.2300 -1.1972 -1.5732
30976SOL    HW295467   5.294   9.946   4.881  5.0199 -0.0658 -0.8612
30977SOL     OW95468   4.776   9.653   0.952 -0.5720 -0.4701  0.0061
30977SOL    HW195469   4.713   9.693   0.893 -1.6664 -3.2987 -0.7681
30977SOL    HW295470   4.725   9.629   1.029 -0.2150 -1.7185 -0.1459
30978SOL     OW95471   6.925   2.477   1.204  0.5925 -0.1762 -0.5114
30978SOL    HW195472   7.020   2.484   1.198  0.6602 -1.5474 -1.3430
30978SOL    HW295473   6.897   2.459   1.114 -0.4636  0.3175 -0.2892
30979SOL     OW95474   5.631   8.506   8.548 -0.0142  0.1581  0.7803
30979SOL    HW195475   5.684   8.577   8.585 -0.5421 -0.5098  2.8636
30979SOL    HW295476   5.544   8.518   8.587 -0.7443 -0.2568 -0.6828
30980SOL     OW95477   8.615   7.418   8.984  0.7775 -0.7157 -0.1069
30980SOL    HW195478   8.632   7.511   8.992  2.1610 -1.0184  0.5147
30980SOL    HW295479   8.653   7.394   8.900 -0.5617 -0.5149 -0.7896
30981SOL     OW95480   9.612   4.126   4.505 -0.1459  0.0648 -0.1565
30981SOL    HW195481   9.619   4.112   4.411 -1.6939  0.8916 -0.4030
30981SOL    HW295482   9.632   4.040   4.543  1.1253 -0.1128 -1.1991
30982SOL     OW95483   6.919   8.012   7.450 -0.2916 -0.5485  0.0001
30982SOL    HW195484   6.826   8.009   7.472 -0.2702 -0.6532  0.0784
30982SOL    HW295485   6.953   7.927   7.477 -0.1754 -0.5156 -0.0413
30983SOL     OW95486   1.031   7.322   3.084  0.2713  0.0705  0.7646
30983SOL    HW195487   1.012   7.228   3.085 -1.7606  0.4703  1.4560
30983SOL    HW295488   1.001   7.353   3.169 -0.6524  1.6432 -0.1261
30984SOL     OW95489   2.178   6.034   4.751 -0.5066  0.0163 -0.0519
30984SOL    HW195490   2.243   6.039   4.822 -3.3369  2.4385  2.5382
30984SOL    HW295491   2.180   6.120   4.710 -1.0478 -0.3633 -0.8845
30985SOL     OW95492   7.196   3.555   9.459  0.2674 -0.0621 -0.1436
30985SOL    HW195493   7.181   3.611   9.535 -1.3143 -2.1868  1.1744
30985SOL    HW295494   7.186   3.613   9.384  0.2114  1.7364  1.2224
30986SOL     OW95495   3.352   9.167   6.714 -0.1146  0.2076 -0.4535
30986SOL    HW195496   3.313   9.089   6.752  1.1605  0.2280  0.9763
30986SOL    HW295497   3.288   9.236   6.727 -1.3763 -0.6451 -2.0005
30987SOL     OW95498   3.768   3.332   5.052  0.1344  0.0439  0.1492
30987SOL    HW195499   3.753   3.344   5.146 -0.4264 -1.6934  0.3090
30987SOL    HW295500   3.750   3.418   5.014  0.0501  0.6886  1.5821
30988SOL     OW95501   7.796   0.128   5.672  0.0210  0.1324  0.0201
30988SOL    HW195502   7.740   0.197   5.636 -0.9479  0.6203  2.3762
30988SOL    HW295503   7.740   0.051   5.678 -0.5085  0.6394  2.4449
30989SOL     OW95504   3.861   5.473   5.445  0.1995 -0.2270 -0.0686
30989SOL    HW195505   3.825   5.541   5.502  1.8098  2.2680 -1.9077
30989SOL    HW295506   3.904   5.412   5.505  1.2242  1.9584  1.5032
30990SOL     OW95507   8.437   1.382   2.107  0.1380 -0.0433  0.4663
30990SOL    HW195508   8.404   1.470   2.088  0.1419 -0.2055 -0.3103
30990SOL    HW295509   8.532   1.392   2.111  0.2006 -0.1546 -0.4542
30991SOL     OW95510   9.378   3.906   5.176  0.0763  0.2075  0.1168
30991SOL    HW195511   9.294   3.930   5.135 -0.3736  1.4230  1.6917
30991SOL    HW295512   9.361   3.912   5.270  0.8836 -3.2456  0.5426
30992SOL     OW95513   7.487   9.653   8.465 -0.2562  0.5857  0.5738
30992SOL    HW195514   7.509   9.744   8.487 -1.6679  1.0826  0.0165
30992SOL    HW295515   7.409   9.634   8.517 -0.3229 -0.1028  0.2224
30993SOL     OW95516   0.792   3.014   2.298 -0.0273  0.1263  0.0726
30993SOL    HW195517   0.727   2.982   2.361  0.5082 -1.1794 -0.0150
30993SOL    HW295518   0.758   2.987   2.213  0.6385 -0.5946  0.0287
30994SOL     OW95519   8.093  10.028   7.563  0.6143 -0.0523  0.1185
30994SOL    HW195520   8.002  10.008   7.543  0.5045  2.3320 -2.0429
30994SOL    HW295521   8.142   9.953   7.529 -0.3606 -0.2874 -0.7934
30995SOL     OW95522   6.339   9.016   6.121 -0.1959  0.0847  0.4894
30995SOL    HW195523   6.353   9.085   6.186  4.3381  0.4885 -0.7199
30995SOL    HW295524   6.345   8.934   6.170 -0.1717  0.4497  1.0980
30996SOL     OW95525   1.586   5.398   0.848 -0.6917  0.4368 -0.0813
30996SOL    HW195526   1.545   5.409   0.934  0.4572  1.8468  0.3031
30996SOL    HW295527   1.542   5.461   0.792 -1.8295 -0.8662 -0.7012
30997SOL     OW95528   2.753   3.572   9.021 -0.2338  0.3402 -0.1720
30997SOL    HW195529   2.781   3.641   9.081  0.7934 -1.1937  1.1185
30997SOL    HW295530   2.835   3.531   8.992 -0.8619 -0.4987 -0.7649
30998SOL     OW95531   2.123   3.310   7.939 -0.4493  0.6841  0.0344
30998SOL    HW195532   2.075   3.262   7.873 -1.0359 -0.2453  1.1266
30998SOL    HW295533   2.090   3.400   7.932 -1.4821  0.3027 -0.0164
30999SOL     OW95534   5.750   1.044  10.014  0.2250 -0.2011 -0.7136
30999SOL    HW195535   5.742   1.133   9.978  0.9244  0.3947  0.5644
30999SOL    HW295536   5.765   0.989   9.938 -0.9793  0.6677 -1.6078
31000SOL     OW95537   3.814   1.205   5.559  0.0077  0.2786 -0.3797
31000SOL    HW195538   3.790   1.114   5.577 -0.0837  0.0620 -1.5370
31000SOL    HW295539   3.902   1.200   5.521  0.8779  0.8578  1.5117
31001SOL     OW95540   3.291   7.796   9.820  0.3235  0.4961  0.6977
31001SOL    HW195541   3.235   7.858   9.867 -0.6927 -0.6971  1.0947
31001SOL    HW295542   3.237   7.766   9.747  0.2417 -1.0599  1.3818
31002SOL     OW95543   1.740   0.612   8.618  0.4440 -0.2782 -0.4653
31002SOL    HW195544   1.819   0.662   8.596  0.3966  0.6148  1.2762
31002SOL    HW295545   1.746   0.533   8.564  2.5152 -0.1995 -0.4128
31003SOL     OW95546   7.357   9.023   8.472 -0.0021  0.0362  0.0898
31003SOL    HW195547   7.296   9.067   8.412 -0.7261 -1.0977 -0.0256
31003SOL    HW295548   7.361   8.933   8.440  0.6415 -0.2480  0.9561
31004SOL     OW95549  10.161   2.071   5.222 -0.4083 -0.3916  0.5641
31004SOL    HW195550  10.164   1.990   5.273 -0.9253 -0.1369  0.9968
31004SOL    HW295551  10.137   2.043   5.134  2.2132 -1.0454  0.0056
31005SOL     OW95552   3.079   5.768   6.289  0.1641 -0.5799 -0.2090
31005SOL    HW195553   3.010   5.818   6.334 -0.4271 -1.7518  0.2081
31005SOL    HW295554   3.157   5.781   6.343  0.0654  0.0597 -0.2156
31006SOL     OW95555   1.361   8.438   4.161 -0.3024 -0.1996 -0.1114
31006SOL    HW195556   1.367   8.358   4.213 -1.6192  0.5996  1.2905
31006SOL    HW295557   1.443   8.439   4.111  0.6419 -1.3823  1.3566
31007SOL     OW95558   7.647   1.454   8.803  0.0033 -0.6247 -0.0912
31007SOL    HW195559   7.671   1.391   8.735  0.2581  0.0252 -0.6090
31007SOL    HW295560   7.562   1.488   8.775 -0.2139 -0.8480  0.2764
31008SOL     OW95561   7.851   0.503   3.891 -0.1026  0.1547 -0.2094
31008SOL    HW195562   7.853   0.466   3.979 -1.2151 -2.3335 -1.1826
31008SOL    HW295563   7.929   0.468   3.848  1.1600  2.4142  0.1348
31009SOL     OW95564   6.397   3.391   3.812  0.3383 -0.1920  0.2226
31009SOL    HW195565   6.408   3.350   3.898 -0.9461 -1.6202 -0.2624
31009SOL    HW295566   6.382   3.318   3.752 -0.8140  0.9161 -0.8748
31010SOL     OW95567   8.615   2.646   6.836  0.5727 -0.0130 -0.4848
31010SOL    HW195568   8.622   2.626   6.743 -0.0952 -1.7811 -0.1697
31010SOL    HW295569   8.549   2.585   6.870 -0.3654  1.6889  0.8415
31011SOL     OW95570   3.699   2.152   3.492  0.8521  0.2233  0.4420
31011SOL    HW195571   3.680   2.234   3.448  2.5189  1.1802  1.4305
31011SOL    HW295572   3.613   2.116   3.515  0.0120  0.3900 -2.2601
31012SOL     OW95573   6.282   9.073   7.880 -0.5172  0.6693  0.3579
31012SOL    HW195574   6.343   9.142   7.855  1.0222 -1.2298 -1.2646
31012SOL    HW295575   6.321   9.033   7.957  0.2143 -0.4224 -0.5672
31013SOL     OW95576   6.070   7.664   6.336  0.4829  0.0368 -0.0062
31013SOL    HW195577   6.024   7.636   6.415 -0.5474  4.0216  0.9204
31013SOL    HW295578   6.024   7.619   6.265 -3.9077  2.4975  1.0365
31014SOL     OW95579   4.112   5.869   1.996 -0.4339 -0.3943 -0.1184
31014SOL    HW195580   4.031   5.885   1.948 -0.1403  2.2119  0.1995
31014SOL    HW295581   4.083   5.841   2.083 -1.0381  1.0229  0.1557
31015SOL     OW95582   9.814   6.233   1.359  0.1471  0.1776  0.3585
31015SOL    HW195583   9.902   6.238   1.322  0.1836 -0.6608  0.3177
31015SOL    HW295584   9.826   6.242   1.453  0.3601 -0.7489  0.4227
31016SOL     OW95585   3.625   8.787   9.020 -0.5007 -0.4752 -0.0420
31016SOL    HW195586   3.715   8.755   9.016 -0.5788 -0.4516 -2.3039
31016SOL    HW295587   3.595   8.787   8.930 -1.4827  3.1824  0.1988
31017SOL     OW95588   4.561   1.424   7.507  0.3572  0.0706  0.5665
31017SOL    HW195589   4.491   1.483   7.533  0.8878  0.5802  0.8602
31017SOL    HW295590   4.639   1.480   7.501  0.3263 -0.0914 -1.8029
31018SOL     OW95591   6.045   8.355   8.203 -0.4941 -0.1320  0.0574
31018SOL    HW195592   6.085   8.441   8.205  0.2961 -0.5178  0.7867
31018SOL    HW295593   5.966   8.367   8.150 -0.7057  1.1693  0.6547
31019SOL     OW95594   4.790   5.119   7.242  0.1965 -0.5136  0.2274
31019SOL    HW195595   4.852   5.083   7.178  0.8508  2.2049 -0.7432
31019SOL    HW295596   4.845   5.148   7.315 -0.2197 -0.6303  0.5880
31020SOL     OW95597   0.052   3.185   6.752 -0.1615 -0.1472  0.4207
31020SOL    HW195598  -0.029   3.144   6.783  0.5065 -1.2852  0.6989
31020SOL    HW295599   0.024   3.269   6.716 -1.1808  0.4978  2.6232
31021SOL     OW95600   4.653   8.322   2.596  0.3026 -0.1325 -0.1480
31021SOL    HW195601   4.677   8.252   2.657 -0.1362  0.3213  0.5532
31021SOL    HW295602   4.561   8.339   2.614  0.3676  0.5186 -0.4247
31022SOL     OW95603   4.703   9.610   8.892  0.5441  0.0417  0.3494
31022SOL    HW195604   4.726   9.686   8.945 -0.0118  0.8244 -0.5031
31022SOL    HW295605   4.665   9.648   8.812 -3.1491 -1.1329  1.4421
31023SOL     OW95606   6.272   8.253   4.462  0.3049  0.4021  0.1119
31023SOL    HW195607   6.262   8.161   4.484 -1.4338  0.3836 -0.6556
31023SOL    HW295608   6.265   8.256   4.366 -1.2931  1.5029  0.2400
31024SOL     OW95609  10.139   2.965   0.540 -0.3536  0.2265 -0.4053
31024SOL    HW195610  10.179   2.907   0.475  1.2105  1.2657 -0.3988
31024SOL    HW295611  10.170   2.930   0.624 -0.8579  0.0038 -0.3137
31025SOL     OW95612   3.750   2.270   0.723 -0.2620  0.3665  0.2246
31025SOL    HW195613   3.656   2.272   0.742 -0.3674 -0.4348 -0.1825
31025SOL    HW295614   3.782   2.191   0.767  0.3963  1.1339  1.1354
31026SOL     OW95615   8.419   7.375   2.538  0.0846  0.0347 -0.1865
31026SOL    HW195616   8.468   7.316   2.480 -1.6313  0.7967 -2.5007
31026SOL    HW295617   8.484   7.436   2.572  1.3833 -1.3948 -0.0626
31027SOL     OW95618   6.464   1.249   2.076  0.4905  0.4846  0.3078
31027SOL    HW195619   6.386   1.239   2.131  0.1996 -0.6807 -0.3100
31027SOL    HW295620   6.441   1.208   1.993  1.6949  0.2822  0.0554
31028SOL     OW95621   0.924   4.572   3.529  0.1468 -0.2878 -1.1584
31028SOL    HW195622   0.975   4.491   3.536 -0.8058 -0.6556  2.8477
31028SOL    HW295623   0.841   4.553   3.573 -1.1339  2.0944 -2.4062
31029SOL     OW95624   4.224   1.230   6.591  0.1886  0.2214 -0.6374
31029SOL    HW195625   4.253   1.224   6.500  0.1359 -0.4582 -0.6097
31029SOL    HW295626   4.132   1.258   6.585  1.4040  4.6978 -0.6743
31030SOL     OW95627   5.419   0.860  10.147 -0.2393 -0.0050  0.1174
31030SOL    HW195628   5.330   0.827  10.134  0.0341 -0.3447 -0.9699
31030SOL    HW295629   5.458   0.860  10.059  1.3862 -1.4747  0.7993
31031SOL     OW95630   4.345   9.794   3.492 -0.3445 -0.5041 -0.0033
31031SOL    HW195631   4.303   9.811   3.577 -1.4280 -1.0604 -0.4223
31031SOL    HW295632   4.429   9.841   3.498 -0.9026  0.4249  0.9330
31032SOL     OW95633   9.166   1.635   4.774 -0.0142  0.2505 -0.5863
31032SOL    HW195634   9.196   1.546   4.796  1.4827  1.0398  0.6580
31032SOL    HW295635   9.217   1.659   4.697 -1.1462 -0.3362 -1.5359
31033SOL     OW95636   6.761   4.171   6.805 -0.0179  0.4796  0.3231
31033SOL    HW195637   6.672   4.142   6.822  0.3905  0.2445  2.1487
31033SOL    HW295638   6.797   4.191   6.891  1.7305  0.4649 -0.3818
31034SOL     OW95639   7.318   6.486   8.724  0.3539 -0.0023  0.2939
31034SOL    HW195640   7.394   6.544   8.727 -0.7179  1.3996  2.5602
31034SOL    HW295641   7.263   6.522   8.655  1.1429 -0.2185 -0.4493
31035SOL     OW95642   6.776   3.582  10.164  0.4271 -0.6126  0.4472
31035SOL    HW195643   6.806   3.655  10.110  0.2218 -1.2559 -0.5640
31035SOL    HW295644   6.681   3.582  10.154  0.4194 -0.9652  0.5045
31036SOL     OW95645   6.518   2.743   2.946 -0.1831 -0.1414  0.3758
31036SOL    HW195646   6.535   2.747   2.852 -2.1262 -0.3833 -0.0224
31036SOL    HW295647   6.534   2.652   2.970  2.4971  0.4069  0.7502
31037SOL     OW95648   8.597   4.707   5.308  0.0682 -0.2934 -0.5197
31037SOL    HW195649   8.586   4.612   5.318 -0.6706 -0.1675 -0.0777
31037SOL    HW295650   8.552   4.743   5.384  0.5148  0.4074 -0.5911
31038SOL     OW95651   3.370   4.217   2.912  0.3086  0.3033 -0.3061
31038SOL    HW195652   3.412   4.132   2.903 -2.3703 -1.0785 -0.3563
31038SOL    HW295653   3.356   4.227   3.007  2.3316  1.5957 -0.1105
31039SOL     OW95654   7.627   1.012   0.254 -0.2593 -0.5827  0.3892
31039SOL    HW195655   7.615   0.967   0.338  0.2762 -2.1373 -0.3503
31039SOL    HW295656   7.688   1.083   0.274  1.3272 -2.0754  0.9560
31040SOL     OW95657   1.675   2.982   8.841  0.0994 -0.3588  0.0989
31040SOL    HW195658   1.727   3.027   8.775 -0.6147 -1.3004 -1.1439
31040SOL    HW295659   1.738   2.925   8.886  0.4477 -0.2698 -0.2712
31041SOL     OW95660   7.246   3.806   1.381 -0.3022 -0.2085 -0.2475
31041SOL    HW195661   7.293   3.725   1.362 -1.3297 -1.2099  1.3762
31041SOL    HW295662   7.311   3.863   1.421  0.0837 -0.7293 -0.1314
31042SOL     OW95663   7.632   2.435   7.292 -0.2251 -0.0618 -0.2479
31042SOL    HW195664   7.594   2.370   7.352 -0.6809  0.5453  0.1336
31042SOL    HW295665   7.557   2.490   7.267  0.3503  1.0004  0.3140
31043SOL     OW95666   6.379  10.103   2.622 -0.6484 -0.2788  0.0422
31043SOL    HW195667   6.308  10.126   2.561 -0.8105 -0.5023  0.1476
31043SOL    HW295668   6.441  10.054   2.569 -0.0861  0.7799 -0.2947
31044SOL     OW95669   5.410   9.668   0.583  0.6681  0.2653 -0.6364
31044SOL    HW195670   5.378   9.694   0.497 -0.2225  0.2628 -0.3072
31044SOL    HW295671   5.470   9.595   0.565  0.1902  0.0117 -1.2289
31045SOL     OW95672   3.688   9.477   3.585  0.3700 -0.6678  0.1623
31045SOL    HW195673   3.656   9.467   3.674 -0.1751  0.6128  0.1244
31045SOL    HW295674   3.778   9.508   3.595  0.2397 -0.3247  0.2651
31046SOL     OW95675   7.431   6.095   7.733 -0.1431  0.0047 -0.1643
31046SOL    HW195676   7.341   6.082   7.702 -0.7236 -0.7143  1.7563
31046SOL    HW295677   7.448   6.188   7.718 -1.4586  0.2941  0.1334
31047SOL     OW95678   0.593   5.166   2.093 -0.5279  0.0171 -0.3406
31047SOL    HW195679   0.597   5.191   2.000 -3.2990  1.4802 -0.1225
31047SOL    HW295680   0.580   5.071   2.091 -0.6475  0.0426 -1.4507
31048SOL     OW95681   8.478   7.895   8.455  0.6816 -0.2473 -0.3747
31048SOL    HW195682   8.514   7.976   8.492 -0.1954  0.0102 -0.0647
31048SOL    HW295683   8.385   7.897   8.480  0.3598 -0.6952 -1.5097
31049SOL     OW95684   0.870   9.254   2.651 -0.2710  0.3128 -0.0768
31049SOL    HW195685   0.839   9.202   2.725 -1.7774  0.0316 -0.8663
31049SOL    HW295686   0.844   9.344   2.672  0.7050  0.4727  0.4523
31050SOL     OW95687   0.371   5.890   7.717  0.2199  0.3110  0.0568
31050SOL    HW195688   0.446   5.847   7.758  0.8147  0.6232 -0.6871
31050SOL    HW295689   0.320   5.818   7.679  0.2407  0.1129  0.4052
31051SOL     OW95690   3.764   1.674   8.514  0.3984 -0.5049  0.3186
31051SOL    HW195691   3.825   1.748   8.523 -1.0169  0.5139  1.7371
31051SOL    HW295692   3.812   1.599   8.548  1.8390 -0.2675 -1.0903
31052SOL     OW95693   0.257   0.900   8.945  0.0536  0.1111  0.3326
31052SOL    HW195694   0.207   0.970   8.903  0.2973 -0.7071 -1.4041
31052SOL    HW295695   0.192   0.846   8.989 -0.3751  0.2358 -0.1442
31053SOL     OW95696   3.013   0.778   3.167  0.6768  0.1849  0.3776
31053SOL    HW195697   2.947   0.708   3.165  2.0216 -1.0879 -1.1632
31053SOL    HW295698   3.023   0.799   3.259  0.3778 -1.8012  0.8814
31054SOL     OW95699   6.706   4.189  10.031 -0.0385 -0.6596 -0.4455
31054SOL    HW195700   6.637   4.206  10.095  0.8140  1.0439  0.0675
31054SOL    HW295701   6.698   4.096  10.011 -1.2959 -0.8894  0.9912
31055SOL     OW95702   2.890   5.588   1.890  0.0909 -0.5199  0.0051
31055SOL    HW195703   2.850   5.612   1.973 -0.5505 -1.4407 -0.0438
31055SOL    HW295704   2.906   5.672   1.847  0.9974 -0.0022  1.3160
31056SOL     OW95705   9.738   9.700   2.389 -0.1535  0.4958  0.7220
31056SOL    HW195706   9.829   9.676   2.372  0.2053  1.0309  1.8431
31056SOL    HW295707   9.709   9.742   2.308  0.7815  0.8553  0.5663
31057SOL     OW95708   2.368   7.028   3.869  0.0768  0.2010 -0.1546
31057SOL    HW195709   2.324   7.062   3.791 -0.9276 -1.4696 -0.3287
31057SOL    HW295710   2.308   6.962   3.904  1.3723 -0.4059  0.9648
31058SOL     OW95711   2.640   4.947   1.974  0.2400  0.7784 -0.2475
31058SOL    HW195712   2.681   5.024   2.013  0.5632  0.1338  0.7188
31058SOL    HW295713   2.625   4.888   2.048 -0.8146  0.2733 -0.8445
31059SOL     OW95714   8.897   3.157   9.401  0.4488 -0.4554  0.2909
31059SOL    HW195715   8.810   3.135   9.368  0.1244  0.4368  0.5493
31059SOL    HW295716   8.892   3.250   9.421  1.1483 -0.6265  1.2951
31060SOL     OW95717   1.055  10.048   5.731 -0.2380  0.4945  0.6011
31060SOL    HW195718   1.014  10.011   5.810 -1.5589  0.6008 -0.0288
31060SOL    HW295719   1.024  10.139   5.728  0.3358  0.6806  0.3239
31061SOL     OW95720   4.130   2.677   3.241  0.2139 -0.0424  0.1642
31061SOL    HW195721   4.168   2.759   3.273 -0.7779  0.3768  0.2863
31061SOL    HW295722   4.036   2.688   3.254  0.0554 -1.0905 -0.0846
31062SOL     OW95723   6.140   7.804   7.378  0.3527 -0.1712 -0.5430
31062SOL    HW195724   6.133   7.816   7.473  1.1127  0.5886 -0.5772
31062SOL    HW295725   6.149   7.709   7.367 -1.0452 -0.3801  0.0543
31063SOL     OW95726   7.730   8.052   8.315 -0.0720 -0.4145  0.5241
31063SOL    HW195727   7.666   8.010   8.372 -0.5531  1.6214  1.5459
31063SOL    HW295728   7.775   8.115   8.371  1.7461 -0.7145 -0.5702
31064SOL     OW95729   9.282   5.575   3.837 -0.1016 -0.0753  0.0531
31064SOL    HW195730   9.278   5.604   3.928 -0.2360 -0.1283  0.0638
31064SOL    HW295731   9.351   5.509   3.836  0.5105  0.5495 -0.0569
31065SOL     OW95732   7.819   9.076   9.295  0.4885  0.1190  0.0893
31065SOL    HW195733   7.844   8.986   9.277  0.2822  0.2515 -0.9094
31065SOL    HW295734   7.855   9.095   9.382  0.1178 -1.0690  0.5072
31066SOL     OW95735   7.136   1.737   1.640  0.0223 -0.4291 -0.2031
31066SOL    HW195736   7.101   1.822   1.614 -0.4826 -0.6911 -0.3838
31066SOL    HW295737   7.189   1.708   1.566 -0.5086 -0.6648 -0.4927
31067SOL     OW95738   9.764   5.464   1.566  0.3467  0.0223 -0.0958
31067SOL    HW195739   9.759   5.499   1.655  2.1288 -2.9211  1.2348
31067SOL    HW295740   9.856   5.475   1.541 -0.1282  0.7515 -1.5614
31068SOL     OW95741   3.469   7.588   5.198  0.1247  0.1088 -0.0417
31068SOL    HW195742   3.552   7.550   5.227  1.0062  0.8618 -1.4992
31068SOL    HW295743   3.464   7.567   5.105 -1.0211  0.6029 -0.0955
31069SOL     OW95744   7.735   9.198   0.779  0.2733  0.1060  0.2705
31069SOL    HW195745   7.687   9.166   0.856 -0.0458  1.2098  0.5426
31069SOL    HW295746   7.827   9.188   0.803  0.1774  1.1720  1.1114
31070SOL     OW95747   2.105   3.982   5.875  0.8521  0.5377 -0.4885
31070SOL    HW195748   2.095   3.893   5.909  1.1943  0.6745 -0.0276
31070SOL    HW295749   2.199   3.995   5.869  0.8166  1.3381  0.6724
31071SOL     OW95750   3.648   7.571   6.115 -0.1469  0.1660  0.2835
31071SOL    HW195751   3.621   7.589   6.206 -1.0840 -1.5573  0.3616
31071SOL    HW295752   3.591   7.628   6.063 -1.0851 -0.3842  0.6802
31072SOL     OW95753   9.073   7.896   0.509 -0.0452  0.1499 -0.5882
31072SOL    HW195754   9.068   7.804   0.486  0.6054 -0.2087  0.6935
31072SOL    HW295755   8.985   7.918   0.541  0.3161 -0.5032  0.8710
31073SOL     OW95756   8.166   7.212   8.131 -0.7313 -0.5111 -0.0187
31073SOL    HW195757   8.160   7.307   8.141 -0.5134 -0.5254  0.2491
31073SOL    HW295758   8.129   7.195   8.044 -1.8437 -0.2932  0.3967
31074SOL     OW95759   6.163   5.028   9.769  0.2701  0.7959  0.1805
31074SOL    HW195760   6.090   5.090   9.775 -0.5973 -0.0365 -1.4223
31074SOL    HW295761   6.234   5.069   9.819 -0.2153  3.1854 -1.0112
31075SOL     OW95762   3.911   0.187   6.092  0.3754  0.0600  0.0936
31075SOL    HW195763   3.902   0.281   6.076  2.6040  0.0127 -1.6825
31075SOL    HW295764   4.006   0.171   6.093  0.0309 -2.3276 -0.7273
31076SOL     OW95765   5.078   9.318   0.444  0.1104 -0.1915 -0.1613
31076SOL    HW195766   5.171   9.319   0.421  0.0398 -0.5803 -0.4621
31076SOL    HW295767   5.071   9.383   0.514  0.8956 -1.2524  0.9275
31077SOL     OW95768   3.113   4.422   1.850 -0.4075 -0.4733 -0.2843
31077SOL    HW195769   3.063   4.386   1.924 -0.6776  0.8569  0.2061
31077SOL    HW295770   3.048   4.472   1.800  0.2292  0.4770 -0.1769
31078SOL     OW95771   6.510   9.370   4.545  0.0805  0.1183 -0.8961
31078SOL    HW195772   6.441   9.373   4.611  0.7744  0.7918 -0.1870
31078SOL    HW295773   6.476   9.312   4.477 -0.6667 -0.5322  0.0208
31079SOL     OW95774   9.203   9.237   0.292  0.0425 -1.0231 -0.5849
31079SOL    HW195775   9.133   9.229   0.226  1.0170 -1.9512 -1.5225
31079SOL    HW295776   9.230   9.147   0.309 -0.7587 -0.8657  1.7404
31080SOL     OW95777   5.709   2.319   3.858  0.0754 -0.6904  0.6064
31080SOL    HW195778   5.650   2.342   3.929  0.2492 -0.8250  0.7962
31080SOL    HW295779   5.684   2.376   3.786  1.3973  1.0653  1.4960
31081SOL     OW95780   5.822   9.430   4.925 -0.1724 -0.3820  0.0430
31081SOL    HW195781   5.776   9.503   4.966 -0.6387  0.2386 -1.5659
31081SOL    HW295782   5.754   9.381   4.879  0.4553 -0.6712 -0.5830
31082SOL     OW95783   0.855   7.796   3.801 -0.1806  0.8107 -0.3524
31082SOL    HW195784   0.947   7.770   3.804 -0.8269 -1.4688  0.3750
31082SOL    HW295785   0.844   7.850   3.880  0.6190  1.4661 -0.6751
31083SOL     OW95786   5.836   4.593   4.689  0.3202 -0.4990 -0.1334
31083SOL    HW195787   5.762   4.605   4.630  0.1474  2.1764  0.5765
31083SOL    HW295788   5.913   4.597   4.633  0.0400 -0.5465 -0.5214
31084SOL     OW95789   6.832   7.990   1.500 -0.1817 -0.4802  0.4575
31084SOL    HW195790   6.927   7.999   1.495 -0.3707  0.8986 -1.1747
31084SOL    HW295791   6.817   7.927   1.570  2.0126 -2.4830 -0.8067
31085SOL     OW95792   8.708   1.318   2.823  0.1327  0.0297 -0.0182
31085SOL    HW195793   8.715   1.321   2.728 -0.4492  1.6133 -0.0252
31085SOL    HW295794   8.768   1.386   2.854 -0.6826  0.4441  0.6842
31086SOL     OW95795   5.444   0.484   7.948  0.2036 -0.1761  0.0773
31086SOL    HW195796   5.423   0.559   7.891 -0.3533 -0.0357  0.4608
31086SOL    HW295797   5.451   0.522   8.035 -1.5021 -0.7971  0.4930
31087SOL     OW95798   1.274   2.992  10.109 -0.3832  0.2327  0.2931
31087SOL    HW195799   1.237   3.042  10.036  0.5287 -0.4538 -0.6607
31087SOL    HW295800   1.328   3.055  10.157  1.1383  0.0817 -1.1733
31088SOL     OW95801   0.118   8.102   1.833 -0.5347  0.2059  0.1397
31088SOL    HW195802   0.043   8.078   1.887  0.2289 -1.0965  0.6573
31088SOL    HW295803   0.192   8.058   1.874  0.4416  1.1026 -0.6304
31089SOL     OW95804   8.881   9.170   1.787 -0.7451 -0.4703 -0.5942
31089SOL    HW195805   8.906   9.223   1.711 -0.6760  0.5157  0.1093
31089SOL    HW295806   8.900   9.226   1.862 -0.2044 -1.6906  0.1832
31090SOL     OW95807   7.509   3.278   6.893 -0.3258  0.0358  0.3235
31090SOL    HW195808   7.491   3.360   6.846  0.2590 -0.2438 -0.4005
31090SOL    HW295809   7.491   3.299   6.984 -0.4369  0.9040  0.1136
31091SOL     OW95810   6.861   3.613   8.365  0.0738  0.2135 -0.5722
31091SOL    HW195811   6.848   3.614   8.460  1.6218  0.0750 -0.3352
31091SOL    HW295812   6.919   3.688   8.348  2.8473 -1.9246 -0.8987
31092SOL     OW95813   5.563   3.157   0.377 -0.4366  0.5400  1.4435
31092SOL    HW195814   5.610   3.236   0.403  1.9814 -0.8590  1.4153
31092SOL    HW295815   5.569   3.099   0.452  0.8960 -0.9882  0.1884
31093SOL     OW95816   6.467   0.562   6.880  0.3648  0.5100 -0.1865
31093SOL    HW195817   6.486   0.552   6.787  1.4619  0.0949  0.0743
31093SOL    HW295818   6.501   0.481   6.920  1.1960  1.3142  0.7584
31094SOL     OW95819   5.385   5.683   3.575  0.4588  0.1424 -0.4374
31094SOL    HW195820   5.351   5.634   3.501 -1.7152  0.1913  0.4907
31094SOL    HW295821   5.399   5.618   3.643 -1.0799  0.5930  0.3257
31095SOL     OW95822   0.657   3.771   1.762 -0.1646  0.1516  0.9276
31095SOL    HW195823   0.724   3.715   1.801 -0.2471  0.3076  1.2970
31095SOL    HW295824   0.693   3.860   1.768  0.5599 -0.0136 -0.9087
31096SOL     OW95825   2.731   9.188   1.973 -0.5027 -0.2301 -0.4262
31096SOL    HW195826   2.807   9.233   1.936  0.3705  0.9589  2.6627
31096SOL    HW295827   2.667   9.188   1.902  0.3890  3.6700 -1.3912
31097SOL     OW95828   7.162   0.678   2.480 -0.5246  0.4303  0.6759
31097SOL    HW195829   7.114   0.758   2.501  2.3191  1.7746  2.4699
31097SOL    HW295830   7.169   0.632   2.563  1.3629  0.3545  0.5021
31098SOL     OW95831   3.361   8.217   7.876 -0.2948 -0.4911 -0.0115
31098SOL    HW195832   3.300   8.252   7.812 -1.1632 -0.7001  0.6914
31098SOL    HW295833   3.378   8.127   7.848 -0.5385 -0.5254 -0.0464
31099SOL     OW95834   3.586   4.896   4.415 -0.9089 -0.3136  0.7803
31099SOL    HW195835   3.499   4.925   4.387 -1.3127 -2.7555 -0.6036
31099SOL    HW295836   3.623   4.853   4.338  1.6564  0.8790  1.2674
31100SOL     OW95837   2.043   4.662   8.281  0.3682  0.9481  0.0377
31100SOL    HW195838   1.947   4.670   8.283  0.2625 -0.3277  1.7174
31100SOL    HW295839   2.075   4.752   8.273 -0.9693  1.3540 -0.9420
31101SOL     OW95840   9.966   4.567   4.917 -0.6794  0.4086  0.0800
31101SOL    HW195841   9.959   4.653   4.958  2.1608  1.3999 -1.3873
31101SOL    HW295842   9.930   4.580   4.829 -0.9266 -0.1188  0.1027
31102SOL     OW95843   0.500   6.326   0.106 -0.4237  0.3662  0.1130
31102SOL    HW195844   0.449   6.398   0.144  0.6415  0.4479  1.4213
31102SOL    HW295845   0.591   6.358   0.106 -0.3287  0.2153 -2.1738
31103SOL     OW95846   7.030   9.338   0.145 -0.4684 -0.1495  0.3344
31103SOL    HW195847   6.951   9.287   0.164  0.5786 -2.0591 -0.3169
31103SOL    HW295848   7.061   9.304   0.061  2.0790 -0.7490  1.4712
31104SOL     OW95849   2.635   7.914   5.228 -0.0750 -0.5971 -0.2212
31104SOL    HW195850   2.646   7.999   5.272 -1.8133 -1.0592  1.1501
31104SOL    HW295851   2.627   7.935   5.136  0.2382  0.6656  0.0305
31105SOL     OW95852   5.158   7.712   3.479  0.3411  0.1680 -0.0638
31105SOL    HW195853   5.216   7.639   3.501  0.5953  0.0875 -0.9796
31105SOL    HW295854   5.203   7.790   3.513  1.0581  0.1223 -0.9094
31106SOL     OW95855   5.700   0.493   3.811 -0.6540  0.3261  0.4895
31106SOL    HW195856   5.793   0.505   3.796 -0.3334 -0.9890  1.2768
31106SOL    HW295857   5.674   0.566   3.867 -0.6498  2.0830 -1.7478
31107SOL     OW95858   7.503   6.908   1.537 -0.2030 -0.0202  0.1502
31107SOL    HW195859   7.505   6.835   1.599 -0.2244  0.2355  0.4550
31107SOL    HW295860   7.573   6.888   1.474  0.9833  0.5791  1.2422
31108SOL     OW95861   9.012   0.521   2.204 -0.4152 -0.1655  0.0436
31108SOL    HW195862   8.986   0.474   2.284  1.1266 -1.2592 -0.0658
31108SOL    HW295863   8.964   0.477   2.134 -2.6932  1.5599  0.4681
31109SOL     OW95864   7.869  10.113   1.141  0.0975 -0.3200  0.1693
31109SOL    HW195865   7.778  10.136   1.124  0.2702 -0.5160 -1.1195
31109SOL    HW295866   7.918  10.193   1.126  0.1904 -0.3282  0.4184
31110SOL     OW95867   0.384   6.144  10.034 -0.0947 -0.0874 -0.9082
31110SOL    HW195868   0.433   6.144  10.116 -1.3306 -0.8292 -0.1673
31110SOL    HW295869   0.446   6.179   9.970  1.8519 -2.1543 -0.2418
31111SOL     OW95870   4.514   9.834   5.409  0.0632 -0.6757 -0.2816
31111SOL    HW195871   4.420   9.815   5.408  0.1460 -1.0589 -1.1412
31111SOL    HW295872   4.539   9.825   5.501 -0.8067 -0.2212  0.0098
31112SOL     OW95873   7.091   6.427   6.666 -0.0191  0.4390 -0.6119
31112SOL    HW195874   7.026   6.358   6.655  0.2552  0.0413  0.1978
31112SOL    HW295875   7.134   6.434   6.580  1.8304 -2.3204  0.0199
31113SOL     OW95876   4.629   7.649   2.610 -0.4278  0.4469 -0.0477
31113SOL    HW195877   4.684   7.570   2.608 -1.3319 -0.1784 -2.5570
31113SOL    HW295878   4.653   7.697   2.530 -2.1134  1.1448 -0.1517
31114SOL     OW95879   5.859   0.874   3.777  0.2009  0.4491 -0.8336
31114SOL    HW195880   5.911   0.928   3.717  0.0519  1.0502 -0.4351
31114SOL    HW295881   5.831   0.936   3.845  0.0092 -0.1342 -0.3828
31115SOL     OW95882   2.078   1.358   7.012  0.2583  0.5617  0.3413
31115SOL    HW195883   2.161   1.347   6.966  0.4311  0.3022  0.7134
31115SOL    HW295884   2.079   1.448   7.043 -1.2092  1.7532 -2.8163
31116SOL     OW95885   8.528   0.743   4.883  0.3122 -0.4913 -0.3361
31116SOL    HW195886   8.488   0.823   4.849  0.1130 -0.1793  0.6365
31116SOL    HW295887   8.535   0.686   4.806 -2.3520 -0.7045 -0.4925
31117SOL     OW95888   7.381   6.029   0.258  0.3571 -0.9284  0.5718
31117SOL    HW195889   7.300   5.981   0.241 -0.7230  0.3987  1.8295
31117SOL    HW295890   7.382   6.098   0.192  0.5603 -1.0438  0.4524
31118SOL     OW95891   7.434   4.879   8.755  0.2247  0.7801 -0.2814
31118SOL    HW195892   7.501   4.911   8.816  0.5128  1.1176 -0.7734
31118SOL    HW295893   7.427   4.785   8.774 -0.6005  1.1191  1.1427
31119SOL     OW95894   3.286   5.430   2.686  0.2462  0.9409  0.7186
31119SOL    HW195895   3.231   5.432   2.765  1.3789  0.4696  1.5465
31119SOL    HW295896   3.349   5.360   2.703  0.7606  1.1126 -0.4408
31120SOL     OW95897   8.047   6.713   8.124  0.1659 -0.0036  0.2200
31120SOL    HW195898   8.114   6.660   8.167 -1.7165 -2.2008  0.5250
31120SOL    HW295899   7.985   6.650   8.088 -0.3512  1.9048 -2.4198
31121SOL     OW95900   5.844   9.443   9.066  0.2716 -0.1418 -0.2694
31121SOL    HW195901   5.757   9.477   9.046  0.3104 -0.3451 -0.8181
31121SOL    HW295902   5.855   9.456   9.160 -0.5976 -0.6767 -0.0905
31122SOL     OW95903   3.306   6.137   5.598  0.5803  0.1695  0.6133
31122SOL    HW195904   3.273   6.120   5.509  2.2939  0.4320 -0.0933
31122SOL    HW295905   3.302   6.052   5.641 -1.2073  0.2325  0.6267
31123SOL     OW95906   5.524   6.001   2.507 -0.1480 -0.0840 -0.4267
31123SOL    HW195907   5.495   5.918   2.546  0.0453 -1.1892 -2.5693
31123SOL    HW295908   5.594   5.976   2.447  0.5794  1.7631 -0.3812
31124SOL     OW95909   2.450   0.948   3.772  0.3865 -0.3075  0.8895
31124SOL    HW195910   2.516   0.997   3.725 -0.4366 -0.6440 -0.6419
31124SOL    HW295911   2.469   0.964   3.865  2.9277 -0.8462  0.4873
31125SOL     OW95912   9.623   9.495   4.619 -0.2276  0.2149 -0.3199
31125SOL    HW195913   9.606   9.531   4.706  0.8380 -3.1932  1.4004
31125SOL    HW295914   9.718   9.489   4.614 -0.2997  0.0188 -1.5841
31126SOL     OW95915   4.168   9.928   8.229 -0.9987 -0.4046  0.3606
31126SOL    HW195916   4.222   9.869   8.177  1.0096  0.9675  0.8028
31126SOL    HW295917   4.126   9.872   8.294 -1.7174 -1.8005 -1.2877
31127SOL     OW95918   9.009   1.079   6.014 -0.2732 -0.6250  0.6032
31127SOL    HW195919   9.081   1.040   6.064 -0.0246  0.3873  1.0376
31127SOL    HW295920   8.932   1.064   6.068 -0.3616 -1.4967  0.2496
31128SOL     OW95921   7.172   5.984   9.550  0.4233  0.8493 -0.2419
31128SOL    HW195922   7.180   5.977   9.645 -1.0754  1.4836 -0.0535
31128SOL    HW295923   7.244   6.042   9.524  0.0460  1.7354  0.6640
31129SOL     OW95924   7.671   2.723   1.760 -0.4456  0.7119 -0.2040
31129SOL    HW195925   7.740   2.779   1.725  0.9457 -1.1439 -0.5272
31129SOL    HW295926   7.593   2.778   1.760  1.1117  3.0110  0.6122
31130SOL     OW95927   4.053   5.560   6.235 -0.6412 -0.0214  0.0956
31130SOL    HW195928   4.045   5.486   6.295 -0.7538 -1.7725 -2.0008
31130SOL    HW295929   4.145   5.586   6.240 -0.6785 -0.0592  1.0911
31131SOL     OW95930   4.926   3.431   7.376 -0.4943 -0.5867  0.7665
31131SOL    HW195931   5.011   3.467   7.403 -2.0625  1.7114  2.8986
31131SOL    HW295932   4.922   3.345   7.417  0.1714 -0.0675  1.9573
31132SOL     OW95933   9.958   4.882   5.313  0.3519  0.9109 -0.2686
31132SOL    HW195934   9.873   4.874   5.357  0.3852 -0.4053 -0.4291
31132SOL    HW295935  10.018   4.912   5.382  0.0876  0.3217  0.2202
31133SOL     OW95936   9.475   2.525   7.157 -0.7280  0.5048  0.7442
31133SOL    HW195937   9.551   2.471   7.136 -0.1807  1.0698  1.2425
31133SOL    HW295938   9.500   2.613   7.130 -1.7413  0.4514 -0.3624
31134SOL     OW95939   7.211   1.394   0.867 -0.0019 -0.3785 -0.4578
31134SOL    HW195940   7.282   1.457   0.852 -0.1351 -0.2212 -0.4275
31134SOL    HW295941   7.206   1.344   0.785 -0.2956  0.0494 -0.7000
31135SOL     OW95942   0.952   5.046   9.697  0.3370 -0.4697  0.0104
31135SOL    HW195943   0.916   4.969   9.741 -0.0604 -0.8459 -0.9451
31135SOL    HW295944   0.928   5.034   9.605  0.8820  0.4500 -0.2597
31136SOL     OW95945   8.358   7.052   3.663  0.4931 -0.1628 -0.3709
31136SOL    HW195946   8.289   7.084   3.721  0.0811 -0.1661 -0.8613
31136SOL    HW295947   8.327   6.966   3.634 -0.0540  0.5377 -1.8836
31137SOL     OW95948   8.789   7.192   2.643 -0.0675  0.1569  1.1705
31137SOL    HW195949   8.831   7.180   2.728 -0.5448 -0.6334  1.2981
31137SOL    HW295950   8.755   7.105   2.621 -0.1732  0.4196  0.2959
31138SOL     OW95951   2.593   6.587   6.242  0.5242  0.0194  0.5621
31138SOL    HW195952   2.556   6.675   6.240 -0.3405 -0.3706 -1.3288
31138SOL    HW295953   2.572   6.554   6.329  1.5939  1.9768  1.5932
31139SOL     OW95954   5.647   6.372   2.733  0.0887  0.1719 -0.1290
31139SOL    HW195955   5.714   6.401   2.795 -0.7333  3.3346 -0.5937
31139SOL    HW295956   5.678   6.288   2.701  1.9769 -0.1628  2.4064
31140SOL     OW95957   7.022   6.288   2.971  0.2593  0.0713 -0.5241
31140SOL    HW195958   7.088   6.300   3.039 -1.3069 -1.1895  1.2372
31140SOL    HW295959   7.069   6.305   2.889  2.7966 -1.0000  0.6783
31141SOL     OW95960   3.291   0.318   7.458  0.1383 -0.1924 -0.1498
31141SOL    HW195961   3.354   0.360   7.516  0.1658 -0.8185  0.2743
31141SOL    HW295962   3.223   0.285   7.516 -0.6463  0.5893 -0.6151
31142SOL     OW95963   6.190   8.858   4.383  0.2189  0.3595 -0.2370
31142SOL    HW195964   6.177   8.763   4.392 -4.4383  0.8213 -0.5260
31142SOL    HW295965   6.179   8.875   4.290 -2.6745  1.5478  0.2672
31143SOL     OW95966   6.324   2.053   7.775 -0.6145 -0.3710 -0.1409
31143SOL    HW195967   6.335   2.124   7.838 -1.2864 -1.0530  0.7628
31143SOL    HW295968   6.256   2.083   7.715 -2.0578 -0.8842  1.1970
31144SOL     OW95969   4.252   4.217   7.595 -0.1130  0.2770  0.2206
31144SOL    HW195970   4.173   4.202   7.542 -3.1697  1.1058  4.2912
31144SOL    HW295971   4.285   4.130   7.614 -0.6894 -0.1370 -0.6439
31145SOL     OW95972   5.992   5.461   3.454  0.3763  0.5861 -0.4373
31145SOL    HW195973   5.994   5.404   3.531  1.7036  2.0456  0.6482
31145SOL    HW295974   6.064   5.430   3.399 -0.3063 -0.1850 -0.9146
31146SOL     OW95975   3.416   2.447   7.062  0.9734 -0.1776  0.0986
31146SOL    HW195976   3.337   2.483   7.103  0.1303 -1.4841 -0.3360
31146SOL    HW295977   3.417   2.486   6.975  0.8694 -0.0612  0.1481
31147SOL     OW95978   6.442   7.360   1.311 -0.1051 -0.4653  0.2072
31147SOL    HW195979   6.492   7.397   1.239 -0.8097 -2.1206 -1.1648
31147SOL    HW295980   6.367   7.419   1.322  1.7664  1.7001  1.8907
31148SOL     OW95981   9.205   9.767   5.597  0.1334 -0.1730  0.7080
31148SOL    HW195982   9.241   9.748   5.684  1.3561  0.1399  0.2891
31148SOL    HW295983   9.199   9.862   5.593 -0.5255 -0.2113  0.6811
31149SOL     OW95984   9.439   0.784   2.886  0.7423 -0.1503 -0.0045
31149SOL    HW195985   9.459   0.821   2.972  0.7912  0.1065 -0.1247
31149SOL    HW295986   9.389   0.853   2.842  2.3342  0.4718 -0.8723
31150SOL     OW95987   8.781   5.332   2.036 -0.2782 -0.5529  0.2678
31150SOL    HW195988   8.807   5.406   1.981 -0.6442 -0.6591 -0.0519
31150SOL    HW295989   8.761   5.371   2.121  0.4247 -0.4052  0.3688
31151SOL     OW95990   2.014   3.092   4.818 -0.4893  0.7676  0.0458
31151SOL    HW195991   2.037   3.175   4.860 -1.1387 -0.0559  2.0561
31151SOL    HW295992   2.011   3.029   4.889 -1.5420 -0.6829 -1.2617
31152SOL     OW95993   6.068   6.197   0.017  0.0000 -0.1452 -0.1605
31152SOL    HW195994   6.036   6.287   0.015 -0.6496 -0.4148 -3.0796
31152SOL    HW295995   6.163   6.206   0.013 -0.0068  0.4196  0.6976
31153SOL     OW95996   9.500   8.558   0.677  0.6255  0.0823 -0.2472
31153SOL    HW195997   9.524   8.650   0.667  0.2837  0.2829  0.7282
31153SOL    HW295998   9.412   8.552   0.640  1.5697 -0.3644 -2.5240
31154SOL     OW95999   0.737   9.869   1.216  0.3720 -0.0965 -0.1112
31154SOL    HW196000   0.655   9.860   1.264  1.1083 -1.2942  0.9342
31154SOL    HW296001   0.759   9.780   1.189  2.2972 -0.0384  1.2397
31155SOL     OW96002   2.979   7.975   5.768  0.2264 -0.0796  0.1776
31155SOL    HW196003   3.019   7.994   5.852 -0.3633  0.3098  0.3723
31155SOL    HW296004   2.991   8.055   5.716  1.9146 -0.8367 -0.6344
31156SOL     OW96005   6.604   5.843   9.361 -0.2578  0.2281  0.6296
31156SOL    HW196006   6.524   5.804   9.396 -0.0066 -1.1600 -0.2982
31156SOL    HW296007   6.665   5.842   9.434 -0.1887 -1.3446  0.5783
31157SOL     OW96008   6.908   4.143   1.916 -0.2540  0.2824 -0.0043
31157SOL    HW196009   6.851   4.214   1.887  0.1583  0.8078  0.4513
31157SOL    HW296010   6.849   4.076   1.949 -0.6536  0.3561 -0.5671
31158SOL     OW96011   4.840   8.400   4.525  0.2890 -0.3219  0.1294
31158SOL    HW196012   4.835   8.459   4.450  0.9225  0.1817  0.4735
31158SOL    HW296013   4.874   8.455   4.596  3.1655 -1.6586 -0.1365
31159SOL     OW96014   4.049   0.889   4.620  0.7387 -1.0154  0.1166
31159SOL    HW196015   4.065   0.816   4.561  2.0628 -0.3122 -0.4103
31159SOL    HW296016   4.134   0.904   4.663  0.6814  0.7011 -0.3468
31160SOL     OW96017   8.168   2.226   1.164 -0.2994  0.1410  0.3609
31160SOL    HW196018   8.258   2.197   1.155  0.2869  2.3669 -1.3023
31160SOL    HW296019   8.170   2.294   1.230 -1.1131 -1.1414  1.7497
31161SOL     OW96020   7.767   3.171   7.556 -0.2426  0.0371 -0.3921
31161SOL    HW196021   7.716   3.172   7.637 -0.0992  0.0599 -0.3016
31161SOL    HW296022   7.851   3.131   7.580 -0.2374 -0.0498 -0.5522
31162SOL     OW96023   9.686   7.408   4.434 -0.1546  0.1095  0.0797
31162SOL    HW196024   9.707   7.491   4.477  0.0367  0.3035 -0.3806
31162SOL    HW296025   9.679   7.431   4.341  0.0757 -0.4238 -0.0696
31163SOL     OW96026   2.782   8.710   0.633 -0.1121 -0.0030  0.1236
31163SOL    HW196027   2.800   8.642   0.698  2.2909 -1.1693 -1.6712
31163SOL    HW296028   2.811   8.791   0.673  0.3919 -0.5671  0.9037
31164SOL     OW96029   4.651   9.355   2.584 -0.4186 -0.4238  0.1329
31164SOL    HW196030   4.616   9.270   2.558 -0.2745 -0.7889  1.1028
31164SOL    HW296031   4.685   9.341   2.673  1.5971  0.0980 -0.5446
31165SOL     OW96032   4.917   8.887   2.688 -0.5110 -0.1164  0.1476
31165SOL    HW196033   4.973   8.894   2.611 -0.4524  1.0822  0.2972
31165SOL    HW296034   4.878   8.800   2.682 -1.7575  0.5685 -2.0874
31166SOL     OW96035   9.715   0.972   0.778  0.2494 -0.3885 -0.0170
31166SOL    HW196036   9.720   1.005   0.688  1.1935 -1.4270 -0.3608
31166SOL    HW296037   9.649   0.903   0.775  1.7010 -1.7883 -0.3707
31167SOL     OW96038   1.758   6.721   2.260  0.4404  0.0400 -0.1278
31167SOL    HW196039   1.852   6.736   2.269  0.2054  1.9878 -0.5675
31167SOL    HW296040   1.718   6.777   2.326 -0.4066 -0.9289  0.1944
31168SOL     OW96041   8.842   5.868   0.701 -0.2372 -0.0406 -0.3734
31168SOL    HW196042   8.929   5.844   0.669  0.5289  1.1147  0.8107
31168SOL    HW296043   8.789   5.876   0.621  1.2195  1.1102 -1.2677
31169SOL     OW96044   4.912   4.721   5.316  0.0581  0.0597  0.5329
31169SOL    HW196045   4.819   4.732   5.292  0.1498  1.1631  0.6286
31169SOL    HW296046   4.932   4.800   5.367  0.6816 -0.8416  1.6798
31170SOL     OW96047   2.883   8.769   4.761  0.3883  0.3288  0.1690
31170SOL    HW196048   2.947   8.759   4.691  0.3257 -1.1708  0.3005
31170SOL    HW296049   2.799   8.780   4.716  0.2517 -1.3146 -0.0152
31171SOL     OW96050   8.820   7.560   0.241  0.0422  0.1003 -0.2769
31171SOL    HW196051   8.863   7.561   0.155  0.3451 -0.0834 -0.1259
31171SOL    HW296052   8.734   7.599   0.225  0.5850  1.2659 -0.4083
31172SOL     OW96053   6.369   8.012   8.581  0.3192 -0.1919  0.6305
31172SOL    HW196054   6.413   8.068   8.645  0.0299 -0.9350  1.5081
31172SOL    HW296055   6.435   7.948   8.555  0.5227  0.2863 -0.0419
31173SOL     OW96056   3.434   8.272   2.533 -0.4417  0.4203 -0.1513
31173SOL    HW196057   3.495   8.198   2.533  0.3433  1.0620  0.5852
31173SOL    HW296058   3.485   8.345   2.498 -0.8490  0.9175  0.2927
31174SOL     OW96059   3.264   5.053   4.908  0.6119 -0.1708 -0.3197
31174SOL    HW196060   3.348   5.061   4.952 -0.2952  0.8468  1.2908
31174SOL    HW296061   3.246   4.959   4.907  1.5406 -0.3520 -0.2696
31175SOL     OW96062   9.883   4.957   0.375  0.3077 -0.6386 -0.0915
31175SOL    HW196063   9.822   4.935   0.304 -0.5476 -0.6864  0.6537
31175SOL    HW296064   9.940   4.881   0.381  0.0052 -0.8896 -0.3388
31176SOL     OW96065   1.515   3.506   7.984  0.5489  0.0476 -0.1539
31176SOL    HW196066   1.521   3.547   7.898  0.9062  2.3265  0.8964
31176SOL    HW296067   1.601   3.465   7.997 -0.2090 -2.1174 -1.7029
31177SOL     OW96068   1.857   8.979   0.856 -0.3688  0.2706 -0.1637
31177SOL    HW196069   1.869   8.950   0.765  0.0665 -4.7329  1.3602
31177SOL    HW296070   1.945   8.979   0.893 -0.8436 -0.3365  0.9782
31178SOL     OW96071   4.109   5.152   4.870  0.5212  0.3189  0.0810
31178SOL    HW196072   4.046   5.205   4.919  0.2069  2.5128 -2.6379
31178SOL    HW296073   4.194   5.191   4.890  0.6976 -0.5472  1.0744
31179SOL     OW96074   6.683   3.545   9.158  0.6037  0.1806 -0.4103
31179SOL    HW196075   6.610   3.573   9.213  1.3821 -1.9617  1.8114
31179SOL    HW296076   6.761   3.577   9.203  1.2072 -0.5460 -0.9174
31180SOL     OW96077   4.962   5.155   2.456  0.0511 -0.1532  0.3721
31180SOL    HW196078   4.956   5.063   2.432  0.5510 -0.1628  0.2979
31180SOL    HW296079   4.993   5.154   2.547  2.3236  0.0107 -0.3941
31181SOL     OW96080  10.083   1.995   7.361 -0.6421  0.3113 -0.0377
31181SOL    HW196081  10.132   1.930   7.411  1.1080  1.5085 -0.1491
31181SOL    HW296082  10.132   2.005   7.279 -1.7717  0.6130 -0.6910
31182SOL     OW96083   5.868   3.840   1.714 -0.0263  0.0663  0.1410
31182SOL    HW196084   5.806   3.912   1.720  2.2555  2.0478  0.6896
31182SOL    HW296085   5.934   3.869   1.651  1.9392 -0.7319  1.7627
31183SOL     OW96086   8.423   6.917   6.383  0.4643 -0.1674  0.9472
31183SOL    HW196087   8.508   6.917   6.427  0.8370  1.2388  0.2523
31183SOL    HW296088   8.420   7.001   6.338 -1.2414 -0.2773  0.8454
31184SOL     OW96089   1.194   8.285   9.277 -0.0628 -0.1248  0.2723
31184SOL    HW196090   1.236   8.298   9.193 -0.5306  0.8839  0.1854
31184SOL    HW296091   1.236   8.348   9.336 -1.1516  0.6130  0.2787
31185SOL     OW96092   5.060   5.980   4.665 -0.2887 -0.5237 -0.2414
31185SOL    HW196093   5.093   6.063   4.631 -0.0801 -0.4075  0.2335
31185SOL    HW296094   4.995   5.952   4.601 -0.7661  0.2873 -0.1198
31186SOL     OW96095   0.323   3.288   2.999  0.6546 -0.1881 -0.1075
31186SOL    HW196096   0.416   3.307   3.013  0.7691  0.6474 -1.8604
31186SOL    HW296097   0.278   3.369   3.025  0.7004  0.5821 -2.3234
31187SOL     OW96098   3.312   9.548   9.723 -0.1814  0.6363 -0.6418
31187SOL    HW196099   3.259   9.620   9.757 -0.9511  0.6555 -1.8330
31187SOL    HW296100   3.392   9.589   9.692  0.4082  0.6504  0.8965
31188SOL     OW96101   7.851   4.898   5.266  0.3905  0.0353 -0.4995
31188SOL    HW196102   7.856   4.806   5.292  1.9779  0.0403 -0.7292
31188SOL    HW296103   7.850   4.895   5.170 -0.0339  0.2273 -0.4981
31189SOL     OW96104   6.889   3.383   1.544 -0.1191  0.1041  0.1706
31189SOL    HW196105   6.944   3.462   1.548 -1.7715  1.2066  3.0483
31189SOL    HW296106   6.923   3.327   1.613 -1.1019 -0.2292  0.3842
31190SOL     OW96107   4.928   6.108   7.846 -0.0347  0.1241 -0.2943
31190SOL    HW196108   4.866   6.136   7.914 -0.0851  1.0914 -0.7297
31190SOL    HW296109   5.014   6.116   7.887 -0.1274 -0.1881 -0.0385
31191SOL     OW96110   8.231   1.659   6.956  0.3759  0.1434 -0.4873
31191SOL    HW196111   8.275   1.574   6.943 -1.5009 -1.0806  0.8382
31191SOL    HW296112   8.144   1.646   6.920 -0.6048  0.8138  1.5499
31192SOL     OW96113   3.173   4.452   3.735  0.2986  0.0162 -0.0619
31192SOL    HW196114   3.123   4.391   3.681  0.0827 -0.7932  1.0360
31192SOL    HW296115   3.169   4.535   3.687 -0.6654 -0.4623 -0.8309
31193SOL     OW96116   8.136   7.023   1.808  0.0671  0.2120 -0.1926
31193SOL    HW196117   8.059   7.079   1.802  0.2326  0.4126 -0.5214
31193SOL    HW296118   8.193   7.067   1.871 -0.2470 -0.1315  0.3299
31194SOL     OW96119   0.751   6.627   7.264  0.2303 -0.3915  0.0849
31194SOL    HW196120   0.710   6.688   7.325 -2.0986 -0.0570 -1.7512
31194SOL    HW296121   0.836   6.668   7.243 -0.6069  1.4437  0.1164
31195SOL     OW96122   5.449   5.124   7.268 -0.4418 -0.3549  0.3657
31195SOL    HW196123   5.488   5.158   7.188  1.4019 -0.0563  1.3686
31195SOL    HW296124   5.491   5.040   7.282 -0.8545 -0.4675  0.9395
31196SOL     OW96125   3.089   5.499   8.844 -0.0512  0.4367  0.0350
31196SOL    HW196126   3.070   5.406   8.832 -1.1182  0.6213  0.1872
31196SOL    HW296127   3.153   5.502   8.915 -2.5845 -0.0162  2.4214
31197SOL     OW96128   9.556   7.464   1.712  0.1240  0.5360 -0.0918
31197SOL    HW196129   9.578   7.371   1.700 -1.8972  0.0631 -0.3081
31197SOL    HW296130   9.585   7.506   1.630  1.9197  0.2771  0.3995
31198SOL     OW96131   5.001   8.289   8.299 -0.0237  0.2751  0.3721
31198SOL    HW196132   4.962   8.228   8.237 -0.6890  0.7921  0.2838
31198SOL    HW296133   5.092   8.298   8.270 -0.0627 -0.2591  0.0764
31199SOL     OW96134   9.922   4.138   9.518 -0.3958 -0.3947  0.3058
31199SOL    HW196135   9.839   4.151   9.472 -1.0496 -1.4606  1.1676
31199SOL    HW296136   9.914   4.189   9.598 -0.8662 -1.7280  1.1410
31200SOL     OW96137   8.432   0.691   9.786  0.1236  0.4528  0.0949
31200SOL    HW196138   8.422   0.786   9.788 -0.5771  0.4015 -0.9751
31200SOL    HW296139   8.389   0.660   9.866  0.8114  1.0678  0.7103
31201SOL     OW96140   8.732   0.264   9.125 -0.3700 -0.1443  0.5449
31201SOL    HW196141   8.765   0.208   9.055 -0.7114 -0.1071  0.3551
31201SOL    HW296142   8.640   0.277   9.105 -0.2589  0.6203  0.4956
31202SOL     OW96143   3.856   4.993   2.786  0.3338 -0.1367 -0.1995
31202SOL    HW196144   3.868   4.913   2.837 -1.0807 -0.9528 -1.1045
31202SOL    HW296145   3.889   5.063   2.842  1.4053 -1.3353  0.6838
31203SOL     OW96146   9.128   4.009   4.778  0.5071 -0.2341 -0.2661
31203SOL    HW196147   9.168   4.085   4.820 -0.6970  0.2092  0.1053
31203SOL    HW296148   9.199   3.969   4.728  0.7138  2.2247 -1.9996
31204SOL     OW96149   2.055   9.902   0.879  0.5364 -0.4225  0.4775
31204SOL    HW196150   1.995   9.925   0.809  0.5532  0.7858  0.8369
31204SOL    HW296151   2.142   9.920   0.843  0.5136  0.8617  1.0192
31205SOL     OW96152   2.166   4.735   4.375 -0.3821  0.7619  0.6895
31205SOL    HW196153   2.123   4.815   4.347 -0.9842  0.4419  0.7010
31205SOL    HW296154   2.098   4.686   4.422 -0.0599  0.1796  0.5562
31206SOL     OW96155   2.894   7.345   8.371  0.1201 -0.3610  0.1641
31206SOL    HW196156   2.806   7.372   8.346  0.4989  0.7768  0.0082
31206SOL    HW296157   2.919   7.406   8.440  0.3667 -1.3754  0.9766
31207SOL     OW96158   9.437   1.543   9.674 -0.8129  0.7620  0.3851
31207SOL    HW196159   9.353   1.503   9.653  0.4293 -0.7290 -1.8371
31207SOL    HW296160   9.481   1.554   9.590  1.3990  1.1563  1.5511
31208SOL     OW96161   3.234   9.559   1.776  0.0525 -0.3859 -0.8514
31208SOL    HW196162   3.283   9.559   1.858  0.1291  1.2275 -0.8755
31208SOL    HW296163   3.236   9.468   1.747  2.1151 -0.5583 -0.2965
31209SOL     OW96164   0.347   8.346   5.208  0.0810 -0.0618 -0.2237
31209SOL    HW196165   0.325   8.278   5.271 -0.8719  0.1209 -0.3394
31209SOL    HW296166   0.352   8.300   5.124 -1.5927  0.1458 -0.4710
31210SOL     OW96167   4.196   0.266   0.391 -0.1389  0.1560  0.8574
31210SOL    HW196168   4.248   0.320   0.450  1.3783  0.5566 -0.8026
31210SOL    HW296169   4.116   0.317   0.376  0.8948  1.5451 -0.0039
31211SOL     OW96170   4.696   2.510   9.717  0.2449 -0.2396 -0.4308
31211SOL    HW196171   4.775   2.468   9.682 -0.4565 -0.7579 -1.4026
31211SOL    HW296172   4.624   2.452   9.692 -0.2724 -0.7818  2.1117
31212SOL     OW96173   1.419   6.676   0.087 -0.0667 -0.0363  0.2047
31212SOL    HW196174   1.330   6.705   0.071 -0.5747 -1.3462  0.5451
31212SOL    HW296175   1.422   6.587   0.051  0.8332 -0.3254  0.9611
31213SOL     OW96176   0.160   3.982   4.703 -0.4667 -0.5703  0.2747
31213SOL    HW196177   0.252   3.956   4.696  0.1106  0.9803  1.7598
31213SOL    HW296178   0.131   3.943   4.786 -1.6090 -2.3223 -0.9092
31214SOL     OW96179   8.472   1.624   3.495  0.4063 -0.3431 -0.3936
31214SOL    HW196180   8.535   1.611   3.424  1.0503  0.1471  0.0789
31214SOL    HW296181   8.501   1.705   3.537 -0.9191  0.2350 -0.5719
31215SOL     OW96182   0.154   1.418   0.602  0.2317  0.2473 -0.8024
31215SOL    HW196183   0.216   1.426   0.675 -0.3607  0.1418 -0.2733
31215SOL    HW296184   0.100   1.497   0.609  0.2483  0.2923 -1.1976
31216SOL     OW96185   4.618   6.057   3.542 -0.1588  0.4491 -0.0292
31216SOL    HW196186   4.623   6.031   3.634 -0.0071 -0.0202 -0.1685
31216SOL    HW296187   4.525   6.062   3.523 -0.1940  1.1595  0.3216
31217SOL     OW96188   5.829   1.800   4.041  0.0431  0.0960  0.4755
31217SOL    HW196189   5.763   1.770   3.978 -0.2398 -0.1447  0.8842
31217SOL    HW296190   5.803   1.891   4.060  0.4013  0.3222 -0.1087
31218SOL     OW96191   8.457   2.904   6.638  0.5132  0.5518 -0.0283
31218SOL    HW196192   8.387   2.957   6.602 -0.3701  0.3635  1.3887
31218SOL    HW296193   8.428   2.813   6.627 -0.3055  0.5207  2.1980
31219SOL     OW96194   3.368   8.542   9.066  0.2138 -0.2144  0.5409
31219SOL    HW196195   3.276   8.566   9.054 -0.3965 -2.4158  0.6563
31219SOL    HW296196   3.402   8.610   9.125 -1.2040  0.8649  0.1669
31220SOL     OW96197   0.409   2.964   8.404 -0.1786  0.3724  0.2098
31220SOL    HW196198   0.373   2.918   8.481 -1.8177  1.0360 -0.1417
31220SOL    HW296199   0.465   2.899   8.362 -0.7241 -0.6032  0.9506
31221SOL     OW96200   6.672   3.134   8.566 -0.1903 -0.4350  0.5468
31221SOL    HW196201   6.733   3.100   8.501 -0.5562 -0.7040  0.3429
31221SOL    HW296202   6.632   3.210   8.524 -0.8652 -0.9653  0.2297
31222SOL     OW96203   0.283   2.603   6.431 -0.3007 -0.5439 -0.5096
31222SOL    HW196204   0.226   2.577   6.359 -2.6351 -3.6420  2.2779
31222SOL    HW296205   0.368   2.563   6.411 -0.8910 -1.2539 -1.6103
31223SOL     OW96206   8.005   5.308   9.450 -0.7431  0.3148 -0.4833
31223SOL    HW196207   7.999   5.257   9.531  0.7034  1.1703  0.1904
31223SOL    HW296208   7.972   5.249   9.382 -0.6291 -0.9260  0.5144
31224SOL     OW96209   6.490   6.708   9.018 -0.1766 -0.2109 -0.7021
31224SOL    HW196210   6.481   6.657   8.938 -1.0047  0.0095 -0.7523
31224SOL    HW296211   6.558   6.663   9.068 -1.0239 -1.4537 -0.6655
31225SOL     OW96212   5.371   1.618   2.102  0.2939 -0.7143  0.4398
31225SOL    HW196213   5.415   1.549   2.052  0.0621 -0.9131  0.5073
31225SOL    HW296214   5.328   1.671   2.035  0.2628 -0.7837  0.4036
31226SOL     OW96215   6.868   1.204   4.046  0.3577 -0.3518  0.0869
31226SOL    HW196216   6.819   1.152   4.110  0.8216 -2.5083 -1.2626
31226SOL    HW296217   6.806   1.219   3.975  0.6960 -0.3138 -0.1983
31227SOL     OW96218   4.853   8.109   6.369 -0.0893  0.3765  0.9121
31227SOL    HW196219   4.901   8.046   6.316 -2.2334 -2.2870  1.9830
31227SOL    HW296220   4.823   8.176   6.307  2.4380  0.5000 -0.2092
31228SOL     OW96221   3.651  10.093   3.409  0.1392  0.3304  0.0216
31228SOL    HW196222   3.671  10.075   3.501 -2.5538 -0.3437  0.5065
31228SOL    HW296223   3.714  10.041   3.360  2.2067  1.4172  1.4730
31229SOL     OW96224   1.776   3.872   7.494  0.6678 -0.8006 -0.2441
31229SOL    HW196225   1.860   3.879   7.540 -0.2574  0.7306  1.2392
31229SOL    HW296226   1.769   3.953   7.444 -0.8851  0.0055  1.2696
31230SOL     OW96227   5.160   4.899   4.436  0.0830  0.6410  0.2485
31230SOL    HW196228   5.180   4.806   4.439  0.0598  0.5166 -2.5317
31230SOL    HW296229   5.079   4.908   4.487 -0.8920 -1.1621 -0.9231
31231SOL     OW96230   4.396   7.115   0.739  0.4657  0.4178 -0.1180
31231SOL    HW196231   4.322   7.062   0.769 -0.1993 -0.2610 -2.8057
31231SOL    HW296232   4.434   7.152   0.819 -0.7459 -1.8952  1.5569
31232SOL     OW96233   2.006   4.897   3.363 -0.4222 -0.3353 -0.2604
31232SOL    HW196234   2.088   4.849   3.364 -0.4800 -0.4377 -0.4091
31232SOL    HW296235   2.026   4.980   3.319 -0.4327 -0.4219 -0.4291
31233SOL     OW96236   7.525  10.024   5.043 -0.5448 -0.3173  0.2398
31233SOL    HW196237   7.532  10.119   5.056  0.8742 -0.2271 -1.0106
31233SOL    HW296238   7.553  10.010   4.953 -2.3148 -1.7724 -0.1105
31234SOL     OW96239   0.828   4.907   4.275 -0.0845 -0.0973 -0.1909
31234SOL    HW196240   0.758   4.916   4.210  0.2107 -1.2188 -0.6810
31234SOL    HW296241   0.902   4.872   4.225  0.1085 -1.0902  0.7657
31235SOL     OW96242   5.299   3.506   5.699  0.4099  0.5238 -0.2576
31235SOL    HW196243   5.386   3.469   5.685 -0.3968 -0.1996 -3.7491
31235SOL    HW296244   5.305   3.595   5.665 -0.5267  0.0650 -1.6584
31236SOL     OW96245   7.016   1.691   1.021  0.3654  0.2446 -0.6923
31236SOL    HW196246   7.050   1.603   1.004  0.2023 -0.4219  2.2880
31236SOL    HW296247   6.964   1.682   1.100  0.3134  3.0480 -0.3683
31237SOL     OW96248   6.895   3.922   5.939  0.3459 -0.4926  0.2968
31237SOL    HW196249   6.842   3.931   6.018 -1.7125 -0.7175 -1.0238
31237SOL    HW296250   6.868   3.838   5.901  2.8180 -1.3916  0.4265
31238SOL     OW96251   7.062   7.893   1.991  0.0945  0.1162 -0.1961
31238SOL    HW196252   7.058   7.846   1.908 -0.4764  0.0414 -0.1302
31238SOL    HW296253   7.153   7.886   2.019 -0.6716 -3.9740  1.5793
31239SOL     OW96254   6.438   5.028   7.541 -0.4512 -0.1219  0.1574
31239SOL    HW196255   6.523   4.986   7.558 -0.8216 -0.2930  1.7334
31239SOL    HW296256   6.441   5.053   7.449  1.4480  0.1670  0.2706
31240SOL     OW96257   7.907   4.873   6.940 -0.3317  0.0506  0.0948
31240SOL    HW196258   7.822   4.907   6.915 -0.0288  0.6173 -0.1735
31240SOL    HW296259   7.965   4.898   6.868  0.3997  1.0674  1.0216
31241SOL     OW96260   4.457   3.960   1.217  0.5011  0.4630  0.2565
31241SOL    HW196261   4.464   4.029   1.283  0.1943  0.0034  0.7724
31241SOL    HW296262   4.536   3.908   1.229 -0.8851 -1.2830  2.1682
31242SOL     OW96263   8.350   8.625   0.512 -0.4585  0.0929 -0.0747
31242SOL    HW196264   8.262   8.601   0.541  0.1075 -1.6276  0.3253
31242SOL    HW296265   8.408   8.580   0.574  0.6945  1.8559  0.1624
31243SOL     OW96266   1.331   6.929   1.868 -0.4387 -0.2574 -0.1422
31243SOL    HW196267   1.321   6.877   1.947  0.1005 -1.1270 -0.6394
31243SOL    HW296268   1.336   7.019   1.900  0.2287 -0.6345  0.8490
31244SOL     OW96269   4.728   8.629   6.222  0.1137  0.8492 -0.0825
31244SOL    HW196270   4.784   8.706   6.235 -0.5372  1.4308 -0.7063
31244SOL    HW296271   4.774   8.577   6.156  0.9259  0.3337  0.8805
31245SOL     OW96272   5.025   2.011   6.344  0.5208  0.3932  0.1575
31245SOL    HW196273   5.110   1.991   6.384  0.7390 -0.9222 -0.9411
31245SOL    HW296274   5.035   1.989   6.252 -0.8577  0.7256 -0.0914
31246SOL     OW96275   7.245   8.965   3.727 -0.1080  0.0870 -0.1066
31246SOL    HW196276   7.184   8.915   3.780  0.0335  0.2898  0.2497
31246SOL    HW296277   7.331   8.926   3.745 -0.0170  0.3611  0.0603
31247SOL     OW96278   8.854   9.907   4.746  0.2453  0.1047  0.1697
31247SOL    HW196279   8.911   9.831   4.757 -1.0092 -0.8299  0.2814
31247SOL    HW296280   8.914   9.981   4.736  1.4736 -1.0408 -1.0220
31248SOL     OW96281   7.601   4.818   1.287 -0.4013  0.4505  0.0006
31248SOL    HW196282   7.644   4.814   1.373 -1.0444  0.3806  0.3208
31248SOL    HW296283   7.650   4.884   1.238  1.3063 -1.0146 -0.3156
31249SOL     OW96284   3.948   7.271   8.594 -0.2568 -0.0929  0.2072
31249SOL    HW196285   3.997   7.194   8.625 -0.6759 -0.7370 -0.6965
31249SOL    HW296286   4.015   7.339   8.584  0.1783 -0.4423  0.6648
31250SOL     OW96287   7.683   8.624   6.005 -0.2788  0.0771 -0.0458
31250SOL    HW196288   7.644   8.543   5.973 -1.5283  0.3889  0.6657
31250SOL    HW296289   7.617   8.691   5.990  0.2137  0.7232  0.6065
31251SOL     OW96290   9.402   3.306   2.729 -0.7372 -0.6442 -0.1811
31251SOL    HW196291   9.363   3.233   2.778 -0.5847 -1.0949 -0.7292
31251SOL    HW296292   9.496   3.293   2.737 -0.6850 -2.0831 -2.5802
31252SOL     OW96293   3.711   4.880   3.257  0.5131 -0.2758 -0.1057
31252SOL    HW196294   3.622   4.858   3.231  0.3441  0.7515 -0.4104
31252SOL    HW296295   3.710   4.874   3.353  0.1836 -0.5125 -0.1225
31253SOL     OW96296   4.206   0.213   1.548  0.2425 -0.1826  0.1947
31253SOL    HW196297   4.244   0.128   1.526  0.5871 -0.0532  0.2851
31253SOL    HW296298   4.281   0.271   1.556 -0.0010  0.1558  0.0306
31254SOL     OW96299   9.841   7.474   3.545  0.1184  0.0333 -0.5104
31254SOL    HW196300   9.873   7.565   3.548  0.2907  0.0225 -1.7077
31254SOL    HW296301   9.758   7.480   3.498  0.2888 -0.4775 -0.8759
31255SOL     OW96302   9.707   3.374   8.620  0.0412 -0.0044 -0.3900
31255SOL    HW196303   9.641   3.408   8.559 -0.8687  0.0802  0.6318
31255SOL    HW296304   9.769   3.446   8.631 -1.5900  1.2076  1.3553
31256SOL     OW96305   2.239   3.121   6.165 -0.3296  0.2664 -0.0185
31256SOL    HW196306   2.202   3.137   6.078 -0.1807 -0.8526 -0.2925
31256SOL    HW296307   2.325   3.082   6.148 -1.0597 -1.6539  0.6245
31257SOL     OW96308   2.405   1.546   2.824  0.6405 -0.3999 -0.0052
31257SOL    HW196309   2.426   1.483   2.893  1.0400 -0.0702  0.1827
31257SOL    HW296310   2.490   1.585   2.802  0.4521 -0.2106 -0.3910
31258SOL     OW96311   7.272   8.222   3.964 -0.1468  0.1016  0.3515
31258SOL    HW196312   7.262   8.142   3.912  0.2463  1.0965 -1.3097
31258SOL    HW296313   7.211   8.285   3.924  1.8378  1.6024 -0.3994
31259SOL     OW96314   4.569   1.934   0.044 -0.0375 -0.4927  0.3117
31259SOL    HW196315   4.499   1.982  -0.000 -1.0891 -1.4431  0.8790
31259SOL    HW296316   4.608   1.997   0.104 -0.5136  0.0104  0.0936
31260SOL     OW96317  10.097   0.277   3.944 -0.3230  0.0483 -0.1536
31260SOL    HW196318  10.120   0.298   3.854  0.3295  0.0204  0.0040
31260SOL    HW296319  10.027   0.212   3.937 -0.9694  0.7834 -0.6389
31261SOL     OW96320   6.910   4.610   7.636 -0.1954 -0.4628  0.3334
31261SOL    HW196321   7.001   4.596   7.608 -0.1270  1.3378 -0.3839
31261SOL    HW296322   6.857   4.581   7.562 -0.0400  3.2544 -1.3486
31262SOL     OW96323   6.533   3.558   3.643  0.3994  0.1351  0.0451
31262SOL    HW196324   6.605   3.594   3.695  0.4923  0.7191 -0.4706
31262SOL    HW296325   6.471   3.525   3.707  0.1031  1.6466  0.5723
31263SOL     OW96326   5.438   6.537   0.380 -0.3017  0.2694  0.6363
31263SOL    HW196327   5.494   6.461   0.365 -0.6920  0.0996 -0.0000
31263SOL    HW296328   5.362   6.502   0.427 -0.8537  0.1113 -0.3523
31264SOL     OW96329   6.559   1.387   5.483 -0.1548  0.4192  0.1164
31264SOL    HW196330   6.494   1.428   5.541  0.5728  1.0869  0.4703
31264SOL    HW296331   6.532   1.295   5.478 -0.7328  0.5471  0.8106
31265SOL     OW96332   6.003   1.436   1.936 -0.0817  0.0720 -0.1043
31265SOL    HW196333   5.911   1.455   1.919 -0.5820 -1.3884  0.8487
31265SOL    HW296334   6.051   1.507   1.893 -1.5530 -0.2847 -2.4315
31266SOL     OW96335   8.890   7.360   0.841 -0.6272  0.1620  0.1480
31266SOL    HW196336   8.838   7.293   0.886 -0.0948 -1.0233 -0.9662
31266SOL    HW296337   8.965   7.374   0.899 -0.6230 -0.3806  0.2794
31267SOL     OW96338   9.888   0.684   0.942  0.6756  0.0012  0.0672
31267SOL    HW196339   9.955   0.739   0.983  1.9839 -1.9242  0.5471
31267SOL    HW296340   9.936   0.629   0.880 -0.9330  1.0175 -2.1622
31268SOL     OW96341   1.295   6.542   8.193  0.6042 -0.1347 -0.2975
31268SOL    HW196342   1.368   6.483   8.212  0.3358 -1.0291 -2.0046
31268SOL    HW296343   1.221   6.484   8.174 -0.4451  0.7624  0.9130
31269SOL     OW96344   9.131   8.319   8.580  0.6148 -0.4673 -0.7029
31269SOL    HW196345   9.182   8.269   8.517  0.2590 -0.3669 -1.0759
31269SOL    HW296346   9.080   8.253   8.628 -0.6156 -0.3953 -1.8805
31270SOL     OW96347   5.596   1.342   9.841 -0.0231  0.0141 -0.5528
31270SOL    HW196348   5.672   1.332   9.784  0.5378 -1.3774  0.4315
31270SOL    HW296349   5.632   1.349   9.929 -1.0341 -0.6118 -0.0785
31271SOL     OW96350   6.103   1.469   4.354  0.3883 -0.3817 -0.5799
31271SOL    HW196351   6.060   1.548   4.319  3.4871  1.5306 -0.2822
31271SOL    HW296352   6.114   1.412   4.279 -0.0710  0.3414 -1.2034
31272SOL     OW96353   0.462   4.616   3.560 -0.2790  0.2815 -0.0335
31272SOL    HW196354   0.396   4.563   3.605  0.2152  1.3770  2.0839
31272SOL    HW296355   0.545   4.578   3.587 -0.0018  0.2258 -0.9748
31273SOL     OW96356   6.328   7.219  10.132 -0.0688  0.0944 -0.6589
31273SOL    HW196357   6.402   7.174  10.092 -0.9481 -0.6533 -1.4576
31273SOL    HW296358   6.312   7.294  10.073 -2.3348 -1.8561 -2.6182
31274SOL     OW96359   8.608   6.108   9.779 -0.2582  0.5244  0.2913
31274SOL    HW196360   8.619   6.103   9.874  1.3270  2.0903  0.2271
31274SOL    HW296361   8.518   6.079   9.764 -0.6608  0.6090  2.3033
31275SOL     OW96362   9.914   7.748   3.547 -0.0738  0.5858 -0.3728
31275SOL    HW196363   9.875   7.812   3.606  1.4608  0.1043  1.2370
31275SOL    HW296364   9.977   7.798   3.495 -0.1650  0.7157 -0.3580
31276SOL     OW96365   8.897   4.967   7.237  0.3945 -0.4078 -0.2581
31276SOL    HW196366   8.921   5.034   7.173  0.5075 -0.7048 -0.5265
31276SOL    HW296367   8.830   5.008   7.292  0.1241 -0.2418 -0.7169
31277SOL     OW96368   1.354   8.479   6.344  0.1950 -0.1005  0.2790
31277SOL    HW196369   1.382   8.491   6.253 -1.1675 -0.3696 -0.1861
31277SOL    HW296370   1.343   8.384   6.354  0.8747 -0.1190  0.8875
31278SOL     OW96371   7.726   1.638   6.624 -0.2260  0.3071  0.0892
31278SOL    HW196372   7.719   1.558   6.571 -0.7437  0.2089  0.2960
31278SOL    HW296373   7.662   1.624   6.695 -0.8382  1.2091 -0.2801
31279SOL     OW96374   8.039   0.065   4.339 -0.5814  0.1429 -0.1312
31279SOL    HW196375   7.962   0.041   4.286 -0.9913 -1.0698  0.9851
31279SOL    HW296376   8.066  -0.017   4.380 -0.0109  0.9879  1.2115
31280SOL     OW96377   5.000   5.462   3.480  0.4173  0.1910 -0.4831
31280SOL    HW196378   4.949   5.439   3.402 -0.1220 -0.1472 -0.0353
31280SOL    HW296379   5.089   5.476   3.447  0.4540 -1.1282 -0.9807
31281SOL     OW96380   9.887   4.868   8.069 -0.4915 -0.4666 -0.3900
31281SOL    HW196381   9.889   4.860   7.973 -3.2520  0.2843 -0.5783
31281SOL    HW296382   9.851   4.955   8.084 -0.3428 -0.6948  1.3300
31282SOL     OW96383   1.253   4.753   0.668  0.2564 -0.2970  0.8842
31282SOL    HW196384   1.344   4.783   0.663 -0.1213  0.7204 -0.2035
31282SOL    HW296385   1.231   4.757   0.761  0.5026  2.0228  0.8698
31283SOL     OW96386   2.121   7.065   2.879  0.4736 -0.4893  0.7157
31283SOL    HW196387   2.089   6.975   2.877  0.6098 -0.5094 -2.7457
31283SOL    HW296388   2.216   7.057   2.873  0.3810 -0.0842 -1.5711
31284SOL     OW96389   4.863   5.585   0.382  0.5231  0.3349  0.0659
31284SOL    HW196390   4.900   5.498   0.369  1.0931  0.1137  2.9477
31284SOL    HW296391   4.781   5.571   0.427 -0.4781  1.1823 -1.4470
31285SOL     OW96392   4.260   1.825   8.005 -0.4315  0.6294  0.0971
31285SOL    HW196393   4.247   1.794   8.095 -1.8741  0.1352 -0.2720
31285SOL    HW296394   4.176   1.811   7.962  0.2918  0.7072 -1.3833
31286SOL     OW96395   9.694   6.003   1.440 -0.2744 -0.1880 -0.1168
31286SOL    HW196396   9.659   5.943   1.374 -1.4642  1.0604 -0.6478
31286SOL    HW296397   9.734   6.073   1.389 -0.6546  0.4683  0.4852
31287SOL     OW96398   3.119   2.878   0.730  0.3467 -0.4991  0.2788
31287SOL    HW196399   3.108   2.789   0.695 -0.2369 -0.2528 -0.1867
31287SOL    HW296400   3.029   2.912   0.735  0.6239  0.3019 -0.1966
31288SOL     OW96401   1.367   7.072   4.673  0.3127 -0.5372  0.5444
31288SOL    HW196402   1.289   7.049   4.723 -0.4696  0.1665 -0.3222
31288SOL    HW296403   1.415   7.132   4.731 -0.6065  0.3104  0.4498
31289SOL     OW96404   9.641   5.515   1.327 -0.3644 -0.3379 -0.1269
31289SOL    HW196405   9.671   5.485   1.413  0.1775 -0.6661 -0.4245
31289SOL    HW296406   9.717   5.562   1.291 -0.9138  0.6359 -0.0240
31290SOL     OW96407   1.600   8.346   1.186  0.4541  0.1018  0.0938
31290SOL    HW196408   1.581   8.284   1.115 -0.2837  0.2472  0.1562
31290SOL    HW296409   1.614   8.291   1.263  2.3162 -0.1142 -0.3771
31291SOL     OW96410   2.093   2.254   6.754 -0.0827  0.3545 -0.3127
31291SOL    HW196411   2.016   2.295   6.795 -0.2639  0.2707 -0.5635
31291SOL    HW296412   2.062   2.228   6.667 -0.4952 -1.9445  0.4920
31292SOL     OW96413   1.564   8.453   9.388  0.1051 -0.2968  0.0121
31292SOL    HW196414   1.641   8.467   9.333 -0.0519  0.8492  0.0690
31292SOL    HW296415   1.592   8.390   9.455  2.2610  3.1378  2.5081
31293SOL     OW96416   1.406   9.683   9.439  0.6538  0.0918  0.4388
31293SOL    HW196417   1.477   9.647   9.386  0.0423  0.0184 -0.3384
31293SOL    HW296418   1.448   9.707   9.521  1.3007 -1.3354  0.5548
31294SOL     OW96419   7.728   9.122   1.367 -0.2220  0.3989  0.1678
31294SOL    HW196420   7.776   9.143   1.287  1.2576  1.8125  1.3973
31294SOL    HW296421   7.690   9.206   1.395  0.5054  0.2243  1.7377
31295SOL     OW96422   9.350   9.903   7.122 -0.4136 -0.4871 -0.2259
31295SOL    HW196423   9.309   9.823   7.089 -2.2565  0.0557  0.7016
31295SOL    HW296424   9.278   9.967   7.125  0.3635  0.3182  1.9815
31296SOL     OW96425   5.736   0.451   0.037  0.6363 -0.2945 -0.1972
31296SOL    HW196426   5.795   0.421   0.106  1.3696  0.6773 -0.3944
31296SOL    HW296427   5.775   0.418  -0.044  0.6733 -0.0182 -0.2916
31297SOL     OW96428   9.657   2.072   6.484 -0.0311 -0.2291  0.1715
31297SOL    HW196429   9.698   2.074   6.397 -1.9698 -0.7553 -0.7957
31297SOL    HW296430   9.593   2.144   6.481 -0.6298 -0.7238  0.8886
31298SOL     OW96431   4.139   9.148   0.869 -0.4918 -0.4356  0.7624
31298SOL    HW196432   4.118   9.214   0.802  1.4247  1.3799  1.9022
31298SOL    HW296433   4.053   9.124   0.905 -1.3914 -0.0577 -1.0420
31299SOL     OW96434   5.963   7.814   8.591  0.5027  0.5171 -0.7514
31299SOL    HW196435   5.894   7.752   8.614 -0.4101  1.7316 -0.1800
31299SOL    HW296436   5.978   7.800   8.498 -0.1596 -0.1014 -0.7682
31300SOL     OW96437   7.046   1.807   3.799 -0.2521  0.1768 -0.4261
31300SOL    HW196438   7.090   1.829   3.881  0.5180 -1.2887 -0.4363
31300SOL    HW296439   7.016   1.717   3.811 -2.9993  1.0536 -0.5402
31301SOL     OW96440   5.567   4.895   2.640 -0.7203  0.3534 -0.1863
31301SOL    HW196441   5.637   4.937   2.690 -1.8333 -2.0784  3.5697
31301SOL    HW296442   5.588   4.802   2.642 -2.9642 -0.1973 -0.8167
31302SOL     OW96443   0.205   7.728   8.271  0.4663  0.4673  0.1820
31302SOL    HW196444   0.221   7.794   8.203  0.4797  0.2073 -0.0663
31302SOL    HW296445   0.282   7.671   8.268 -0.2311 -0.4573 -0.6393
31303SOL     OW96446   9.730   8.267   3.116  0.1720  0.5116  0.3474
31303SOL    HW196447   9.809   8.254   3.062  0.6128  1.1264  0.8347
31303SOL    HW296448   9.764   8.278   3.205 -0.5424 -0.2419  0.7110
31304SOL     OW96449   5.599   6.720   8.984  0.4444  0.0334 -0.4587
31304SOL    HW196450   5.687   6.736   9.018 -0.2760  2.2372  0.4408
31304SOL    HW296451   5.559   6.807   8.978 -1.4475 -0.8743 -1.4832
31305SOL     OW96452   4.989   4.971   2.730 -0.1372  0.1319 -0.3117
31305SOL    HW196453   4.972   4.877   2.737 -0.5158  0.2654  0.6531
31305SOL    HW296454   4.953   5.008   2.811 -0.2532  1.1462 -0.8165
31306SOL     OW96455   3.968   1.158   2.006 -0.9072 -0.3188  0.1729
31306SOL    HW196456   3.885   1.112   2.020  0.2121 -1.8601  2.0194
31306SOL    HW296457   4.013   1.106   1.939 -0.3721 -0.9281  1.0030
31307SOL     OW96458   8.602   8.496   5.292 -0.1902 -0.1407  0.2901
31307SOL    HW196459   8.554   8.530   5.366  1.4876 -0.0412  1.3562
31307SOL    HW296460   8.534   8.465   5.231 -1.5688 -0.8407  2.1387
31308SOL     OW96461  10.005   7.751   4.620  0.1311 -0.4750  0.4876
31308SOL    HW196462  10.030   7.712   4.704 -0.8886 -0.1601  0.9509
31308SOL    HW296463   9.961   7.832   4.644  0.6717  0.0890 -0.3984
31309SOL     OW96464  10.157   2.555   6.134 -0.0084  0.3121  0.0985
31309SOL    HW196465  10.196   2.492   6.194  1.7781  1.1644 -0.1518
31309SOL    HW296466  10.192   2.532   6.048  0.6587  1.6434  0.0030
31310SOL     OW96467   9.601   5.656   7.800 -0.4530 -0.0215  0.1289
31310SOL    HW196468   9.544   5.591   7.841 -0.1813  0.8131  1.9064
31310SOL    HW296469   9.650   5.608   7.734 -0.7845 -1.4675  0.9220
31311SOL     OW96470   1.499   5.216   4.098 -0.1397 -0.2313  0.3194
31311SOL    HW196471   1.433   5.148   4.105 -0.3398 -0.3535 -2.0587
31311SOL    HW296472   1.583   5.169   4.101 -0.2557 -0.4796 -0.2123
31312SOL     OW96473   9.373   1.759   8.450 -0.1616 -0.0352 -0.0701
31312SOL    HW196474   9.442   1.695   8.465 -0.3738 -0.0310  0.9394
31312SOL    HW296475   9.332   1.732   8.368 -1.1571 -2.0156  1.0501
31313SOL     OW96476   1.148   6.714   6.147 -0.2193 -0.0773  0.1083
31313SOL    HW196477   1.085   6.759   6.091  0.4311  2.1065  1.0698
31313SOL    HW296478   1.206   6.783   6.178  1.6192 -1.8006  0.6074
31314SOL     OW96479   9.860   1.962   3.747  0.5459 -0.2167  0.0301
31314SOL    HW196480   9.935   1.989   3.694  0.1134 -0.8241 -0.9007
31314SOL    HW296481   9.837   1.876   3.714  0.9130 -1.0682  1.9155
31315SOL     OW96482   1.383   3.212   1.003 -0.2972  0.4041 -0.2331
31315SOL    HW196483   1.468   3.235   0.964  0.2641 -0.9676  0.1632
31315SOL    HW296484   1.352   3.138   0.952 -0.8740  0.3706  0.1591
31316SOL     OW96485   3.183   1.315   3.002 -0.5053 -0.3971 -0.4008
31316SOL    HW196486   3.097   1.348   3.027 -0.4904 -0.6547 -0.0036
31316SOL    HW296487   3.183   1.223   3.031  0.4545  0.0263  0.9955
31317SOL     OW96488   0.633   6.871   4.304  0.3531 -0.5179  0.2392
31317SOL    HW196489   0.602   6.958   4.278  2.6427  0.1423 -0.4134
31317SOL    HW296490   0.558   6.831   4.348 -2.1044  0.1521 -3.1623
31318SOL     OW96491   5.859  10.155   0.024 -0.4476 -0.6852  0.0340
31318SOL    HW196492   5.938  10.192   0.064 -1.2305  0.3899  0.6194
31318SOL    HW296493   5.815  10.230  -0.015 -0.5423 -1.4791 -1.4151
31319SOL     OW96494   2.093   3.527   4.045  0.7017  0.4183  0.8544
31319SOL    HW196495   2.122   3.444   4.084  1.2696  0.1914 -0.0335
31319SOL    HW296496   2.156   3.592   4.078 -0.0944  0.6093  2.0247
31320SOL     OW96497   2.985   8.432   2.164  0.1234  0.1350  0.2506
31320SOL    HW196498   3.018   8.487   2.093  1.0192  0.9240  1.2653
31320SOL    HW296499   2.937   8.492   2.221  0.9572 -0.1320  1.2708
31321SOL     OW96500   2.442   0.920   0.842 -0.0769 -0.3665 -0.0072
31321SOL    HW196501   2.450   0.877   0.757 -2.4432  0.8490 -0.9023
31321SOL    HW296502   2.436   0.849   0.905  1.4753 -1.2858 -0.8787
31322SOL     OW96503   2.848   4.918   5.186  0.1909  0.2705  0.2861
31322SOL    HW196504   2.829   4.826   5.202  1.1295  0.2721  1.4265
31322SOL    HW296505   2.943   4.926   5.198  0.3033  1.1272 -1.0667
31323SOL     OW96506   1.524   1.962   8.010  0.4089  0.0800  0.5635
31323SOL    HW196507   1.474   2.041   7.995  1.0224  0.2472 -0.6157
31323SOL    HW296508   1.612   1.982   7.977  0.3488 -1.3674 -0.5244
31324SOL     OW96509   9.538   1.315  10.157 -0.4521  0.2599  0.3109
31324SOL    HW196510   9.473   1.374  10.196  1.2191  1.9250  0.6506
31324SOL    HW296511   9.566   1.359  10.077 -0.1085 -0.6971 -0.1059
31325SOL     OW96512   5.694   0.491   1.898 -0.5357 -0.5313  0.1833
31325SOL    HW196513   5.675   0.428   1.828 -0.1147 -1.4408  0.8768
31325SOL    HW296514   5.729   0.567   1.852 -5.4695  1.1515 -1.1643
31326SOL     OW96515   4.461   5.392   7.748 -0.3935 -0.0479 -0.3191
31326SOL    HW196516   4.434   5.421   7.835  1.0026  1.4956 -0.3636
31326SOL    HW296517   4.420   5.307   7.737 -1.9207  0.4684  1.1905
31327SOL     OW96518   7.179   0.748   0.415 -0.3533 -0.0269  0.0501
31327SOL    HW196519   7.250   0.684   0.403  1.5483  1.6696  1.6376
31327SOL    HW296520   7.104   0.696   0.441  0.9784 -1.6999  0.6496
31328SOL     OW96521   7.455   7.258   9.539  0.2543  0.1317  0.9926
31328SOL    HW196522   7.366   7.230   9.521  0.6832 -2.7501  2.9832
31328SOL    HW296523   7.448   7.313   9.618 -0.1935  3.2528 -1.1349
31329SOL     OW96524   5.351   7.311   2.274 -0.3182  0.0541  0.4200
31329SOL    HW196525   5.342   7.264   2.357  1.6044 -0.4227  0.4012
31329SOL    HW296526   5.405   7.387   2.295 -1.0277  0.7053 -0.1145
31330SOL     OW96527   0.368   2.314   5.985 -0.0422 -0.6977 -0.4519
31330SOL    HW196528   0.331   2.349   5.904 -0.5129 -0.9914 -0.3691
31330SOL    HW296529   0.450   2.362   5.998 -1.4559  1.5255  0.5182
31331SOL     OW96530   2.249   9.198   6.185  0.4325  0.3114  0.4429
31331SOL    HW196531   2.334   9.162   6.161 -0.7277 -0.5572 -2.5398
31331SOL    HW296532   2.185   9.138   6.147 -1.5408  1.3091  2.0637
31332SOL     OW96533   5.815   2.770   5.569  0.1735 -0.4085  0.2156
31332SOL    HW196534   5.776   2.811   5.646  0.0345 -1.0375  0.4836
31332SOL    HW296535   5.888   2.828   5.545 -0.6505  0.5478 -0.0377
31333SOL     OW96536   2.163   8.072   1.693  0.1866 -0.2270 -0.1281
31333SOL    HW196537   2.167   7.986   1.650 -2.5069 -0.6922  0.4858
31333SOL    HW296538   2.200   8.056   1.780  0.3990 -0.5904 -0.2814
31334SOL     OW96539   9.261   2.848   3.154  0.3789 -0.2267  0.2565
31334SOL    HW196540   9.295   2.791   3.223  0.4218 -1.6680 -0.9264
31334SOL    HW296541   9.339   2.885   3.113  0.5839 -3.0035 -2.0141
31335SOL     OW96542   1.757   6.771   1.704  0.2278  0.0925 -0.7960
31335SOL    HW196543   1.679   6.778   1.648 -0.5715 -0.6192  0.2122
31335SOL    HW296544   1.722   6.760   1.792  1.4864  1.8304 -0.0575
31336SOL     OW96545   4.629   9.571   9.213 -0.3161 -0.0505  0.1891
31336SOL    HW196546   4.581   9.562   9.295  0.6197 -2.4358  0.4973
31336SOL    HW296547   4.586   9.510   9.153 -1.0100  1.6878 -1.1250
31337SOL     OW96548   8.346   7.176   7.848  0.0493 -0.3250  0.3578
31337SOL    HW196549   8.268   7.120   7.841  1.1469 -1.7798 -0.4300
31337SOL    HW296550   8.378   7.161   7.937 -0.4693  0.1621  0.6333
31338SOL     OW96551   9.315   7.409   9.841  0.3602 -0.2595  0.3143
31338SOL    HW196552   9.338   7.498   9.813 -1.9467 -0.0482 -0.9776
31338SOL    HW296553   9.227   7.417   9.876  0.4113 -1.9200  0.8546
31339SOL     OW96554   5.078  10.102   8.008  0.0063  0.0705 -0.1939
31339SOL    HW196555   5.160  10.102   7.958 -0.0467  0.4432 -0.2830
31339SOL    HW296556   5.105  10.087   8.098  0.2065  0.5323 -0.1738
31340SOL     OW96557   1.761   8.403   0.249  0.2453 -0.0159 -0.2357
31340SOL    HW196558   1.778   8.400   0.155  0.3064  0.8275 -0.2532
31340SOL    HW296559   1.839   8.446   0.286  0.7480 -1.3705  0.3292
31341SOL     OW96560   1.694   6.225   2.678  0.2463 -0.4936 -0.4311
31341SOL    HW196561   1.661   6.298   2.729  0.3896 -0.6750 -0.0744
31341SOL    HW296562   1.753   6.179   2.738 -0.0753 -1.0702 -0.5560
31342SOL     OW96563   0.568   0.896   4.362  0.2627 -0.1644 -0.7666
31342SOL    HW196564   0.644   0.954   4.363  1.7176 -2.0636  1.4780
31342SOL    HW296565   0.579   0.843   4.284  0.9967 -0.1205 -0.6971
31343SOL     OW96566   5.797   0.058   5.924 -0.5696 -0.1396  0.3178
31343SOL    HW196567   5.721   0.079   5.871 -0.2486  0.0954 -0.0453
31343SOL    HW296568   5.764  -0.005   5.988 -0.8162 -0.9070 -0.5523
31344SOL     OW96569   2.468   2.973   6.351 -0.0883 -0.5028  0.1072
31344SOL    HW196570   2.468   2.883   6.385 -1.1722 -1.1862 -1.6706
31344SOL    HW296571   2.494   3.026   6.426  0.5398 -2.2966  1.1933
31345SOL     OW96572   4.371   7.873   1.281 -0.4838 -0.8270  0.2931
31345SOL    HW196573   4.311   7.948   1.282  0.0647 -0.3806  0.2947
31345SOL    HW296574   4.352   7.828   1.198 -2.1461 -1.7941  1.1706
31346SOL     OW96575   2.833   8.658   6.988 -0.4823  0.0245 -0.4737
31346SOL    HW196576   2.813   8.571   7.022 -0.1599  0.0171 -0.3057
31346SOL    HW296577   2.891   8.642   6.913 -0.5767  0.0861 -0.5613
31347SOL     OW96578   4.439   6.546   3.348 -0.5402  0.0576 -0.1825
31347SOL    HW196579   4.386   6.470   3.323  0.6523 -0.6916 -0.4793
31347SOL    HW296580   4.514   6.543   3.289 -0.3557  1.3269 -0.0228
31348SOL     OW96581   7.409   6.593   3.822 -0.2704 -0.0580  0.3270
31348SOL    HW196582   7.445   6.535   3.889 -0.2502 -0.2223  0.1724
31348SOL    HW296583   7.456   6.571   3.743 -1.7998 -1.3688 -0.2432
31349SOL     OW96584   8.567   2.257   6.811  0.0414  0.3225  0.1537
31349SOL    HW196585   8.536   2.265   6.721 -0.4677  0.9445  0.3808
31349SOL    HW296586   8.525   2.330   6.858 -0.2536 -0.4081  1.0437
31350SOL     OW96587   8.099   3.114   2.943  0.0883 -0.2810  0.2873
31350SOL    HW196588   8.153   3.136   2.867 -3.2262  1.2856 -1.7388
31350SOL    HW296589   8.095   3.196   2.994 -1.4554  0.0299 -0.3074
31351SOL     OW96590   1.569   1.435   4.547  0.4011  0.1587 -0.3789
31351SOL    HW196591   1.536   1.399   4.465  0.4301  0.6315 -0.6037
31351SOL    HW296592   1.529   1.381   4.615 -1.0909  0.8911 -0.6323
31352SOL     OW96593   1.219   7.693   5.754  0.2233 -0.1488 -0.2437
31352SOL    HW196594   1.296   7.683   5.810  0.2961 -1.1316 -0.4962
31352SOL    HW296595   1.253   7.722   5.670  0.5091 -2.0051 -0.8082
31353SOL     OW96596   6.385   2.197   0.266 -0.3236 -0.1119 -0.3908
31353SOL    HW196597   6.424   2.267   0.212  0.5940 -0.2911  0.0270
31353SOL    HW296598   6.366   2.240   0.349  2.4316 -0.9023  0.6932
31354SOL     OW96599   7.219   9.380   7.398  0.8512  0.0744  0.1936
31354SOL    HW196600   7.218   9.292   7.361 -1.1236  1.1786 -2.6430
31354SOL    HW296601   7.306   9.414   7.378  1.4319 -1.0226  0.8180
31355SOL     OW96602   4.847   1.393   9.715  0.3981  0.3429  0.1266
31355SOL    HW196603   4.782   1.413   9.782 -0.0136 -0.0681 -0.1476
31355SOL    HW296604   4.800   1.340   9.651  1.1680 -0.5220  0.2595
31356SOL     OW96605   1.024   3.268   4.726  0.3956  0.0024  0.7041
31356SOL    HW196606   1.076   3.312   4.794  0.7595 -1.9989  1.7376
31356SOL    HW296607   0.957   3.220   4.774 -0.0490 -0.5292 -0.4266
31357SOL     OW96608   6.500   8.057   2.999  0.4844 -0.6229  0.2801
31357SOL    HW196609   6.474   8.150   3.002 -0.5649 -0.8249 -1.5715
31357SOL    HW296610   6.439   8.013   3.057  1.2458 -0.1229  1.4945
31358SOL     OW96611   1.661   8.286   9.133 -0.0347 -0.1336 -0.2169
31358SOL    HW196612   1.726   8.261   9.068  0.5523  1.0512 -0.0950
31358SOL    HW296613   1.704   8.355   9.184 -1.2242  0.3298  0.1589
31359SOL     OW96614   8.398   3.632   1.826  0.5667 -0.1331 -0.0803
31359SOL    HW196615   8.420   3.714   1.782 -0.8882  1.6764  2.4161
31359SOL    HW296616   8.437   3.641   1.914 -1.7713 -0.9936  1.0830
31360SOL     OW96617   1.252   3.501   7.917 -0.3183  0.7094 -0.2693
31360SOL    HW196618   1.270   3.444   7.842 -1.7607  1.4185 -1.1821
31360SOL    HW296619   1.300   3.462   7.989 -0.3161 -0.9767 -1.1620
31361SOL     OW96620   3.267   1.321   7.110 -0.0226  0.3105 -0.6429
31361SOL    HW196621   3.177   1.300   7.087 -0.2613  0.1733  0.3691
31361SOL    HW296622   3.300   1.372   7.036 -0.4254 -0.9900 -1.7331
31362SOL     OW96623   3.264  10.080   6.342 -0.4061 -0.3251  0.0768
31362SOL    HW196624   3.220  10.156   6.304 -0.8899 -1.7422 -2.3680
31362SOL    HW296625   3.202  10.045   6.406 -1.0209  0.2229 -0.2127
31363SOL     OW96626   9.057   6.588   1.880 -0.4880  0.2586 -0.2456
31363SOL    HW196627   9.023   6.614   1.965 -0.9768  1.0286 -0.6661
31363SOL    HW296628   9.007   6.509   1.857  0.5008 -0.6530  0.7185
31364SOL     OW96629   5.763   4.643   0.977  0.0987 -0.4675 -0.0985
31364SOL    HW196630   5.745   4.573   0.913 -0.1627 -1.4215  0.9984
31364SOL    HW296631   5.855   4.631   1.000 -0.4441 -1.6616  1.5131
31365SOL     OW96632   5.602  10.018   3.329  0.2368  0.8168 -0.1140
31365SOL    HW196633   5.653   9.937   3.329 -2.2276 -0.8290 -1.2089
31365SOL    HW296634   5.666  10.088   3.329  2.4511 -1.1369  1.4589
31366SOL     OW96635   2.881   5.834   1.787 -0.1476  0.6118  0.8726
31366SOL    HW196636   2.904   5.874   1.703 -1.1462  0.3758  0.4799
31366SOL    HW296637   2.829   5.900   1.832 -0.8626  0.1857  0.6839
31367SOL     OW96638   2.064   8.522   5.328 -0.1684  0.4610  0.0738
31367SOL    HW196639   2.125   8.454   5.301 -0.6597  0.3389 -0.7392
31367SOL    HW296640   2.119   8.598   5.346  0.1360  0.6949 -1.7424
31368SOL     OW96641   3.769   7.512   3.480 -0.3407 -0.5920  0.2562
31368SOL    HW196642   3.820   7.533   3.559 -0.3399 -2.8378  0.8861
31368SOL    HW296643   3.833   7.478   3.418 -0.3034  1.4153 -0.8397
31369SOL     OW96644   0.830   0.208   2.882 -0.5706 -0.9284  0.3102
31369SOL    HW196645   0.912   0.241   2.846 -2.1461  0.0495 -2.5601
31369SOL    HW296646   0.797   0.148   2.814 -1.1193 -3.1137  2.4448
31370SOL     OW96647   6.670   6.208   9.868 -0.2383 -0.7061 -0.4329
31370SOL    HW196648   6.621   6.290   9.880 -0.7892 -1.1782  0.5674
31370SOL    HW296649   6.710   6.192   9.953 -1.3807 -2.2877 -0.1839
31371SOL     OW96650   9.829   7.387   7.297  0.1448 -0.2043 -0.0346
31371SOL    HW196651   9.825   7.353   7.208  0.8655 -0.8701  0.1842
31371SOL    HW296652   9.919   7.416   7.308 -0.1067  0.4640  0.2648
31372SOL     OW96653   9.634   1.342   0.758 -0.5418  0.1965  0.0714
31372SOL    HW196654   9.629   1.340   0.662  0.2053 -1.0110  0.0333
31372SOL    HW296655   9.547   1.367   0.787 -1.7459 -2.7540 -0.8576
31373SOL     OW96656   4.025   5.843   7.027  0.2379  0.0712  0.2344
31373SOL    HW196657   4.101   5.897   7.050  1.1900 -1.3765  0.5685
31373SOL    HW296658   4.004   5.796   7.107 -0.3912 -0.2747 -0.1327
31374SOL     OW96659   3.051   7.733   1.404  0.6390 -0.0702 -0.5838
31374SOL    HW196660   2.986   7.667   1.427  0.3353 -0.2682 -1.9809
31374SOL    HW296661   3.115   7.686   1.350  1.2032  0.4452 -0.3792
31375SOL     OW96662   7.951   4.310   7.258 -0.3109  0.1863 -0.1242
31375SOL    HW196663   7.890   4.302   7.184  0.7047 -0.5975 -0.8911
31375SOL    HW296664   8.010   4.381   7.233 -0.4049  0.3959  0.2505
31376SOL     OW96665   7.353   7.330   3.066  0.3417 -0.4165  0.0778
31376SOL    HW196666   7.406   7.256   3.096  0.8703  0.1415  0.5303
31376SOL    HW296667   7.327   7.375   3.146 -1.3670 -1.0486 -0.0982
31377SOL     OW96668   4.655   0.738   3.013  0.6079  0.2946 -0.2544
31377SOL    HW196669   4.640   0.832   3.024  2.0607  0.5459 -0.2651
31377SOL    HW296670   4.672   0.706   3.102  0.4240  0.1029 -0.2877
31378SOL     OW96671   7.943   5.142   6.473 -0.0507 -0.3313 -0.1255
31378SOL    HW196672   7.917   5.233   6.459 -1.6340 -0.6345  0.7289
31378SOL    HW296673   7.864   5.092   6.453  0.3745 -1.4131  0.8508
31379SOL     OW96674   4.361   2.241   2.452 -0.1478  0.3581  0.0996
31379SOL    HW196675   4.342   2.332   2.472 -1.1016  0.1047  0.3634
31379SOL    HW296676   4.357   2.236   2.356 -0.3998  0.5221  0.1022
31380SOL     OW96677   8.956   6.845   2.635  0.2746  0.3644 -1.3708
31380SOL    HW196678   9.049   6.858   2.619  0.3804  2.1542  0.5222
31380SOL    HW296679   8.952   6.771   2.695  0.4941  0.5689 -1.1052
31381SOL     OW96680   2.687   1.806   3.627  0.4952 -0.3193  0.0982
31381SOL    HW196681   2.769   1.763   3.602  1.2261  0.1821  1.6096
31381SOL    HW296682   2.706   1.899   3.622 -0.0629 -0.1962  0.2052
31382SOL     OW96683   8.718   6.992   4.379 -0.0047  0.8731  0.1768
31382SOL    HW196684   8.752   7.076   4.347  0.5120  0.7271  0.3328
31382SOL    HW296685   8.787   6.959   4.437 -1.0058  1.2171  1.5913
31383SOL     OW96686   3.448   8.445   1.144 -0.5422 -0.6126 -0.0113
31383SOL    HW196687   3.356   8.427   1.163 -0.2183 -1.7159  0.5921
31383SOL    HW296688   3.447   8.522   1.087 -1.8221 -0.4857  0.1778
31384SOL     OW96689   1.027   2.306   5.985 -0.7513 -0.3223 -0.0773
31384SOL    HW196690   1.093   2.326   6.053 -1.2750 -0.9810  0.6293
31384SOL    HW296691   1.009   2.391   5.945  0.1687 -0.0539  0.0510
31385SOL     OW96692   9.779   0.373   1.867 -0.1568 -0.2742  0.6644
31385SOL    HW196693   9.803   0.281   1.881  0.6217 -0.3348 -0.9313
31385SOL    HW296694   9.860   0.415   1.841 -0.7910  0.5856  0.0565
31386SOL     OW96695   9.579   2.279   8.053  0.5837 -0.3024  0.3682
31386SOL    HW196696   9.641   2.337   8.098  1.1229  1.3386 -2.3395
31386SOL    HW296697   9.632   2.233   7.988 -0.4982 -1.1544  0.0738
31387SOL     OW96698   0.891   3.068   1.297 -0.1726  0.1471  0.1686
31387SOL    HW196699   0.970   3.017   1.309 -0.8059 -0.7658  0.5197
31387SOL    HW296700   0.820   3.003   1.297 -1.1611  1.1833  2.5642
31388SOL     OW96701   4.331   6.092   3.510 -0.2481 -0.0337 -0.4139
31388SOL    HW196702   4.289   6.006   3.502 -2.3371  0.9894 -0.6837
31388SOL    HW296703   4.277   6.140   3.573  0.8479  1.1157 -0.3298
31389SOL     OW96704   7.257   8.311   8.801 -0.2622 -0.2330  0.0940
31389SOL    HW196705   7.309   8.254   8.858 -0.3777  0.1497  0.5829
31389SOL    HW296706   7.321   8.368   8.760 -0.3484  0.6810  1.1994
31390SOL     OW96707   8.513   2.003   4.423  0.3701 -0.6088  0.1612
31390SOL    HW196708   8.440   1.982   4.365 -0.0540 -0.5887  0.6841
31390SOL    HW296709   8.561   2.071   4.377 -1.0545  0.7893  0.6715
31391SOL     OW96710   7.935   6.296   0.009  0.6127 -0.0775 -0.0648
31391SOL    HW196711   7.888   6.373   0.040  1.4407  0.8464 -1.1000
31391SOL    HW296712   8.020   6.329  -0.020  1.9693 -1.7424  1.8653
31392SOL     OW96713   1.178   6.836   6.555  0.0296 -0.0197 -0.2059
31392SOL    HW196714   1.218   6.912   6.513  1.8084 -0.9004 -0.1291
31392SOL    HW296715   1.182   6.767   6.488 -0.6899 -0.3246  0.0613
31393SOL     OW96716   4.094   5.849   7.556 -0.1046  0.2706 -0.0328
31393SOL    HW196717   4.170   5.796   7.580 -0.1301  0.0813 -0.3690
31393SOL    HW296718   4.130   5.919   7.501 -0.4147 -0.8696 -1.7249
31394SOL     OW96719   7.622   4.652   8.498 -0.9818  0.6372 -0.0723
31394SOL    HW196720   7.549   4.714   8.499 -1.6750 -0.1735  0.1110
31394SOL    HW296721   7.655   4.651   8.588 -1.4097  0.2279  0.0808
31395SOL     OW96722   5.507   2.437   6.599  0.5485  0.8176 -0.0108
31395SOL    HW196723   5.550   2.449   6.514  0.7211 -2.0061 -0.3625
31395SOL    HW296724   5.523   2.345   6.622 -1.3268  0.9557  2.0548
31396SOL     OW96725   6.060   6.015   3.078  0.0395 -0.3115 -0.2500
31396SOL    HW196726   5.967   5.995   3.090  0.3115  0.1654  3.3994
31396SOL    HW296727   6.104   5.931   3.090  0.1747 -0.2870 -0.5738
31397SOL     OW96728   4.201   1.580   0.567  0.3280 -0.3383  0.5151
31397SOL    HW196729   4.153   1.573   0.485 -1.0003 -0.8226  1.3188
31397SOL    HW296730   4.293   1.567   0.542 -0.1985 -1.8599 -0.7016
31398SOL     OW96731   7.502   1.775   3.398 -0.1472 -0.9414  0.6641
31398SOL    HW196732   7.539   1.831   3.467  0.6832 -1.5618  0.7287
31398SOL    HW296733   7.567   1.779   3.327 -0.7329 -0.7474  0.1356
31399SOL     OW96734   9.447   6.984   6.983  0.2510  0.3802  0.7816
31399SOL    HW196735   9.482   7.072   6.970  1.6489 -0.0443  1.6026
31399SOL    HW296736   9.417   6.958   6.895  2.3066  0.6351 -0.0314
31400SOL     OW96737   3.719   4.346   8.051  0.2610  0.1949 -0.4551
31400SOL    HW196738   3.639   4.385   8.016 -0.1430 -1.8083 -1.8267
31400SOL    HW296739   3.765   4.310   7.975  1.5696 -0.3015  0.5278
31401SOL     OW96740   5.338   6.801   2.516 -0.2976  0.2907 -0.3964
31401SOL    HW196741   5.405   6.862   2.549 -0.0940 -0.1985  0.1100
31401SOL    HW296742   5.266   6.857   2.489 -0.2177  0.7452  0.3208
31402SOL     OW96743   2.490   2.280   2.026 -0.2578 -0.1461  0.0047
31402SOL    HW196744   2.545   2.357   2.040 -0.4841 -0.1300  0.8392
31402SOL    HW296745   2.439   2.272   2.107 -0.1821 -1.2123 -0.0422
31403SOL     OW96746   6.561   9.174   8.906  0.1651 -0.1410  0.8206
31403SOL    HW196747   6.483   9.178   8.961  0.1754  0.3302  0.8053
31403SOL    HW296748   6.535   9.123   8.830 -0.0898 -0.0953  0.8804
31404SOL     OW96749   1.738   0.848   8.846 -0.5214 -0.5836  0.1677
31404SOL    HW196750   1.785   0.785   8.791 -0.2451 -1.4564  1.3789
31404SOL    HW296751   1.662   0.800   8.878  0.2716 -0.6710  1.9846
31405SOL     OW96752   8.449   7.475   8.718  0.0441 -0.5205  0.0886
31405SOL    HW196753   8.497   7.538   8.665  0.2439  0.1559  1.0486
31405SOL    HW296754   8.429   7.523   8.799 -0.7491 -1.3433  0.3843
31406SOL     OW96755   7.295   3.194   4.925 -0.0969 -0.5065  0.0162
31406SOL    HW196756   7.343   3.141   4.862  0.7252 -0.1343  0.3240
31406SOL    HW296757   7.219   3.140   4.949 -0.3514 -0.6904 -1.1924
31407SOL     OW96758   4.869   2.510   0.067 -0.2201 -0.4301  0.1536
31407SOL    HW196759   4.960   2.538   0.059 -0.6841  1.1621  0.2891
31407SOL    HW296760   4.830   2.573   0.127 -1.0770 -1.9528  1.2411
31408SOL     OW96761   6.216   7.038   5.634  0.4435 -0.5014 -0.3393
31408SOL    HW196762   6.305   7.008   5.654  0.3085 -0.9641 -0.4255
31408SOL    HW296763   6.229   7.120   5.587  0.8257 -0.5529 -0.3268
31409SOL     OW96764   4.468   9.026   8.425  0.9210 -0.3428 -0.2187
31409SOL    HW196765   4.518   8.944   8.423 -1.3954 -2.0234  3.5011
31409SOL    HW296766   4.403   9.016   8.355  2.6992 -0.2450 -1.9007
31410SOL     OW96767   5.901  10.125   8.733  0.1685 -0.0621  0.0990
31410SOL    HW196768   5.821  10.141   8.783  0.6676  1.0552  0.5455
31410SOL    HW296769   5.943  10.052   8.777 -0.1917 -0.1124  0.3600
31411SOL     OW96770   7.815   5.554   9.570  0.5534  0.4477 -0.1522
31411SOL    HW196771   7.736   5.600   9.541  1.1315  0.5008 -1.6694
31411SOL    HW296772   7.812   5.470   9.525  0.3882 -0.3405  1.2823
31412SOL     OW96773   9.673   5.323   6.524 -0.6939  0.2882 -0.2273
31412SOL    HW196774   9.677   5.269   6.603  0.3422  1.5001  0.5903
31412SOL    HW296775   9.634   5.405   6.553 -0.3446  0.7300 -0.9772
31413SOL     OW96776   7.991   8.524   0.563 -0.3601 -0.6729  0.0354
31413SOL    HW196777   8.023   8.609   0.594  3.6115 -1.8599 -0.4805
31413SOL    HW296778   8.020   8.519   0.472 -1.6073 -2.1202 -0.3039
31414SOL     OW96779   1.617   9.516   0.537 -0.2882  0.5806  0.0344
31414SOL    HW196780   1.564   9.453   0.585  1.3830  0.0766  1.2507
31414SOL    HW296781   1.638   9.472   0.454 -0.7690  0.3121  0.0563
31415SOL     OW96782   9.065   9.453   5.119  0.3963 -0.0566 -0.4999
31415SOL    HW196783   8.989   9.398   5.140  0.5883 -1.5736 -3.4870
31415SOL    HW296784   9.028   9.533   5.082  0.1799  1.0179  1.9334
31416SOL     OW96785   2.714   4.251   5.989 -1.3073  0.2082  0.2945
31416SOL    HW196786   2.704   4.186   6.059 -0.4231  1.1917  1.3621
31416SOL    HW296787   2.646   4.316   6.007 -0.7331  0.7361  0.5497
31417SOL     OW96788   2.098   9.190   1.841  0.4426 -0.0392  0.0159
31417SOL    HW196789   2.082   9.144   1.758  1.2216 -0.7715  0.2694
31417SOL    HW296790   2.080   9.125   1.908  2.4010 -0.2813  0.3580
31418SOL     OW96791   4.047   4.203   2.793  0.4827 -0.1234 -0.0738
31418SOL    HW196792   4.001   4.164   2.719  0.4276 -0.5968  0.2132
31418SOL    HW296793   4.013   4.158   2.870  0.9112  0.0155  0.1989
31419SOL     OW96794   2.495   5.829   4.681 -0.5628  0.6065 -0.0942
31419SOL    HW196795   2.541   5.748   4.659 -0.0371  1.2366 -1.3422
31419SOL    HW296796   2.560   5.883   4.726 -0.2102  1.3037 -1.4279
31420SOL     OW96797   4.404   7.005   0.494 -0.0480  0.1148 -0.2652
31420SOL    HW196798   4.489   6.964   0.509 -1.0410 -1.4706  1.1661
31420SOL    HW296799   4.393   7.064   0.568 -0.9495 -0.9501  0.4470
31421SOL     OW96800   2.366   4.708   1.228  0.0386  0.2087  0.7013
31421SOL    HW196801   2.332   4.771   1.164  1.5225  0.9983  0.6539
31421SOL    HW296802   2.436   4.663   1.182  0.3928  0.0185  1.4144
31422SOL     OW96803   6.484   0.198   6.188  0.3997 -0.2323 -0.0382
31422SOL    HW196804   6.533   0.199   6.271 -1.0811 -3.0120  0.9087
31422SOL    HW296805   6.407   0.252   6.205 -0.2554 -1.3649  0.6432
31423SOL     OW96806   4.145   4.778   3.932 -0.0608  0.2375  0.1153
31423SOL    HW196807   4.167   4.705   3.873  0.1680 -0.1546  0.6836
31423SOL    HW296808   4.111   4.736   4.010 -0.6075  0.7736  0.1678
31424SOL     OW96809   6.517   6.192   3.844  0.4166  0.1355  0.3325
31424SOL    HW196810   6.501   6.243   3.765 -0.3989  1.1048  1.1092
31424SOL    HW296811   6.430   6.179   3.882  0.4639 -2.9052 -0.4896
31425SOL     OW96812  10.144   0.294   3.410  0.3559 -0.1259 -0.1213
31425SOL    HW196813  10.231   0.257   3.395  1.1218  1.8638 -0.8815
31425SOL    HW296814  10.095   0.276   3.330  0.1018 -1.1138  0.2478
31426SOL     OW96815   8.856   6.218   8.163  0.5759  0.4326 -0.2136
31426SOL    HW196816   8.799   6.217   8.086 -0.0615  3.2821  0.1494
31426SOL    HW296817   8.943   6.237   8.128  0.5594  0.2355 -0.3623
31427SOL     OW96818   6.667   2.238   6.390  0.4819 -0.2951  0.0797
31427SOL    HW196819   6.630   2.326   6.391  0.4172 -0.3018 -1.4063
31427SOL    HW296820   6.594   2.181   6.369  0.7411 -0.5944 -0.0136
31428SOL     OW96821   9.772   8.982   4.277  1.0569 -0.1116 -0.0304
31428SOL    HW196822   9.808   8.915   4.218  0.4944  0.7260 -1.3277
31428SOL    HW296823   9.849   9.026   4.313  1.4256 -1.1905  0.5540
31429SOL     OW96824   6.449   2.748   5.715  0.0229  0.1331  0.0704
31429SOL    HW196825   6.536   2.746   5.675 -0.7778  0.1153 -1.7128
31429SOL    HW296826   6.414   2.661   5.698 -0.7697  0.5011 -0.1728
31430SOL     OW96827   4.072   8.213   2.028 -0.3134  0.5707 -0.4600
31430SOL    HW196828   4.142   8.243   2.086  0.3748 -0.3938 -0.7920
31430SOL    HW296829   3.999   8.192   2.087  0.7514 -1.4562  0.1611
31431SOL     OW96830   4.388   3.551   2.071 -0.5838  0.2912  0.3073
31431SOL    HW196831   4.473   3.517   2.045 -0.2201  0.3568  1.3884
31431SOL    HW296832   4.326   3.482   2.048  0.0422 -0.7319  1.6530
31432SOL     OW96833   5.661   2.864   6.322 -0.2745 -0.0364 -0.7739
31432SOL    HW196834   5.572   2.845   6.352  0.1317 -0.6195  0.0835
31432SOL    HW296835   5.652   2.872   6.227 -2.0691  4.6582 -0.3485
31433SOL     OW96836   4.815   4.196   5.119  0.4200 -0.5992  0.0577
31433SOL    HW196837   4.727   4.233   5.130  0.9371  0.3035  1.2234
31433SOL    HW296838   4.865   4.264   5.074 -0.0127 -1.9280 -2.5567
31434SOL     OW96839   0.371   5.297   6.609 -0.4478 -0.0594  0.0600
31434SOL    HW196840   0.408   5.232   6.550 -2.8151  0.3663 -1.9969
31434SOL    HW296841   0.406   5.275   6.695 -0.7263 -3.6873 -0.6902
31435SOL     OW96842   7.927   5.953   8.121 -0.1831 -0.5967 -0.3441
31435SOL    HW196843   7.961   6.028   8.170  0.7559 -0.5989 -0.9590
31435SOL    HW296844   7.839   5.979   8.095  0.3303  0.5213 -1.0067
31436SOL     OW96845   1.102   4.203   6.294 -0.5481  0.2961 -0.8271
31436SOL    HW196846   1.178   4.260   6.278  0.1915  0.3296  2.4362
31436SOL    HW296847   1.139   4.115   6.301 -0.8114  0.2753  0.4928
31437SOL     OW96848   6.463   8.102   2.492  0.4113 -0.6345  0.8209
31437SOL    HW196849   6.472   8.067   2.581  2.1021 -1.9248  0.1744
31437SOL    HW296850   6.444   8.025   2.439 -1.1453  0.2096  0.1239
31438SOL     OW96851   3.122   2.793   3.944 -0.1511  0.3287 -0.0903
31438SOL    HW196852   3.102   2.886   3.929 -2.4162 -0.0837  0.1870
31438SOL    HW296853   3.080   2.748   3.871  1.5964 -0.4195 -0.6331
31439SOL     OW96854   9.243   8.848   4.502  0.0153 -0.6796  0.4607
31439SOL    HW196855   9.323   8.837   4.553  0.7169 -1.3612 -0.7585
31439SOL    HW296856   9.274   8.874   4.415 -1.1371 -0.0491  0.2308
31440SOL     OW96857   9.104   1.391   5.224  0.2000  0.0640  0.1403
31440SOL    HW196858   9.077   1.377   5.315  1.3984  2.5734  0.9324
31440SOL    HW296859   9.166   1.464   5.229 -0.7440  1.1157 -2.8605
31441SOL     OW96860   3.994   4.562  10.028  0.1366  0.6507 -0.2673
31441SOL    HW196861   4.047   4.634   9.996  0.4234  0.4187 -0.3228
31441SOL    HW296862   3.916   4.562   9.972  0.7581  0.0811 -1.1538
31442SOL     OW96863   1.858   1.143   8.549 -0.5588  0.3723  0.0244
31442SOL    HW196864   1.788   1.078   8.559  0.1501 -0.3141  0.6613
31442SOL    HW296865   1.903   1.117   8.468  1.0477 -1.2581  1.3810
31443SOL     OW96866   1.514   1.294   0.700  0.2155 -0.8493 -0.3582
31443SOL    HW196867   1.590   1.301   0.758  1.2098  0.5912 -1.8084
31443SOL    HW296868   1.551   1.289   0.612 -1.3283 -1.8397 -0.9652
31444SOL     OW96869   4.060   3.575   3.775  0.8610  0.4492 -0.1218
31444SOL    HW196870   4.059   3.536   3.688  0.6863 -0.7120  0.3915
31444SOL    HW296871   4.073   3.501   3.834 -0.7609  1.0058  0.9665
31445SOL     OW96872   2.043   3.897   1.656  0.2593  0.2865 -0.2474
31445SOL    HW196873   2.069   3.813   1.620  1.2448  0.7347 -0.6197
31445SOL    HW296874   2.123   3.949   1.654 -0.5147  1.4909 -0.7776
31446SOL     OW96875  10.183   1.051   5.228  0.1917 -0.0357  0.6077
31446SOL    HW196876  10.144   1.030   5.143  0.9242  0.2933  0.1818
31446SOL    HW296877  10.214   0.967   5.262  2.0104  0.1388 -0.5317
31447SOL     OW96878   4.889   9.821   8.720 -0.7005 -0.0780 -0.1736
31447SOL    HW196879   4.930   9.800   8.803 -0.4553  1.0393 -0.0035
31447SOL    HW296880   4.897   9.741   8.668 -1.4984 -1.0320  1.1139
31448SOL     OW96881   0.782   8.081   0.325 -0.3587 -0.4628  0.4028
31448SOL    HW196882   0.735   8.131   0.392  0.4714  0.4132  0.3353
31448SOL    HW296883   0.834   8.147   0.279  0.2299 -1.2971 -0.1167
31449SOL     OW96884   1.527   6.813   9.258 -0.5657 -0.6392  0.7713
31449SOL    HW196885   1.517   6.863   9.177 -0.6266 -0.4563  0.8909
31449SOL    HW296886   1.445   6.764   9.266 -1.0957  0.3321  1.3928
31450SOL     OW96887   4.461   0.948   2.882 -0.4542 -0.4021 -0.0636
31450SOL    HW196888   4.505   0.995   2.954  0.5831 -1.5121  0.0468
31450SOL    HW296889   4.494   0.859   2.889 -0.4002 -0.5337 -1.8905
31451SOL     OW96890   4.890   7.707   4.809 -0.6770 -0.4228  0.3886
31451SOL    HW196891   4.891   7.638   4.743 -0.1351 -2.3320  2.3220
31451SOL    HW296892   4.806   7.696   4.854 -0.2926 -0.3020  1.1599
31452SOL     OW96893   1.342   4.286   6.231  0.5324  0.3936 -0.7149
31452SOL    HW196894   1.382   4.214   6.182 -0.3343 -2.1635  2.1591
31452SOL    HW296895   1.408   4.310   6.297 -0.0826  0.6773 -0.1951
31453SOL     OW96896   5.871   2.956   9.883 -0.3716  0.0595 -0.1898
31453SOL    HW196897   5.906   2.880   9.837  0.5237  0.2041  0.2425
31453SOL    HW296898   5.836   3.012   9.813  1.4253  0.5135 -0.7546
31454SOL     OW96899   5.019   1.422   3.966  0.2069  0.5955 -0.2277
31454SOL    HW196900   5.104   1.431   3.922 -0.1216 -1.2760 -1.2905
31454SOL    HW296901   4.966   1.492   3.930  0.7881  0.7521 -0.7862
31455SOL     OW96902   4.612   1.000   4.059  0.0328  0.0026  0.3797
31455SOL    HW196903   4.633   1.093   4.063  0.0282 -0.0201  1.0811
31455SOL    HW296904   4.529   0.992   4.106  0.4204 -0.4587  0.9926
31456SOL     OW96905   0.386   0.147   6.343 -0.2239 -0.0812  0.3250
31456SOL    HW196906   0.320   0.171   6.278  1.3384 -0.7275 -1.5284
31456SOL    HW296907   0.424   0.066   6.310  1.5849  0.3400  1.3177
31457SOL     OW96908   0.940   4.766   1.637 -0.6744  0.2296  0.4618
31457SOL    HW196909   0.858   4.746   1.592 -1.0740  2.3633  0.1895
31457SOL    HW296910   1.004   4.708   1.596 -1.2464  1.3540 -2.1033
31458SOL     OW96911   6.970   2.285   5.469 -0.6166 -0.0742 -0.3065
31458SOL    HW196912   7.063   2.276   5.447 -0.3442 -0.4673  0.9913
31458SOL    HW296913   6.966   2.358   5.530 -1.0452 -0.6637  0.3733
31459SOL     OW96914   0.573   4.134   4.809 -0.4683 -0.1627 -0.0739
31459SOL    HW196915   0.649   4.091   4.847 -0.9344 -0.1599  0.8633
31459SOL    HW296916   0.512   4.063   4.789 -0.0099 -0.2166 -1.3186
31460SOL     OW96917   1.753   2.866   7.676 -0.0859  0.7575 -0.1817
31460SOL    HW196918   1.670   2.908   7.654 -0.7516  0.5111  1.7584
31460SOL    HW296919   1.809   2.881   7.600 -0.9175  3.5256 -0.2956
31461SOL     OW96920   7.927   0.670   7.275 -0.3331 -0.1167 -0.5101
31461SOL    HW196921   7.881   0.651   7.357  0.9301  1.1546  0.5099
31461SOL    HW296922   7.859   0.663   7.208 -1.2382 -1.8252  0.5481
31462SOL     OW96923   4.615   7.590   6.475  0.1795  0.2698 -0.1064
31462SOL    HW196924   4.570   7.573   6.393 -0.2619 -0.3527  0.2568
31462SOL    HW296925   4.618   7.686   6.482 -2.2246  0.3366  0.4542
31463SOL     OW96926   9.045   3.201   9.971 -0.2593  0.2393  0.0873
31463SOL    HW196927   9.038   3.240   9.883  0.0487 -0.7991 -0.4087
31463SOL    HW296928   9.115   3.136   9.962 -1.4253 -1.1051  0.6543
31464SOL     OW96929   6.102   9.081   9.995 -0.2700  0.0571  0.0569
31464SOL    HW196930   6.094   9.076   9.900 -0.1062  1.2316 -0.0253
31464SOL    HW296931   6.012   9.091  10.026 -0.1546  1.8191 -0.1254
31465SOL     OW96932   7.681   1.508   3.131  0.3562 -0.1349  0.4828
31465SOL    HW196933   7.764   1.489   3.088 -0.6261 -0.9785 -1.1206
31465SOL    HW296934   7.674   1.603   3.128  0.5266 -0.1469 -0.8661
31466SOL     OW96935   7.225   4.663   3.169 -0.0775  0.3417  0.7296
31466SOL    HW196936   7.184   4.749   3.178  1.0898  0.8080  1.7671
31466SOL    HW296937   7.234   4.632   3.259  2.3081  0.4919  0.5806
31467SOL     OW96938   9.061   8.866   8.434 -0.0992 -0.0218  0.7839
31467SOL    HW196939   9.111   8.945   8.413 -0.9874  0.2947 -0.1690
31467SOL    HW296940   8.980   8.899   8.473 -1.2462 -0.3807 -1.2331
31468SOL     OW96941   4.650   3.012   2.355  0.2274 -0.6049 -0.4643
31468SOL    HW196942   4.593   3.034   2.428 -0.6523 -1.3231 -0.9262
31468SOL    HW296943   4.677   3.097   2.319 -1.8451 -0.2528 -1.2370
31469SOL     OW96944   9.005   6.082   6.445 -0.3280  0.2045 -0.0441
31469SOL    HW196945   8.945   6.029   6.392 -1.7498  0.3501  1.3754
31469SOL    HW296946   8.974   6.172   6.432 -0.2690  0.3029  0.5179
31470SOL     OW96947   1.564   3.586   3.733 -0.2945 -0.3537 -0.2877
31470SOL    HW196948   1.644   3.548   3.767 -0.8672 -1.3315 -0.0138
31470SOL    HW296949   1.541   3.531   3.658 -2.2429 -1.8355  1.3503
31471SOL     OW96950   4.004   6.556   8.863 -0.3269 -0.3275  0.5897
31471SOL    HW196951   4.077   6.498   8.887  0.6392  0.5374 -0.2133
31471SOL    HW296952   3.989   6.538   8.770 -1.7192 -1.1183  0.9575
31472SOL     OW96953   8.307   2.254   0.088 -1.1265  0.0419  0.0777
31472SOL    HW196954   8.327   2.200   0.165 -1.2145  1.4046  1.0682
31472SOL    HW296955   8.358   2.334   0.101 -1.6471  0.5430 -0.9616
31473SOL     OW96956   3.942   4.124   1.370  0.0518  0.0204 -0.3888
31473SOL    HW196957   3.993   4.198   1.403  0.3838  0.5348 -2.0212
31473SOL    HW296958   4.008   4.059   1.345 -0.1273  0.2135 -1.3902
31474SOL     OW96959   1.123   4.156   9.549  0.0454  0.1106 -0.2353
31474SOL    HW196960   1.125   4.062   9.567 -1.3512  0.1120 -0.0622
31474SOL    HW296961   1.032   4.175   9.527  0.1154  1.6188  0.7246
31475SOL     OW96962   5.508   2.384   6.254  0.0489  0.2521  0.2006
31475SOL    HW196963   5.589   2.384   6.204 -0.0308  2.0421  0.0372
31475SOL    HW296964   5.521   2.317   6.322  2.0368  1.1896  0.7748
31476SOL     OW96965   5.149   9.855   9.292 -0.1655 -0.0179 -0.3906
31476SOL    HW196966   5.087   9.925   9.275 -0.3133  0.2809  1.3112
31476SOL    HW296967   5.108   9.802   9.361  1.2655 -0.0520  0.4633
31477SOL     OW96968   3.382   9.921   9.592  0.1136 -0.4920  0.4159
31477SOL    HW196969   3.463   9.956   9.630 -0.1207 -0.6471  1.0587
31477SOL    HW296970   3.409   9.888   9.506  0.5139  0.4562  0.1667
31478SOL     OW96971   0.689   6.391   9.113 -0.6331  0.0551 -0.5702
31478SOL    HW196972   0.734   6.330   9.054  0.4280 -0.6126  0.8967
31478SOL    HW296973   0.723   6.477   9.089 -0.9294 -0.1003 -1.5722
31479SOL     OW96974   7.690   1.536   0.790  0.1833 -0.4385 -0.0899
31479SOL    HW196975   7.743   1.542   0.711  2.0017  0.1842  1.1561
31479SOL    HW296976   7.744   1.488   0.852 -0.7719  0.0405  1.1330
31480SOL     OW96977   1.067   1.645   6.864 -0.2519  0.1899 -0.1825
31480SOL    HW196978   1.049   1.556   6.834  1.7641 -0.2664 -0.1261
31480SOL    HW296979   1.119   1.634   6.944 -1.3462  1.4252  0.7352
31481SOL     OW96980   8.486   1.305   7.440  0.4100 -0.0908  0.1653
31481SOL    HW196981   8.452   1.370   7.502  2.2899  0.7268  0.3784
31481SOL    HW296982   8.461   1.221   7.478 -0.3780  0.4526  0.8864
31482SOL     OW96983   8.139   5.018  10.098 -1.2083  0.2898 -0.1268
31482SOL    HW196984   8.122   4.949  10.162 -0.4566  0.0294 -0.2110
31482SOL    HW296985   8.168   5.093  10.151 -3.1929  0.9403  0.0780
31483SOL     OW96986   7.007   4.839   7.862  0.3175 -0.3469 -0.4595
31483SOL    HW196987   7.064   4.903   7.820  1.2621 -1.4035 -0.8111
31483SOL    HW296988   6.946   4.811   7.793  0.2024 -0.1746 -0.4287
31484SOL     OW96989   0.901   0.962   7.267  0.0725 -0.3329 -0.2361
31484SOL    HW196990   0.903   1.048   7.225  1.1559  0.5375  1.5269
31484SOL    HW296991   0.818   0.923   7.240 -0.5184  1.3590 -0.8907
31485SOL     OW96992   9.654   6.070   0.311 -0.0598  0.2555  0.0491
31485SOL    HW196993   9.676   6.153   0.268  0.7927  0.5420  1.0042
31485SOL    HW296994   9.674   6.085   0.403 -0.4724 -0.8226  0.3227
31486SOL     OW96995   7.544   9.271   8.135  0.6682 -0.6615 -0.5377
31486SOL    HW196996   7.481   9.321   8.187  1.7440  0.4258 -0.2391
31486SOL    HW296997   7.507   9.270   8.047  1.1310  1.6125 -0.7981
31487SOL     OW96998   1.441  10.118   9.318  0.5295  0.1401  0.1531
31487SOL    HW196999   1.360  10.092   9.362  1.1259 -0.0861  1.1458
31487SOL    HW297000   1.415  10.186   9.257 -0.3885  0.1622  0.5630
31488SOL     OW97001   0.308   8.589   6.483  0.7812  0.0477  0.2057
31488SOL    HW197002   0.386   8.644   6.484  1.6659 -1.1877  1.1324
31488SOL    HW297003   0.247   8.634   6.541  1.0023  0.7569 -0.1104
31489SOL     OW97004   0.075   1.466   9.313 -0.2828 -0.6158  0.5860
31489SOL    HW197005   0.073   1.388   9.258 -0.4362 -1.2380  1.4706
31489SOL    HW297006   0.097   1.537   9.253 -1.1569 -1.1764 -0.4061
31490SOL     OW97007   2.321   5.142   1.091 -0.1714  0.2399  0.4147
31490SOL    HW197008   2.383   5.203   1.051  0.0867  1.0550  2.0401
31490SOL    HW297009   2.366   5.107   1.168 -0.8705 -0.8980  0.3302
31491SOL     OW97010  10.155   0.731  10.117 -1.1792  0.4062  0.1990
31491SOL    HW197011  10.190   0.683  10.042 -2.0879  1.9136 -1.2233
31491SOL    HW297012  10.160   0.823  10.091 -1.4871  0.9506  1.9978
31492SOL     OW97013   4.964   3.327   2.442  0.0561  0.0275  0.2844
31492SOL    HW197014   4.973   3.276   2.362  1.3669 -1.8365  1.5663
31492SOL    HW297015   4.924   3.409   2.414  0.4958 -0.5775 -2.2679
31493SOL     OW97016   8.728   3.324   3.902 -1.0645 -0.1084  0.2368
31493SOL    HW197017   8.671   3.249   3.887 -0.9609 -0.4010  1.2421
31493SOL    HW297018   8.720   3.377   3.823  1.4018 -2.8074 -1.8829
31494SOL     OW97019   1.972   5.516   9.399  0.6391  0.2581 -0.1702
31494SOL    HW197020   2.030   5.450   9.360 -1.0838 -0.3712 -1.7013
31494SOL    HW297021   1.921   5.550   9.326  0.0064  1.7738  0.9626
31495SOL     OW97022   6.586   1.022   5.092 -0.8453  0.4041  0.1541
31495SOL    HW197023   6.583   1.117   5.103  1.1760  0.5500 -0.3022
31495SOL    HW297024   6.547   1.006   5.006  1.4553  1.1300 -1.0805
31496SOL     OW97025   5.597  10.137   5.352 -0.2748  0.0097  0.1996
31496SOL    HW197026   5.577  10.188   5.274 -0.1078  0.6988  0.6037
31496SOL    HW297027   5.604  10.047   5.321  1.5590  0.5036 -0.8818
31497SOL     OW97028   4.519   5.556   2.539 -0.0574  0.3323  0.0619
31497SOL    HW197029   4.487   5.558   2.449  1.0177  1.5016 -0.3087
31497SOL    HW297030   4.439   5.554   2.592 -0.7036  0.0660 -0.9014
31498SOL     OW97031   7.064   5.525   1.666 -0.8953 -0.0957  0.1434
31498SOL    HW197032   7.048   5.606   1.617 -2.8112  0.7198  2.0383
31498SOL    HW297033   7.077   5.554   1.756  2.8270 -1.5608  0.1362
31499SOL     OW97034   8.363   8.430   4.091  0.2659  0.3028  0.3921
31499SOL    HW197035   8.385   8.367   4.021  1.2107 -0.8096  1.6540
31499SOL    HW297036   8.306   8.494   4.049  0.5937 -0.5099 -1.3364
31500SOL     OW97037   9.813   2.546   6.341  0.2310 -0.1187 -0.3276
31500SOL    HW197038   9.884   2.610   6.339  0.3647 -0.2455  0.3816
31500SOL    HW297039   9.851   2.466   6.306  0.1876  0.0582 -0.7877
31501SOL     OW97040   1.765   4.376   3.790  0.2457  0.1338 -0.4000
31501SOL    HW197041   1.763   4.471   3.800  2.3003  0.2770 -1.0998
31501SOL    HW297042   1.686   4.345   3.834  0.8932  1.9805  2.1706
31502SOL     OW97043   4.348   2.912   4.048  0.2637  0.1078 -0.1638
31502SOL    HW197044   4.442   2.905   4.031  0.4237  1.8083 -0.0294
31502SOL    HW297045   4.333   2.852   4.121  0.8657 -1.7440 -1.5365
31503SOL     OW97046   3.535   4.657   2.446  0.8449 -0.1073  0.3005
31503SOL    HW197047   3.466   4.614   2.497  0.0579  1.4891  0.6053
31503SOL    HW297048   3.595   4.693   2.512  2.0038 -1.5194  0.0354
31504SOL     OW97049   7.162   4.958   3.456  0.2087 -0.6766  0.3921
31504SOL    HW197050   7.092   5.018   3.433  0.6786 -0.0591  0.5584
31504SOL    HW297051   7.117   4.878   3.484 -0.4075 -0.6263 -0.4252
31505SOL     OW97052   4.494   3.588   4.933 -0.6452 -0.0162  0.1373
31505SOL    HW197053   4.437   3.635   4.872  0.8494  0.6611 -0.7658
31505SOL    HW297054   4.572   3.566   4.881  0.0045 -0.7308  1.4025
31506SOL     OW97055   9.177   7.648   1.027  0.0630  0.1819  0.3199
31506SOL    HW197056   9.197   7.740   1.044 -0.3489  0.1949  0.7233
31506SOL    HW297057   9.226   7.628   0.947  0.3051  0.6976  0.3361
31507SOL     OW97058   6.313   9.825   0.742 -0.3235 -0.0409  0.3811
31507SOL    HW197059   6.276   9.799   0.657  0.1280  1.0004 -0.1562
31507SOL    HW297060   6.408   9.819   0.729 -0.2385  0.7232  0.5970
31508SOL     OW97061   8.357   2.810   6.919 -0.1807 -0.3257  0.2632
31508SOL    HW197062   8.413   2.864   6.974 -0.7054  0.5214 -0.0307
31508SOL    HW297063   8.416   2.772   6.854  0.0623  0.5604 -0.0439
31509SOL     OW97064   8.733   5.679   8.810 -0.2324  0.3199 -0.5049
31509SOL    HW197065   8.810   5.642   8.854 -0.2992  0.5423 -0.2036
31509SOL    HW297066   8.770   5.730   8.738  0.0725  2.7463  1.2980
31510SOL     OW97067   3.223   7.068   2.442  0.2155  0.1674  0.0461
31510SOL    HW197068   3.154   7.045   2.504 -0.1659 -0.5042 -0.6255
31510SOL    HW297069   3.292   7.107   2.496 -0.6356  0.7271  0.7320
31511SOL     OW97070   9.762   1.739   6.397  0.2768  0.2913 -0.2777
31511SOL    HW197071   9.703   1.771   6.465 -0.5956 -0.4107 -0.6808
31511SOL    HW297072   9.718   1.764   6.315  0.8307  0.2694 -0.5810
31512SOL     OW97073   3.445   0.346   9.020  0.0877  0.1395 -0.0399
31512SOL    HW197074   3.464   0.361   8.927 -0.6990  0.0239 -0.2216
31512SOL    HW297075   3.525   0.307   9.055  0.1012 -0.5679 -0.8448
31513SOL     OW97076   4.761   6.588   9.713 -0.0092 -0.6105  0.0009
31513SOL    HW197077   4.834   6.534   9.682  1.8185  1.4117  0.6833
31513SOL    HW297078   4.741   6.646   9.639 -2.7940 -2.9410 -1.1902
31514SOL     OW97079   2.779   7.828   4.558  0.2213 -0.3606 -0.0409
31514SOL    HW197080   2.839   7.757   4.537  2.2613  1.2511  0.1785
31514SOL    HW297081   2.692   7.788   4.554  1.2786 -2.6867 -0.5738
31515SOL     OW97082   4.233   9.222   1.236 -0.5113  0.1345  0.1594
31515SOL    HW197083   4.259   9.175   1.315  0.0606 -1.1251 -0.7528
31515SOL    HW297084   4.138   9.220   1.237 -0.5890  2.6634  2.2899
31516SOL     OW97085   1.904   0.480   9.071  0.0122 -0.0882  0.3632
31516SOL    HW197086   1.974   0.526   9.118  0.2203 -0.0385  0.0006
31516SOL    HW297087   1.912   0.511   8.981  0.3542 -1.0856  0.0508
31517SOL     OW97088   5.555   5.542   9.686  0.1059 -0.4357  0.3107
31517SOL    HW197089   5.630   5.552   9.627 -0.6285 -0.7633 -0.6868
31517SOL    HW297090   5.594   5.535   9.773  1.1087  1.9486  0.0928
31518SOL     OW97091   8.894   4.819   8.282 -0.5159  0.3800 -0.1080
31518SOL    HW197092   8.950   4.769   8.341 -1.1489 -0.0546  0.1345
31518SOL    HW297093   8.832   4.864   8.340  1.2126  2.9410 -0.1868
31519SOL     OW97094   6.178   5.756   6.815  0.2706  0.8099 -0.0596
31519SOL    HW197095   6.104   5.797   6.859 -0.7226 -0.2128 -0.7671
31519SOL    HW297096   6.176   5.665   6.845 -0.3069  0.1428 -2.0735
31520SOL     OW97097   0.208   8.248   6.217 -0.6938 -0.1582  0.2424
31520SOL    HW197098   0.187   8.246   6.123 -2.0171 -0.1774  0.5342
31520SOL    HW297099   0.154   8.179   6.255  1.1602 -1.3667  0.7671
31521SOL     OW97100   0.665   7.614   3.599 -0.3210 -0.2424  0.1628
31521SOL    HW197101   0.656   7.564   3.518 -1.1992  1.1389 -0.6214
31521SOL    HW297102   0.592   7.585   3.654  0.5613 -1.5383  0.6706
31522SOL     OW97103   6.298   6.269   6.796  0.4513  0.5469 -0.2278
31522SOL    HW197104   6.204   6.273   6.776  0.5672 -1.0593 -1.1575
31522SOL    HW297105   6.305   6.306   6.884 -1.1621 -0.0453  0.1735
31523SOL     OW97106   4.878   6.939   7.537  0.5421  0.6111 -0.6554
31523SOL    HW197107   4.900   6.989   7.459  0.8886  0.9893 -0.3231
31523SOL    HW297108   4.848   7.005   7.600 -1.9447  0.0592 -1.2276
31524SOL     OW97109   6.147   3.932   7.130 -0.1783  0.0552  0.0500
31524SOL    HW197110   6.218   3.876   7.162 -0.2744 -0.1521 -0.0999
31524SOL    HW297111   6.192   4.011   7.098 -0.1176  0.4647  1.1279
31525SOL     OW97112   7.873   0.498   6.066 -0.0053  0.1430  0.0677
31525SOL    HW197113   7.927   0.443   6.010 -0.8691 -1.0344  0.3853
31525SOL    HW297114   7.934   0.530   6.134  0.6057  0.0237 -0.4242
31526SOL     OW97115   1.286   0.069   9.135 -0.3075 -0.1062 -0.1942
31526SOL    HW197116   1.227   0.093   9.064 -0.3923 -0.5030 -0.2604
31526SOL    HW297117   1.342   0.146   9.148 -0.9251  0.3200 -0.0406
31527SOL     OW97118   6.994   4.608   3.013 -0.1799 -0.4423  0.1497
31527SOL    HW197119   7.074   4.611   3.066  0.5282  1.3894 -1.0029
31527SOL    HW297120   7.014   4.661   2.936 -2.9857  1.2163  0.5179
31528SOL     OW97121   2.623   1.526   6.550 -0.3250 -0.1415  0.4068
31528SOL    HW197122   2.698   1.491   6.599  1.3249  1.0024 -1.2347
31528SOL    HW297123   2.662   1.581   6.483 -2.6250 -0.2812 -1.1034
31529SOL     OW97124   7.229   9.709   5.109  0.1185 -0.0214  0.0104
31529SOL    HW197125   7.167   9.778   5.086  0.3171  0.0115 -0.4272
31529SOL    HW297126   7.285   9.748   5.176  0.5189  0.3945 -0.5634
31530SOL     OW97127   4.151   5.377   7.847  0.0353  0.1841 -0.5478
31530SOL    HW197128   4.176   5.306   7.906  0.2466  0.5223 -0.2325
31530SOL    HW297129   4.116   5.332   7.770  3.7681 -0.3876 -2.0014
31531SOL     OW97130   7.711   5.658   4.500 -0.3041 -0.1159  0.5350
31531SOL    HW197131   7.616   5.658   4.485 -0.0563  1.3010 -1.2154
31531SOL    HW297132   7.749   5.649   4.413  1.1835 -0.8791  1.2570
31532SOL     OW97133   0.011   1.463   3.382  0.6909 -0.1212  0.0171
31532SOL    HW197134  -0.075   1.423   3.399  0.5698  0.8412  1.7672
31532SOL    HW297135   0.057   1.458   3.466  3.1942 -2.5604 -1.4192
31533SOL     OW97136   0.014   7.178   7.162 -0.2200  0.1753 -0.2509
31533SOL    HW197137  -0.045   7.103   7.154  1.6242 -1.7538  3.1285
31533SOL    HW297138   0.072   7.172   7.086 -0.3119 -1.6305 -0.1813
31534SOL     OW97139   3.741   6.955   6.916  0.4286  0.2598  0.3693
31534SOL    HW197140   3.712   6.892   6.850 -0.3565 -0.9088  1.7828
31534SOL    HW297141   3.662   7.000   6.943  1.0747  2.2942 -1.0395
31535SOL     OW97142   0.445   8.396   0.750  0.2257  0.1869 -0.2637
31535SOL    HW197143   0.501   8.473   0.753 -1.0900  1.1310  0.5814
31535SOL    HW297144   0.407   8.397   0.662 -0.5998  1.1038  0.0951
31536SOL     OW97145   8.549   8.695   2.178 -0.9499  0.3509  0.1710
31536SOL    HW197146   8.614   8.630   2.202 -2.7169 -1.1475  1.0696
31536SOL    HW297147   8.583   8.778   2.212  0.6259 -0.3494  0.3080
31537SOL     OW97148   4.179   7.340   9.935  0.0105  0.5323 -0.0370
31537SOL    HW197149   4.201   7.431   9.914 -0.9144  0.5716 -0.8742
31537SOL    HW297150   4.254   7.290   9.903  0.6561  1.0186  0.6824
31538SOL     OW97151   8.964   9.180   3.236  0.0291 -0.3979  0.8263
31538SOL    HW197152   9.045   9.183   3.185 -1.5270 -1.9025 -1.8659
31538SOL    HW297153   8.920   9.262   3.216 -0.4980 -0.9116 -0.1773
31539SOL     OW97154   2.942   6.358   8.835 -0.2922 -0.9084 -0.2074
31539SOL    HW197155   2.875   6.411   8.878  0.2433 -0.6510  0.3049
31539SOL    HW297156   2.986   6.312   8.906  1.0689  0.0766 -0.4077
31540SOL     OW97157   9.971   8.012   0.973 -0.5939 -0.1826 -0.5766
31540SOL    HW197158   9.974   8.082   0.908  0.1913  0.4376  0.1244
31540SOL    HW297159   9.947   7.934   0.923 -0.8350  0.4517 -1.4659
31541SOL     OW97160   5.847   0.092   5.033  0.4584  0.0217 -0.3498
31541SOL    HW197161   5.757   0.124   5.028 -0.0191 -0.7689  2.3437
31541SOL    HW297162   5.848   0.016   4.975 -0.8019 -0.3525  0.0995
31542SOL     OW97163   8.118   8.378   5.461  0.2452 -0.3590 -0.1633
31542SOL    HW197164   8.123   8.284   5.477  0.6172 -0.1907  0.7379
31542SOL    HW297165   8.127   8.387   5.366  0.2395 -1.2289 -0.2467
31543SOL     OW97166   8.762   0.091   2.731 -0.8148 -0.1070 -0.2628
31543SOL    HW197167   8.697   0.155   2.704 -1.3665  0.4124  2.1822
31543SOL    HW297168   8.718   0.038   2.797  0.8516 -0.5604  0.5117
31544SOL     OW97169   8.223   6.019   0.875 -0.2692 -0.6567  0.2902
31544SOL    HW197170   8.249   6.012   0.967  0.6400  0.6047  0.1351
31544SOL    HW297171   8.173   6.101   0.870 -0.5939 -0.8857 -0.2702
31545SOL     OW97172   9.314   9.780   7.603  0.1393 -0.1655  0.2632
31545SOL    HW197173   9.319   9.702   7.548 -0.6046 -0.4709  0.6192
31545SOL    HW297174   9.385   9.770   7.665  0.9467  0.1478 -0.5921
31546SOL     OW97175   8.787   1.288   5.601  0.1654 -0.0985  0.2466
31546SOL    HW197176   8.703   1.266   5.640 -0.0870  0.6334  0.1248
31546SOL    HW297177   8.765   1.326   5.516  0.6571 -0.5944 -0.1077
31547SOL     OW97178   2.257   8.060   7.484  0.0856  0.0180 -0.4893
31547SOL    HW197179   2.241   8.068   7.578  1.3396 -0.0818 -0.2622
31547SOL    HW297180   2.213   7.978   7.459  1.4611 -1.0251  0.4127
31548SOL     OW97181   3.611   7.923   5.339 -0.1023  0.3965  0.2806
31548SOL    HW197182   3.634   7.842   5.384  0.2759 -1.4341 -3.0849
31548SOL    HW297183   3.694   7.972   5.336  0.0237  0.2307  0.9604
31549SOL     OW97184   2.609   9.165   2.226  0.1187 -0.3841 -0.4233
31549SOL    HW197185   2.530   9.218   2.230  0.5826  0.2462  0.3538
31549SOL    HW297186   2.612   9.133   2.136 -2.2028 -2.2261  0.0930
31550SOL     OW97187   3.099   4.523   2.359 -0.4548 -0.5791 -0.6209
31550SOL    HW197188   3.026   4.564   2.314  0.8213  1.4293 -0.9320
31550SOL    HW297189   3.170   4.521   2.294  0.4865 -0.3323  0.3775
31551SOL     OW97190   5.516   2.257   4.869 -0.6080 -0.2514 -0.2302
31551SOL    HW197191   5.607   2.280   4.888 -0.4216  0.1824 -1.6078
31551SOL    HW297192   5.515   2.161   4.868 -0.1667 -0.2552 -0.2026
31552SOL     OW97193   8.979   2.633  10.137  0.3604 -0.6396  0.1449
31552SOL    HW197194   8.978   2.728  10.135  1.9317 -0.6055  0.0731
31552SOL    HW297195   8.965   2.606  10.047  0.0171 -0.4651  0.1493
31553SOL     OW97196   9.951   7.461   0.137 -0.4539  0.1266 -0.1614
31553SOL    HW197197   9.961   7.483   0.044 -2.2236 -1.0804 -0.6900
31553SOL    HW297198   9.863   7.421   0.142 -0.5502  0.5732  2.1079
31554SOL     OW97199   8.672   4.806   6.968 -0.4377  0.0446  0.6489
31554SOL    HW197200   8.643   4.805   6.877 -1.1610  1.0487  0.8618
31554SOL    HW297201   8.598   4.843   7.017  0.5296  0.9662  1.4415
31555SOL     OW97202   5.070   0.855   0.615 -0.5981  0.4662 -0.0338
31555SOL    HW197203   5.011   0.782   0.636  1.6309 -1.0778  1.1445
31555SOL    HW297204   5.066   0.912   0.692 -0.5174  0.3351  0.0679
31556SOL     OW97205   0.116   3.111   2.950  0.1342 -0.0972 -0.2913
31556SOL    HW197206   0.193   3.168   2.946  0.4226 -0.4790 -0.1606
31556SOL    HW297207   0.055   3.149   2.887  0.1529  0.6166  0.1148
31557SOL     OW97208   1.204   5.996   2.460  0.1048  0.2590  0.4559
31557SOL    HW197209   1.208   6.002   2.365  0.5702 -0.7935  0.3955
31557SOL    HW297210   1.294   6.012   2.489  0.0121  0.3430  0.6979
31558SOL     OW97211   4.621   9.086   8.037  0.0899 -0.5838  0.0304
31558SOL    HW197212   4.671   9.065   8.115  4.1543  2.0593 -1.6577
31558SOL    HW297213   4.588   9.175   8.053 -0.2451 -0.5716 -0.6859
31559SOL     OW97214   2.529   1.384   7.364 -0.3008  0.0049  0.3582
31559SOL    HW197215   2.578   1.339   7.296  0.8389  1.2861  0.3186
31559SOL    HW297216   2.442   1.344   7.361 -0.4465  0.4607 -2.2458
31560SOL     OW97217   0.942   5.398   9.855  0.4830 -0.1182 -0.0048
31560SOL    HW197218   1.005   5.432   9.918  0.9622 -0.4292 -0.3179
31560SOL    HW297219   0.995   5.357   9.787 -0.0719 -0.8334 -0.0087
31561SOL     OW97220   4.125   2.886   0.772 -0.1666  0.5703  0.1796
31561SOL    HW197221   4.170   2.858   0.692 -0.2799  1.5271 -0.2265
31561SOL    HW297222   4.032   2.879   0.751 -0.2460 -1.8846  1.1866
31562SOL     OW97223   6.509   1.284   8.425 -0.2357 -0.3213  0.2278
31562SOL    HW197224   6.502   1.239   8.509 -0.9287  0.8709  0.8157
31562SOL    HW297225   6.594   1.257   8.390 -0.0376 -0.9893  1.2120
31563SOL     OW97226   2.032   1.940   5.361  0.1610  0.0361 -0.0873
31563SOL    HW197227   1.991   2.015   5.404  0.2905 -0.4129  0.8261
31563SOL    HW297228   2.085   1.899   5.429  0.6040 -0.5121 -0.7521
31564SOL     OW97229   5.132   8.485   5.707  0.1354  0.0330  0.4184
31564SOL    HW197230   5.227   8.481   5.716  0.3600  2.1514 -0.7477
31564SOL    HW297231   5.112   8.432   5.630  0.2805 -1.0615  1.1284
31565SOL     OW97232   0.395   5.347   4.890 -0.1245  0.6758 -0.1355
31565SOL    HW197233   0.360   5.288   4.822  1.2535 -0.8858  0.4718
31565SOL    HW297234   0.437   5.417   4.841 -0.8523  0.6097 -0.8781
31566SOL     OW97235   0.054  10.188   7.007  0.6507 -0.0094  0.2707
31566SOL    HW197236   0.049  10.124   6.936  0.7005 -1.1908  1.3215
31566SOL    HW297237  -0.010  10.158   7.072 -0.2913  1.7474  0.1882
31567SOL     OW97238   5.574   4.192   3.219 -0.3176  0.1384 -0.0884
31567SOL    HW197239   5.664   4.199   3.252  0.1934 -0.1827 -1.3724
31567SOL    HW297240   5.532   4.129   3.278  0.2429  0.4195  0.6270
31568SOL     OW97241   9.804  10.088   0.030 -0.1697  0.1580  0.9772
31568SOL    HW197242   9.760  10.005   0.012  0.9418 -0.2393  0.0462
31568SOL    HW297243   9.818  10.127  -0.057 -0.5500  1.2528  1.3907
31569SOL     OW97244   7.206   6.413   6.404 -0.3193  0.1053 -0.6030
31569SOL    HW197245   7.112   6.394   6.411 -0.5319  0.8119 -1.4297
31569SOL    HW297246   7.219   6.438   6.313  0.5411  0.7207 -0.3189
31570SOL     OW97247   4.914   6.858   1.096  0.1574 -0.0182 -0.3850
31570SOL    HW197248   4.829   6.821   1.118  0.0018  0.4075 -0.2800
31570SOL    HW297249   4.973   6.782   1.093 -0.0433 -0.2047  0.4124
31571SOL     OW97250   5.731   0.996   5.912  0.2631  0.0387  0.1290
31571SOL    HW197251   5.789   0.920   5.904  0.2832 -0.0169  0.7997
31571SOL    HW297252   5.655   0.964   5.961 -0.6094 -0.0361 -1.2310
31572SOL     OW97253   3.512   3.027   5.683  0.3258  0.1511 -0.0109
31572SOL    HW197254   3.587   3.027   5.743 -1.0384 -1.5986  1.7404
31572SOL    HW297255   3.466   2.946   5.701 -1.1115  0.4139 -2.2382
31573SOL     OW97256   3.670   2.024   2.071  0.1647  0.1329 -0.0830
31573SOL    HW197257   3.639   1.966   2.140  0.6121  0.4046  0.3517
31573SOL    HW297258   3.678   1.968   1.994 -0.0099 -0.2473  0.1729
31574SOL     OW97259   1.568   1.319   5.105 -0.7098 -0.5181 -0.5243
31574SOL    HW197260   1.493   1.313   5.164 -1.6499 -1.6079 -1.7923
31574SOL    HW297261   1.581   1.229   5.074  0.4602 -0.1490 -1.1229
31575SOL     OW97262  10.073   5.815   9.296 -0.1763 -0.8693  0.3516
31575SOL    HW197263  10.144   5.787   9.354  0.3178 -1.2465 -0.4304
31575SOL    HW297264  10.090   5.769   9.214  0.5294  1.5438 -0.8917
31576SOL     OW97265   1.332   4.790   3.194 -0.6220  0.7071 -0.4098
31576SOL    HW197266   1.238   4.807   3.187 -0.7501  0.5795  0.8865
31576SOL    HW297267   1.338   4.697   3.215 -0.2410  0.8871  0.2839
31577SOL     OW97268   4.214   4.978   0.950  0.4141  0.0996  0.1336
31577SOL    HW197269   4.181   5.055   0.905 -1.6266 -0.1205  1.2061
31577SOL    HW297270   4.225   5.005   1.041 -0.6893 -0.9374  0.6031
31578SOL     OW97271   9.657   8.067   6.286  0.6728 -0.4781 -0.0978
31578SOL    HW197272   9.602   8.091   6.211 -0.6497 -0.9183  0.7150
31578SOL    HW297273   9.746   8.092   6.260  0.4430 -1.9556 -2.3869
31579SOL     OW97274   0.531   5.923   2.422  0.6395 -0.0607 -0.1213
31579SOL    HW197275   0.572   5.968   2.348  0.4580 -1.5730 -1.1797
31579SOL    HW297276   0.592   5.852   2.443  0.1493 -0.3179  0.4501
31580SOL     OW97277   0.655   7.505   7.784 -0.1859  0.1038  0.3022
31580SOL    HW197278   0.682   7.529   7.872  1.6280  0.4347 -0.3321
31580SOL    HW297279   0.559   7.506   7.787 -0.1403  1.5184  1.8862
31581SOL     OW97280   6.538   1.391   9.152  0.5464  0.4205 -0.4006
31581SOL    HW197281   6.521   1.346   9.069  1.6380 -0.6688 -0.0416
31581SOL    HW297282   6.539   1.484   9.129 -0.0399  0.1759 -1.4525
31582SOL     OW97283   4.919   2.101   0.403 -0.0048 -0.0066  0.0020
31582SOL    HW197284   4.964   2.152   0.471 -2.0018  0.9560  0.6369
31582SOL    HW297285   4.951   2.138   0.321 -1.0049  1.9610  0.4527
31583SOL     OW97286   5.711   2.984   1.870 -0.5763 -0.1630  0.2442
31583SOL    HW197287   5.657   2.923   1.821 -0.3757 -0.3135  0.2093
31583SOL    HW297288   5.785   3.003   1.812 -0.0480 -0.7800  0.7079
31584SOL     OW97289   8.797   6.801   7.459 -0.4248 -0.6926  0.2005
31584SOL    HW197290   8.758   6.801   7.372  0.5334 -1.4332 -0.2430
31584SOL    HW297291   8.770   6.718   7.498 -1.2769 -0.1369  0.8148
31585SOL     OW97292   2.208   6.131   7.936 -0.4965 -0.3218  0.5175
31585SOL    HW197293   2.140   6.138   8.003 -2.1990 -0.0180 -1.2039
31585SOL    HW297294   2.174   6.181   7.862  1.0624 -1.1871 -0.8163
31586SOL     OW97295   2.503   6.945   3.603 -0.1908  0.0244 -0.1182
31586SOL    HW197296   2.591   6.914   3.583 -0.3898 -0.9354  0.4317
31586SOL    HW297297   2.516   7.026   3.651  0.3483  0.7710 -1.4833
31587SOL     OW97298   9.064   0.918   3.053  0.3357 -0.4009 -0.0752
31587SOL    HW197299   8.982   0.892   3.094  1.3106 -3.2030  0.1665
31587SOL    HW297300   9.043   0.924   2.959  0.0621 -2.0026 -0.1273
31588SOL     OW97301   3.265   5.472   8.066  0.2908 -0.3202 -0.0074
31588SOL    HW197302   3.344   5.452   8.016 -0.3912 -1.7728 -0.5361
31588SOL    HW297303   3.297   5.515   8.146  1.3923  1.7216 -1.5169
31589SOL     OW97304   5.672   2.943   8.664  0.4012 -0.4902 -0.4345
31589SOL    HW197305   5.687   2.982   8.750 -0.0172  1.0508 -1.0375
31589SOL    HW297306   5.759   2.921   8.632  0.4805 -2.0537  0.8154
31590SOL     OW97307   8.873   3.442   5.545 -0.5034  0.4375 -0.5013
31590SOL    HW197308   8.885   3.355   5.584 -1.5697  0.9261  0.9676
31590SOL    HW297309   8.846   3.498   5.618 -4.3820  1.0013 -2.2635
31591SOL     OW97310   6.470   4.695   2.027  0.0192  0.2923  0.3394
31591SOL    HW197311   6.385   4.735   2.010 -0.3667 -0.2796  0.9029
31591SOL    HW297312   6.459   4.651   2.111  0.3458 -1.2455 -0.4147
31592SOL     OW97313   5.848   1.737   1.871  0.1645  0.5647 -0.5873
31592SOL    HW197314   5.879   1.792   1.942 -1.1729 -0.6783  1.0033
31592SOL    HW297315   5.752   1.744   1.876  0.0483  0.4658 -2.2833
31593SOL     OW97316   4.096   9.305   3.970 -0.2767  0.2372  0.8964
31593SOL    HW197317   4.105   9.333   4.061 -3.4207 -0.8629  1.5828
31593SOL    HW297318   4.036   9.368   3.931 -1.1603 -0.9412  0.3389
31594SOL     OW97319   1.460   5.871   6.157 -0.9118  0.1014 -0.6780
31594SOL    HW197320   1.380   5.837   6.197 -0.5277 -0.4533 -0.3676
31594SOL    HW297321   1.431   5.941   6.099 -1.3646  1.9237  1.6808
31595SOL     OW97322   1.536   8.406   5.292  0.1106 -0.1465 -0.4961
31595SOL    HW197323   1.620   8.412   5.338 -0.4752 -1.2946  0.7913
31595SOL    HW297324   1.472   8.444   5.353 -0.4140  0.0678 -1.1680
31596SOL     OW97325   2.807   7.946   9.859 -0.0716 -0.2302 -0.1850
31596SOL    HW197326   2.795   7.879   9.926  1.3375  0.0486  0.3684
31596SOL    HW297327   2.836   8.023   9.908 -0.5236  0.4293 -0.9495
31597SOL     OW97328   7.783   1.508   1.118 -0.1575  0.3156 -0.2371
31597SOL    HW197329   7.801   1.588   1.068 -0.1601  0.7011  0.3640
31597SOL    HW297330   7.791   1.536   1.210  1.9826 -0.8708 -0.0346
31598SOL     OW97331   6.708   5.053   0.914  0.2253  0.0497  0.2740
31598SOL    HW197332   6.696   4.961   0.941 -0.4017  0.0438 -0.0018
31598SOL    HW297333   6.646   5.101   0.970 -1.0490  0.0456 -1.0962
31599SOL     OW97334   5.587   8.354   7.671  0.0085 -0.1423  0.4281
31599SOL    HW197335   5.604   8.279   7.615  1.0303  0.3753  0.0387
31599SOL    HW297336   5.653   8.419   7.646 -0.1959  0.4892  1.4846
31600SOL     OW97337   1.394   1.668   1.841 -0.0556  0.2949 -0.6719
31600SOL    HW197338   1.443   1.614   1.903 -0.5814 -1.1820 -1.4993
31600SOL    HW297339   1.390   1.755   1.881 -0.3101 -0.6111  1.2942
31601SOL     OW97340   1.276   5.327   8.901  0.1508 -0.6531  0.5368
31601SOL    HW197341   1.312   5.313   8.814  0.2774  0.3658  0.4150
31601SOL    HW297342   1.298   5.248   8.950  0.3829 -1.0779 -0.2564
31602SOL     OW97343   2.240   9.256   4.733 -0.0488 -0.2902 -0.1806
31602SOL    HW197344   2.204   9.262   4.644 -0.0244  0.1298 -0.1621
31602SOL    HW297345   2.296   9.178   4.731 -0.1066 -0.3231 -0.5113
31603SOL     OW97346   2.672   2.488   4.603  0.1971  0.4550  0.2111
31603SOL    HW197347   2.635   2.573   4.578 -0.4241  0.3227  0.6458
31603SOL    HW297348   2.629   2.467   4.686  0.8910  0.0554  0.4688
31604SOL     OW97349  10.053   0.945   0.735 -0.3248  0.4497 -0.6570
31604SOL    HW197350  10.084   0.882   0.670  0.5598  0.2216 -0.0091
31604SOL    HW297351  10.074   0.906   0.819 -0.5025  1.2417 -0.2383
31605SOL     OW97352   3.491   3.930   6.387 -0.4873  0.2455 -0.2631
31605SOL    HW197353   3.484   3.994   6.316  0.4302 -0.8590 -1.3541
31605SOL    HW297354   3.558   3.868   6.358  0.6669  0.3571  2.0153
31606SOL     OW97355   7.607   5.560   3.423 -0.1024  0.2963  0.3805
31606SOL    HW197356   7.630   5.588   3.334  0.5131  1.5249  0.9000
31606SOL    HW297357   7.686   5.579   3.475 -0.0609 -1.4349  0.9850
31607SOL     OW97358   4.795   4.502   3.608 -0.0170  0.2792 -0.1972
31607SOL    HW197359   4.849   4.435   3.650 -0.2910 -0.0839 -0.4227
31607SOL    HW297360   4.710   4.495   3.651 -0.2878 -0.0671 -0.7755
31608SOL     OW97361   7.679   8.354   0.857 -0.1188  0.7464  0.2269
31608SOL    HW197362   7.612   8.382   0.794 -0.1992  1.7678  0.7558
31608SOL    HW297363   7.653   8.394   0.940  0.8560  0.7048  0.5614
31609SOL     OW97364   1.993   2.330   0.175 -0.0995  0.7026  0.2184
31609SOL    HW197365   2.014   2.403   0.233  0.2382  0.1579  0.7886
31609SOL    HW297366   1.921   2.284   0.218  0.5179 -0.0223  0.4751
31610SOL     OW97367   9.504   8.316   2.785 -0.6599 -0.4402  0.0009
31610SOL    HW197368   9.516   8.221   2.795 -2.7673 -0.6972  0.2665
31610SOL    HW297369   9.529   8.352   2.870  1.1308 -0.6329 -0.4172
31611SOL     OW97370   7.917   3.350   4.795 -0.0197 -0.0977  0.1994
31611SOL    HW197371   8.002   3.383   4.822  0.9214  0.0093 -2.7746
31611SOL    HW297372   7.926   3.255   4.799  0.9882 -0.1305 -2.2269
31612SOL     OW97373   7.516   3.550   7.910 -0.4500 -0.3273  0.1086
31612SOL    HW197374   7.579   3.502   7.857 -0.2814 -0.0169  0.0275
31612SOL    HW297375   7.464   3.482   7.953  0.3449 -0.5965  0.6724
31613SOL     OW97376   0.593   2.664   1.870 -0.2962  0.7666 -0.2779
31613SOL    HW197377   0.545   2.698   1.945  1.2021  1.4175  0.4170
31613SOL    HW297378   0.676   2.633   1.907 -1.0492 -2.4674 -1.0959
31614SOL     OW97379   2.361   7.346   5.742 -0.1042  0.1909  0.4325
31614SOL    HW197380   2.350   7.408   5.670 -0.6608 -0.8954 -0.4113
31614SOL    HW297381   2.377   7.262   5.700 -1.0750 -0.5733  1.5639
31615SOL     OW97382   4.480   7.358   1.794  0.1876  0.4378 -0.6470
31615SOL    HW197383   4.535   7.280   1.803 -0.5382  0.0350  0.5096
31615SOL    HW297384   4.480   7.377   1.701  2.6709  0.7242 -0.6249
31616SOL     OW97385   4.728   1.908   7.050  0.6546  0.9656 -0.3409
31616SOL    HW197386   4.778   1.934   6.972  0.5772  2.6218  0.1422
31616SOL    HW297387   4.702   1.991   7.090 -0.4458  0.1174  0.7245
31617SOL     OW97388   8.009   6.736   4.043  0.2412 -0.4327 -0.4139
31617SOL    HW197389   8.086   6.684   4.069  0.0826 -1.2559 -1.5804
31617SOL    HW297390   8.035   6.779   3.962 -1.0321 -1.8425 -1.5717
31618SOL     OW97391   8.021   8.237   9.367 -0.2500  0.1835 -0.2166
31618SOL    HW197392   7.996   8.175   9.436 -2.5388  0.5389 -0.7037
31618SOL    HW297393   8.023   8.184   9.287  0.0165  0.2797 -0.2755
31619SOL     OW97394   1.200   4.499   0.124 -0.2229 -0.1625  0.2191
31619SOL    HW197395   1.196   4.435   0.195  0.1052  0.2497  0.6080
31619SOL    HW297396   1.120   4.484   0.074  0.3411 -1.5734 -0.2903
31620SOL     OW97397   1.742   4.527   1.368 -0.5071  0.0448 -0.1123
31620SOL    HW197398   1.661   4.478   1.351 -0.5139  0.2703 -0.7568
31620SOL    HW297399   1.803   4.495   1.302  0.2380 -0.8400  1.0054
31621SOL     OW97400   7.766   3.131   9.892  0.8767  0.0259  0.4876
31621SOL    HW197401   7.806   3.143   9.806 -0.6933  0.3063 -0.2137
31621SOL    HW297402   7.711   3.209   9.904 -1.8889 -1.8110  0.0736
31622SOL     OW97403   1.158   8.086   7.232  0.0489 -0.1952 -0.3883
31622SOL    HW197404   1.114   8.040   7.304  0.3174 -0.1629 -0.2016
31622SOL    HW297405   1.252   8.078   7.252  0.0725  1.1127  0.0606
31623SOL     OW97406   2.532   1.114   6.093  0.0679 -0.1407  0.3492
31623SOL    HW197407   2.490   1.200   6.083  0.6716  0.0126 -0.8564
31623SOL    HW297408   2.522   1.072   6.007 -0.9930 -1.6339  1.1722
31624SOL     OW97409   1.081   7.381   3.431 -0.2868 -0.0139  0.3833
31624SOL    HW197410   1.051   7.452   3.488  0.0449 -0.8069  1.5777
31624SOL    HW297411   1.005   7.325   3.421 -0.3652  0.1655 -0.0111
31625SOL     OW97412   5.811   8.480   2.125 -0.1675  0.8709 -0.4821
31625SOL    HW197413   5.731   8.429   2.138 -2.1486  3.1201 -3.1015
31625SOL    HW297414   5.852   8.485   2.211 -1.2379 -2.9097  0.3109
31626SOL     OW97415   0.177   7.519   6.117  0.3593  0.3178 -0.1091
31626SOL    HW197416   0.182   7.450   6.183 -0.6531  1.3276  1.0460
31626SOL    HW297417   0.268   7.536   6.092  0.6021 -1.6038 -0.6082
31627SOL     OW97418   0.483   1.473   5.640 -0.2364  0.7756  0.2012
31627SOL    HW197419   0.549   1.539   5.658 -0.3997  0.5275  1.8003
31627SOL    HW297420   0.400   1.512   5.668 -0.4144  0.1176  0.6096
31628SOL     OW97421   7.201   7.535   1.369 -0.0778 -0.0869 -0.2179
31628SOL    HW197422   7.216   7.567   1.281  0.8105  2.3031  0.7682
31628SOL    HW297423   7.121   7.580   1.398  0.3322  0.1016  0.6352
31629SOL     OW97424   5.326   8.784   6.699 -0.3120 -0.8425 -0.0221
31629SOL    HW197425   5.355   8.781   6.608  0.1860 -0.0524  0.1072
31629SOL    HW297426   5.240   8.742   6.698 -0.2160 -1.0349 -0.8152
31630SOL     OW97427   6.152   8.492   1.855 -0.1437 -0.0015 -0.2336
31630SOL    HW197428   6.236   8.467   1.892 -0.3479 -1.4474 -0.7145
31630SOL    HW297429   6.163   8.482   1.761 -0.2121  1.8316 -0.4513
31631SOL     OW97430   6.969   7.527   2.162 -0.6593  0.0604  0.1309
31631SOL    HW197431   6.988   7.515   2.255  0.0682  0.3465  0.0230
31631SOL    HW297432   7.054   7.514   2.119 -1.2546 -1.4109 -0.6123
31632SOL     OW97433   7.171   4.028   6.962 -0.0724 -0.5079 -0.1412
31632SOL    HW197434   7.124   4.044   6.880  1.3870 -0.5494 -0.9918
31632SOL    HW297435   7.261   4.054   6.944  0.3342 -0.8454  1.3487
31633SOL     OW97436   4.484   4.802   0.151 -0.5112  0.0970 -0.0542
31633SOL    HW197437   4.454   4.717   0.182 -3.4018  2.2373  3.5098
31633SOL    HW297438   4.422   4.826   0.083 -0.3792 -0.1601 -0.2657
31634SOL     OW97439   8.072   6.659   9.627  0.1569 -0.2134  0.2409
31634SOL    HW197440   8.033   6.733   9.673 -1.1450 -0.7338  0.0136
31634SOL    HW297441   7.997   6.606   9.600  1.0346 -1.2211 -0.2578
31635SOL     OW97442   7.120   3.779   4.867  0.3528  0.1998 -0.3935
31635SOL    HW197443   7.097   3.815   4.782 -0.4433  0.4222 -0.0910
31635SOL    HW297444   7.214   3.794   4.875  0.3565  0.5426 -1.0614
31636SOL     OW97445   8.304   5.164   3.489 -0.1683 -0.0792  0.1807
31636SOL    HW197446   8.233   5.202   3.540 -1.3251 -1.1366 -0.5954
31636SOL    HW297447   8.384   5.198   3.528 -1.1026  0.8582  1.2837
31637SOL     OW97448   1.109   9.099   5.498  0.1471  0.7348 -0.1066
31637SOL    HW197449   1.143   9.089   5.409  0.5203  0.9420  0.0120
31637SOL    HW297450   1.028   9.048   5.498  0.9600 -0.5763 -0.1003
31638SOL     OW97451   9.529   9.821   9.419 -0.0618 -0.1118 -0.1303
31638SOL    HW197452   9.486   9.834   9.503 -0.1195  2.1977 -0.4799
31638SOL    HW297453   9.507   9.900   9.369 -0.0031 -1.4274 -2.2895
31639SOL     OW97454   4.100   6.998   0.019  0.0734 -0.5728 -0.2619
31639SOL    HW197455   4.081   6.916   0.064  1.1034  0.1124  1.4875
31639SOL    HW297456   4.118   6.972  -0.071 -0.3464 -2.1748  0.0944
31640SOL     OW97457   7.742   5.911   2.079  0.5310  0.0429 -0.1983
31640SOL    HW197458   7.763   5.926   2.171  0.2596  0.1452 -0.1527
31640SOL    HW297459   7.725   5.999   2.044  2.1928  0.1652 -0.7317
31641SOL     OW97460   1.256   0.001   2.013  0.2696  0.6733 -0.4078
31641SOL    HW197461   1.322  -0.028   1.950  1.0534  0.6560  0.4104
31641SOL    HW297462   1.209  -0.079   2.036 -1.1629  0.9569 -2.2631
31642SOL     OW97463   1.991   9.456   0.411 -0.6647  0.0335 -0.2387
31642SOL    HW197464   2.061   9.506   0.370  0.2190 -0.3079  0.8287
31642SOL    HW297465   1.916   9.467   0.352  0.3987  0.0547 -1.6152
31643SOL     OW97466   6.699   2.411   5.807 -0.1723  0.4369  0.5614
31643SOL    HW197467   6.624   2.395   5.865 -0.7272  0.2121 -0.2038
31643SOL    HW297468   6.739   2.325   5.796 -0.7406  0.2761 -0.2922
31644SOL     OW97469   5.720   3.520   7.079 -0.4209 -0.0048  0.5014
31644SOL    HW197470   5.680   3.606   7.089 -0.1822  0.0679  0.8208
31644SOL    HW297471   5.810   3.539   7.052 -0.3657 -0.1546  0.5818
31645SOL     OW97472   4.053   4.867   0.196  0.8396  0.1295  0.2147
31645SOL    HW197473   4.089   4.786   0.162 -0.1836 -0.0283 -0.5158
31645SOL    HW297474   4.039   4.850   0.290 -2.6636 -1.7865 -0.5666
31646SOL     OW97475   9.810   5.144   8.872  0.5378 -0.2325 -0.1366
31646SOL    HW197476   9.725   5.112   8.901  0.2494  0.3283 -0.3643
31646SOL    HW297477   9.799   5.163   8.779  0.2536  1.9848  0.3099
31647SOL     OW97478   9.092   4.941   9.327  1.0507  0.6310  0.3592
31647SOL    HW197479   9.040   5.018   9.347  0.3229  0.3374 -0.3547
31647SOL    HW297480   9.133   4.917   9.410 -1.8187 -0.5223  1.5072
31648SOL     OW97481   4.821   1.571   9.941  0.0401 -0.5478 -0.2308
31648SOL    HW197482   4.779   1.499   9.987 -0.3468  0.5850  1.2169
31648SOL    HW297483   4.768   1.648   9.962  1.1061  0.3694 -0.8235
31649SOL     OW97484   5.686   5.188   8.191  0.0353 -0.0782 -0.0905
31649SOL    HW197485   5.691   5.125   8.119 -0.6370 -1.7108  1.2837
31649SOL    HW297486   5.773   5.188   8.230  1.1375  2.5697 -2.3060
31650SOL     OW97487   1.725   0.656   3.238 -0.0714  0.0664 -0.0281
31650SOL    HW197488   1.675   0.726   3.195  0.9933  0.8729  0.0407
31650SOL    HW297489   1.812   0.692   3.250  0.2131 -0.9103  0.9419
31651SOL     OW97490   0.289   2.683   3.319  0.0218 -0.3435  0.2939
31651SOL    HW197491   0.259   2.633   3.243 -0.7224 -0.2669  0.5330
31651SOL    HW297492   0.233   2.761   3.319  0.1388 -0.2611  0.8251
31652SOL     OW97493   2.407   6.742   4.908 -0.1138  0.1529 -0.2835
31652SOL    HW197494   2.444   6.712   4.825 -0.1828 -2.8962  0.7026
31652SOL    HW297495   2.442   6.680   4.973 -1.3726  1.4789  1.6978
31653SOL     OW97496   9.641   3.663   4.236  0.5315 -0.5638 -0.1743
31653SOL    HW197497   9.707   3.615   4.288  0.6936 -0.3472 -0.1811
31653SOL    HW297498   9.691   3.704   4.166  0.5972  0.7584  0.6203
31654SOL     OW97499   0.042   1.623   4.388 -0.3147 -0.4091  0.9669
31654SOL    HW197500  -0.007   1.675   4.325  1.2383 -2.3847 -1.9769
31654SOL    HW297501   0.116   1.678   4.413  0.2105 -0.4105 -0.5626
31655SOL     OW97502   4.080   9.084   9.440  0.0443  0.1233 -0.0931
31655SOL    HW197503   4.096   9.179   9.443  1.4077 -0.1079  0.2612
31655SOL    HW297504   3.986   9.075   9.456  0.1246  1.3501  1.1646
31656SOL     OW97505   1.536   1.900   4.099  0.5881  0.1308  0.2758
31656SOL    HW197506   1.547   1.930   4.009  0.1617 -2.1274 -0.5716
31656SOL    HW297507   1.485   1.968   4.142  1.2426  1.4726 -1.0385
31657SOL     OW97508   3.896   7.382   4.008  0.7749  0.3142 -0.2670
31657SOL    HW197509   3.875   7.452   4.069 -0.6145  0.2262 -0.6326
31657SOL    HW297510   3.854   7.304   4.045  0.7977  0.0484 -0.7958
31658SOL     OW97511   7.166   9.340   6.011 -0.1049  0.5490 -0.2157
31658SOL    HW197512   7.206   9.423   5.985  0.9581 -0.0584 -0.5460
31658SOL    HW297513   7.083   9.337   5.963 -0.9135  2.1367  0.9991
31659SOL     OW97514   6.480   1.051   3.848 -0.3487 -0.0383  0.9172
31659SOL    HW197515   6.401   0.999   3.832  0.6484 -1.7886  1.4809
31659SOL    HW297516   6.550   0.986   3.853  0.9803  1.4078  1.3806
31660SOL     OW97517   1.195   0.913   5.448  0.2202 -0.2879 -0.3198
31660SOL    HW197518   1.127   0.912   5.515  1.2572 -0.7539  0.7290
31660SOL    HW297519   1.203   1.005   5.423  0.9602  0.1008  1.3462
31661SOL     OW97520   8.434   6.824   1.877 -0.1735 -0.2388 -0.1838
31661SOL    HW197521   8.407   6.746   1.926 -1.0960  1.0192  1.3636
31661SOL    HW297522   8.424   6.896   1.939  1.2705  1.0468 -1.3927
31662SOL     OW97523   6.038   6.762   8.630 -0.7021  0.2871 -0.6152
31662SOL    HW197524   6.101   6.762   8.701 -1.1271 -0.1679 -0.2373
31662SOL    HW297525   6.081   6.713   8.560  0.1995  1.7355 -1.1221
31663SOL     OW97526   8.760   3.020   1.156 -0.0767 -0.2746 -0.1288
31663SOL    HW197527   8.776   2.981   1.242 -0.3864  0.4242  0.2428
31663SOL    HW297528   8.692   2.965   1.117 -0.4074 -0.1903  0.3356
31664SOL     OW97529   7.141   9.171  10.158 -0.1066  0.6567 -0.4124
31664SOL    HW197530   7.216   9.142  10.105  0.2787 -0.6002  0.7965
31664SOL    HW297531   7.072   9.108  10.138 -0.6174  1.3930 -0.9767
31665SOL     OW97532   7.765   6.382   5.832 -0.4342 -0.0741  0.0975
31665SOL    HW197533   7.788   6.455   5.889 -2.5768  1.0532 -0.4093
31665SOL    HW297534   7.771   6.305   5.887  3.1399  0.2812  0.3097
31666SOL     OW97535   7.165   0.370   6.360 -0.2047 -0.5902  0.7273
31666SOL    HW197536   7.096   0.342   6.420 -0.8270  0.6891  0.6229
31666SOL    HW297537   7.180   0.294   6.304 -1.2853 -0.9981  0.9840
31667SOL     OW97538   6.933   8.931   9.707  0.0950 -0.2426  0.1763
31667SOL    HW197539   6.940   8.926   9.612  2.2944 -1.4721  0.3633
31667SOL    HW297540   6.843   8.904   9.726  0.1347 -1.5930 -1.4529
31668SOL     OW97541   1.930   1.061   3.267 -0.1995 -0.4333  0.4466
31668SOL    HW197542   1.867   1.116   3.314 -0.2374 -0.0970  0.0099
31668SOL    HW297543   2.002   1.121   3.246 -0.8051 -0.2314 -1.1384
31669SOL     OW97544   9.509   6.838   7.398 -0.0273  0.1940 -0.3890
31669SOL    HW197545   9.462   6.778   7.339 -2.7531  2.1378 -0.2818
31669SOL    HW297546   9.529   6.785   7.475 -1.2859 -0.9199 -0.8040
31670SOL     OW97547   7.712   5.470   6.590 -0.8757  0.0549 -0.0690
31670SOL    HW197548   7.790   5.459   6.535  1.4404  0.8720  2.9314
31670SOL    HW297549   7.737   5.435   6.675 -3.8410  0.3072  0.9772
31671SOL     OW97550   3.706   6.280   3.693 -0.4969 -0.5921  0.2364
31671SOL    HW197551   3.704   6.214   3.762 -0.0903  0.2247  1.0481
31671SOL    HW297552   3.623   6.327   3.701  0.0156  0.2336  0.9246
31672SOL     OW97553   4.629   4.204   2.277 -0.5049  0.2353  0.2170
31672SOL    HW197554   4.608   4.196   2.370 -3.7843  2.3598 -0.2529
31672SOL    HW297555   4.700   4.267   2.273  0.3293 -0.6286  1.3395
31673SOL     OW97556   7.321   0.468   6.597  0.0889 -0.2566 -0.2299
31673SOL    HW197557   7.250   0.443   6.538  0.8765 -1.0868 -0.8292
31673SOL    HW297558   7.381   0.394   6.596  0.3078 -0.1170  1.3107
31674SOL     OW97559   8.632   5.702   0.269 -0.3184  0.4959  0.7249
31674SOL    HW197560   8.566   5.704   0.200 -0.5120  0.8675  0.9232
31674SOL    HW297561   8.629   5.612   0.302 -1.3001  0.7399  1.3015
31675SOL     OW97562   0.984   7.655   8.603 -0.5229  0.2811 -0.1603
31675SOL    HW197563   1.027   7.574   8.573 -0.7630  0.4643 -1.0397
31675SOL    HW297564   0.932   7.683   8.527  0.7134  2.0657 -0.3808
31676SOL     OW97565   0.254   6.610   4.813 -0.2868  0.6223  0.3646
31676SOL    HW197566   0.347   6.616   4.793 -0.4721  2.5704 -0.0602
31676SOL    HW297567   0.248   6.551   4.888  1.2604  0.3575  0.2823
31677SOL     OW97568   2.958   1.075   5.759 -0.2071 -0.2598 -0.1108
31677SOL    HW197569   2.960   1.046   5.850  1.2959  2.2049  0.6745
31677SOL    HW297570   3.010   1.010   5.712 -1.1390 -1.6455  0.7320
31678SOL     OW97571   6.380   4.241   5.905  0.4407 -0.1224  0.0778
31678SOL    HW197572   6.429   4.320   5.882  0.4710 -0.6550 -1.7832
31678SOL    HW297573   6.417   4.173   5.848 -0.6086 -1.1411  0.5954
31679SOL     OW97574   8.902   2.946   1.846  0.3193  0.2461  0.3820
31679SOL    HW197575   8.965   3.012   1.875 -2.5832  2.5159  1.8954
31679SOL    HW297576   8.891   2.889   1.923 -0.1730  0.4344  0.4518
31680SOL     OW97577   6.792   6.127   6.426 -0.8896 -1.0899 -0.1214
31680SOL    HW197578   6.846   6.180   6.485 -2.6103  0.5815 -0.0046
31680SOL    HW297579   6.826   6.147   6.339  1.3862 -3.2501  0.2092
31681SOL     OW97580   4.680   3.076   0.466 -0.6862 -0.4381  0.5790
31681SOL    HW197581   4.652   3.148   0.523  1.6472  0.2817  0.8713
31681SOL    HW297582   4.706   3.119   0.385  2.6180 -0.6750  1.4374
31682SOL     OW97583   5.917   8.228   4.105  0.1882  0.0677 -0.4305
31682SOL    HW197584   6.009   8.233   4.130 -0.0023 -0.9860  0.5205
31682SOL    HW297585   5.879   8.164   4.165 -0.8466 -0.5966 -1.7618
31683SOL     OW97586   6.757   8.308   3.804  0.3505 -0.1152 -0.5045
31683SOL    HW197587   6.686   8.340   3.748  0.9220  0.7547 -0.7354
31683SOL    HW297588   6.773   8.218   3.773 -1.7775 -0.9363  0.6629
31684SOL     OW97589   5.864   2.836   3.379 -0.0761  0.2875 -0.2172
31684SOL    HW197590   5.865   2.745   3.410  0.6446  0.2719 -0.2795
31684SOL    HW297591   5.928   2.838   3.308 -1.9787  0.2392 -1.9839
31685SOL     OW97592   9.513   8.142   5.296  0.4776  0.2900  0.4369
31685SOL    HW197593   9.454   8.067   5.308  2.1280 -1.1786 -0.2655
31685SOL    HW297594   9.461   8.207   5.249 -1.1425 -0.2111  1.5060
31686SOL     OW97595   2.681   3.627   6.395  0.2325  0.1443 -0.1239
31686SOL    HW197596   2.712   3.564   6.460 -1.6550  0.4651  1.1491
31686SOL    HW297597   2.698   3.713   6.435  1.8693  0.4407 -1.4070
31687SOL     OW97598   8.632   4.187   7.870 -0.2316 -0.1053  0.2047
31687SOL    HW197599   8.567   4.241   7.825 -1.2421 -0.5864  1.0718
31687SOL    HW297600   8.593   4.169   7.956  0.8056 -0.8586  0.5211
31688SOL     OW97601   8.529   1.263   4.196 -0.1735  0.5362  0.1750
31688SOL    HW197602   8.536   1.258   4.101  1.3467  1.5269  0.2221
31688SOL    HW297603   8.500   1.353   4.213 -0.5075  0.3418  0.6564
31689SOL     OW97604   2.239   8.885   8.301  0.0225 -0.3753  0.3459
31689SOL    HW197605   2.189   8.809   8.270 -0.5850 -0.3335  1.1974
31689SOL    HW297606   2.218   8.954   8.239 -1.3584 -0.2291  0.9533
31690SOL     OW97607   8.810   0.784   2.273 -0.6006 -0.0522 -0.7042
31690SOL    HW197608   8.848   0.708   2.229 -2.1690 -1.5495  0.4676
31690SOL    HW297609   8.755   0.825   2.207 -0.1168 -0.1869 -1.1991
31691SOL     OW97610   1.509   8.041   5.328  0.1372 -0.5993 -0.2958
31691SOL    HW197611   1.501   8.055   5.422 -1.6985 -0.4156 -0.4647
31691SOL    HW297612   1.549   7.954   5.320 -1.7853 -1.5943  0.6519
31692SOL     OW97613   7.334   1.247   6.053 -0.1325  0.3451  0.3085
31692SOL    HW197614   7.261   1.262   6.113 -0.7654 -1.6208  0.0720
31692SOL    HW297615   7.411   1.248   6.110 -0.7009 -1.2002  1.1491
31693SOL     OW97616   0.713   7.498   1.576  0.1417 -0.1949 -0.0050
31693SOL    HW197617   0.802   7.527   1.553 -0.0083 -1.1597 -1.8514
31693SOL    HW297618   0.717   7.486   1.671  1.6998  0.7398  0.0777
31694SOL     OW97619   2.671   4.115   2.197  0.3342  0.0200  0.0760
31694SOL    HW197620   2.652   4.204   2.166  1.1259 -0.1464 -0.9297
31694SOL    HW297621   2.636   4.058   2.129  0.4496 -0.4171  0.3818
31695SOL     OW97622   0.110   6.519   5.440  0.3059 -0.6254  0.0156
31695SOL    HW197623   0.168   6.465   5.494  0.3614 -0.0849  0.5048
31695SOL    HW297624   0.067   6.457   5.381 -1.7865 -1.6044  2.4931
31696SOL     OW97625   3.777   5.034   6.741  0.6910  0.4259  0.1741
31696SOL    HW197626   3.748   4.952   6.780 -0.2067  0.4587 -0.4059
31696SOL    HW297627   3.829   5.076   6.810 -1.4356  0.7975  1.6245
31697SOL     OW97628   0.833   6.000   0.143  0.3531 -0.4370  0.0347
31697SOL    HW197629   0.834   6.096   0.136  1.1913 -0.5518 -2.1482
31697SOL    HW297630   0.835   5.970   0.052  1.5414 -2.5237  0.7045
31698SOL     OW97631   0.885   2.184   4.301  0.0157 -0.4595 -0.2384
31698SOL    HW197632   0.923   2.097   4.289  3.2208  0.8766 -0.3339
31698SOL    HW297633   0.839   2.202   4.219 -1.0040 -2.2059 -0.0595
31699SOL     OW97634   3.453   8.203   7.522  0.4205 -0.3844  0.3373
31699SOL    HW197635   3.473   8.126   7.470 -0.8407 -1.4035  1.3519
31699SOL    HW297636   3.527   8.211   7.582 -0.2846 -1.8234  1.4073
31700SOL     OW97637   7.128   1.628   2.506  0.0416 -0.7921  0.5920
31700SOL    HW197638   7.105   1.555   2.563 -0.1068  0.9806  2.9060
31700SOL    HW297639   7.051   1.641   2.451 -2.1819  1.0397  3.9193
31701SOL     OW97640   9.873   8.121   9.908 -1.1815  0.1869  0.4039
31701SOL    HW197641   9.896   8.214   9.904  0.5513 -0.1325  2.1731
31701SOL    HW297642   9.818   8.106   9.831 -1.5103  2.6842  0.1353
31702SOL     OW97643   8.335   6.797   6.004 -0.1530 -0.2504 -0.3885
31702SOL    HW197644   8.313   6.796   5.911 -0.8021  0.1368 -0.2429
31702SOL    HW297645   8.252   6.778   6.049  0.2604 -0.9818  0.0960
31703SOL     OW97646   9.945   7.046   2.500 -0.0369 -0.0104 -0.3535
31703SOL    HW197647  10.018   6.999   2.539 -0.7082 -0.8729 -0.1185
31703SOL    HW297648   9.952   7.027   2.406 -0.5225 -0.9140 -0.2193
31704SOL     OW97649   7.180   4.306   0.021 -0.3334 -0.4719 -0.1065
31704SOL    HW197650   7.085   4.314   0.007 -0.4494 -1.6629 -0.0758
31704SOL    HW297651   7.205   4.228  -0.028  0.3854 -0.9703  1.0255
31705SOL     OW97652   2.335   7.933   8.954 -0.1126 -0.0080  0.1123
31705SOL    HW197653   2.389   7.908   8.878  0.7723  1.1188  0.3636
31705SOL    HW297654   2.386   8.001   8.998 -1.3813  0.4856  0.8171
31706SOL     OW97655   9.956   5.579   7.880 -0.4176 -0.1065  0.1687
31706SOL    HW197656   9.910   5.541   7.954 -0.6234  0.3998  0.3043
31706SOL    HW297657   9.913   5.663   7.865  1.4260  1.0732  1.2508
31707SOL     OW97658   5.406   3.476   9.952 -0.2382  0.1312  0.0013
31707SOL    HW197659   5.399   3.470   9.857  0.3649  1.9936 -0.1880
31707SOL    HW297660   5.317   3.460   9.984 -0.9800  2.0788 -1.0449
31708SOL     OW97661   1.395   0.466   9.452 -0.3515 -0.0950 -0.3698
31708SOL    HW197662   1.341   0.455   9.531  2.3302  0.7290  1.6577
31708SOL    HW297663   1.431   0.554   9.459 -0.9070  0.3839 -3.0875
31709SOL     OW97664   5.101   3.787   5.389  0.2140 -0.0987 -0.2615
31709SOL    HW197665   5.169   3.722   5.371 -1.1152 -2.1508  1.7018
31709SOL    HW297666   5.019   3.739   5.375 -0.8266  1.6977 -0.4973
31710SOL     OW97667   4.106   3.163   0.752  0.1670  0.6958  0.0118
31710SOL    HW197668   4.068   3.202   0.831  2.2158  0.0097  1.3611
31710SOL    HW297669   4.127   3.073   0.778 -1.4451 -0.3261 -2.0785
31711SOL     OW97670   8.267   7.593   3.097  0.2481 -0.1657 -0.4967
31711SOL    HW197671   8.187   7.567   3.051  0.5755 -1.0306 -0.5701
31711SOL    HW297672   8.294   7.516   3.146  1.5456 -0.1773 -1.1868
31712SOL     OW97673   8.531   9.852   0.838 -0.2354 -0.0768  0.1933
31712SOL    HW197674   8.504   9.766   0.806 -0.8405  0.9659 -2.1470
31712SOL    HW297675   8.471   9.914   0.797  2.5356  1.8039 -1.1923
31713SOL     OW97676   2.697   1.349   4.414 -0.0619 -0.0419  0.0912
31713SOL    HW197677   2.702   1.280   4.347 -1.5127 -0.8535  0.7958
31713SOL    HW297678   2.697   1.430   4.364  0.2926 -0.6012 -0.8304
31714SOL     OW97679   8.170   5.522   0.110  0.2176 -0.0953  0.0312
31714SOL    HW197680   8.169   5.518   0.205  0.6282 -1.4795 -0.0061
31714SOL    HW297681   8.132   5.607   0.089  1.4739  0.8440  1.4601
31715SOL     OW97682   5.558   2.163   0.189  0.2878 -0.1331  0.3461
31715SOL    HW197683   5.620   2.149   0.117 -0.2266  1.8382 -0.5079
31715SOL    HW297684   5.520   2.076   0.205 -1.6307 -0.1614 -3.6628
31716SOL     OW97685   0.823   8.630   8.257  0.0747 -0.0053  0.9707
31716SOL    HW197686   0.847   8.644   8.165  0.5131 -0.8384  0.9488
31716SOL    HW297687   0.882   8.687   8.306 -0.2137  0.5009  0.7293
31717SOL     OW97688   6.690   7.100   3.308 -0.4679 -0.2037  0.1483
31717SOL    HW197689   6.642   7.113   3.390 -0.2698  1.1570  0.0631
31717SOL    HW297690   6.667   7.176   3.254  1.3268  0.2106 -0.0983
31718SOL     OW97691   4.707   5.527   2.162 -0.9818  0.4778  0.3177
31718SOL    HW197692   4.644   5.596   2.185 -1.1336 -0.0499  1.4784
31718SOL    HW297693   4.739   5.494   2.245  0.5993  0.5036 -0.2693
31719SOL     OW97694   0.401   4.260   7.405 -0.1108 -0.4572  0.5814
31719SOL    HW197695   0.308   4.251   7.429  0.6663 -2.1225  3.0489
31719SOL    HW297696   0.443   4.295   7.483  1.4990 -0.3989 -0.2875
31720SOL     OW97697  10.107   7.279   3.717 -0.3317  0.5009 -0.2676
31720SOL    HW197698  10.018   7.284   3.751  0.0303  0.5459  0.7180
31720SOL    HW297699  10.098   7.261   3.624 -1.2995 -4.7054  0.7109
31721SOL     OW97700  10.200   4.834   1.773  0.6162 -0.1909  0.1616
31721SOL    HW197701  10.144   4.870   1.842 -1.7908  0.0342 -1.8615
31721SOL    HW297702  10.180   4.741   1.772  2.0999 -0.5473  1.0268
31722SOL     OW97703   7.725   8.255   7.287  0.4239  0.2522  0.1169
31722SOL    HW197704   7.718   8.175   7.235 -0.5363  0.8245 -0.6568
31722SOL    HW297705   7.711   8.226   7.377  1.4286 -0.6444 -0.0111
31723SOL     OW97706   7.273   6.450   9.627  0.3911  0.6715 -0.0296
31723SOL    HW197707   7.365   6.467   9.606  1.2256 -0.2846  2.6543
31723SOL    HW297708   7.245   6.528   9.676  0.2540  0.3027  0.4926
31724SOL     OW97709   6.797   3.917   2.394  0.2830 -0.7751  0.0376
31724SOL    HW197710   6.763   3.941   2.480  0.9998  2.1463 -0.4339
31724SOL    HW297711   6.869   3.856   2.412 -0.4546 -1.2381  1.4152
31725SOL     OW97712   5.487   0.116   3.546 -0.1684  0.2918  0.2710
31725SOL    HW197713   5.512   0.172   3.619 -1.3665 -0.1247  1.0147
31725SOL    HW297714   5.392   0.120   3.544 -0.1428  0.3550 -1.3212
31726SOL     OW97715   9.065   5.616   7.282  0.5167 -0.1942  0.0777
31726SOL    HW197716   9.056   5.546   7.218  0.0428  0.8329 -0.9877
31726SOL    HW297717   8.987   5.671   7.270  0.1777 -0.2529  1.8516
31727SOL     OW97718   3.103  10.183   2.048  0.0218 -0.4086 -0.2656
31727SOL    HW197719   3.028  10.224   2.091 -0.1418 -0.3393 -0.6119
31727SOL    HW297720   3.065  10.118   1.990  0.1305  0.7259 -1.6411
31728SOL     OW97721   0.358   5.857   8.498  0.2441  0.1744 -0.1840
31728SOL    HW197722   0.296   5.842   8.427  0.4349  0.1538 -0.3490
31728SOL    HW297723   0.441   5.872   8.453  0.6386 -1.1348  0.0695
31729SOL     OW97724   3.858   8.165   5.313  0.2465  0.5653  0.2511
31729SOL    HW197725   3.907   8.106   5.257 -0.7237 -0.1241  0.1266
31729SOL    HW297726   3.890   8.145   5.402  0.3360  0.2645  0.1521
31730SOL     OW97727   2.395   3.257   6.901  0.1038 -0.4071  0.0642
31730SOL    HW197728   2.320   3.300   6.942  0.4723 -1.4098  1.8815
31730SOL    HW297729   2.428   3.198   6.969  2.2578 -0.3152 -0.8520
31731SOL     OW97730   0.357   8.634   9.665  0.1936 -0.0155 -0.0948
31731SOL    HW197731   0.375   8.684   9.585 -1.0578  0.9122  0.1735
31731SOL    HW297732   0.411   8.676   9.732 -1.7860  1.8608  0.4077
31732SOL     OW97733   1.626   3.610   9.878 -0.2709 -0.1998  0.4583
31732SOL    HW197734   1.676   3.553   9.818 -0.9371  0.8662 -1.1335
31732SOL    HW297735   1.681   3.688   9.888 -1.0016  0.4119 -0.2503
31733SOL     OW97736   4.062   6.340   7.920  0.2464  0.5227  0.1328
31733SOL    HW197737   4.107   6.267   7.961  0.2128 -0.0795 -0.8824
31733SOL    HW297738   4.026   6.304   7.839 -2.8100  0.7431  1.2987
31734SOL     OW97739   9.453   9.980   5.410  0.6329 -0.5600  0.7281
31734SOL    HW197740   9.540   9.942   5.415  1.2971  0.5740 -1.3883
31734SOL    HW297741   9.410   9.932   5.339  1.0769  1.7418 -1.1686
31735SOL     OW97742   3.573   4.107   6.618  0.2863 -0.1461  0.6731
31735SOL    HW197743   3.620   4.054   6.682  1.1403  0.4060  0.5121
31735SOL    HW297744   3.552   4.046   6.547 -2.9914 -1.3976  2.6109
31736SOL     OW97745   4.700   0.212   4.676 -0.2625 -0.2006  0.1184
31736SOL    HW197746   4.670   0.131   4.634 -0.7782  1.6311 -3.1237
31736SOL    HW297747   4.633   0.232   4.741 -1.6710 -0.7385 -1.1554
31737SOL     OW97748   9.032   5.624   8.921 -0.0770  0.5818 -0.1250
31737SOL    HW197749   9.118   5.647   8.884  0.6740 -0.8536  0.6496
31737SOL    HW297750   9.045   5.631   9.016  0.1297 -2.6093  0.1473
31738SOL     OW97751   1.579   4.646   0.837  0.0243  1.0118  0.5251
31738SOL    HW197752   1.587   4.741   0.839  1.0644  0.9285  0.5437
31738SOL    HW297753   1.577   4.624   0.743  1.9381  0.8994  0.4763
31739SOL     OW97754   4.625   4.792   4.711  0.7375 -0.0506  0.1192
31739SOL    HW197755   4.536   4.819   4.736  0.4850 -1.5215  0.9029
31739SOL    HW297756   4.682   4.846   4.766  0.2711 -0.5237  1.0813
31740SOL     OW97757   5.108   4.061   2.743  0.3766  0.1387 -0.2914
31740SOL    HW197758   5.060   4.132   2.786  0.8453 -0.9665  2.0858
31740SOL    HW297759   5.200   4.078   2.764  0.7869  0.5750 -2.3523
31741SOL     OW97760   3.715   5.989   4.551  0.3979  0.0329  0.4154
31741SOL    HW197761   3.791   5.979   4.608 -0.7659  1.6356  2.3329
31741SOL    HW297762   3.641   6.002   4.611 -0.8776  1.8112 -1.4419
31742SOL     OW97763   3.833   8.270   8.422  0.3308 -0.0469 -0.0611
31742SOL    HW197764   3.783   8.254   8.502  0.8120 -1.1070  0.0434
31742SOL    HW297765   3.794   8.211   8.357  2.4413 -2.1116  0.4521
31743SOL     OW97766   5.219   0.461   5.055  0.4232  0.2818  0.1977
31743SOL    HW197767   5.246   0.543   5.013 -0.1146  0.5341  0.3317
31743SOL    HW297768   5.123   0.464   5.052  0.4038 -1.5417 -2.1117
31744SOL     OW97769   9.316   6.887   3.547 -0.2187 -0.3548  0.0932
31744SOL    HW197770   9.387   6.865   3.486 -0.4568 -1.4913  0.2253
31744SOL    HW297771   9.263   6.808   3.551 -0.2652 -0.2487  1.7136
31745SOL     OW97772   6.756   5.070   4.696  0.4966  0.2596  0.0225
31745SOL    HW197773   6.765   5.156   4.738 -1.1484  1.7630 -2.5306
31745SOL    HW297774   6.835   5.060   4.644 -0.0448  0.9829 -0.9504
31746SOL     OW97775   1.589   4.100   4.711 -0.1527 -0.2127  0.2163
31746SOL    HW197776   1.511   4.085   4.658  0.4792 -0.0273 -0.7776
31746SOL    HW297777   1.616   4.190   4.689  0.1293 -0.1435  0.8259
31747SOL     OW97778  10.133   9.886   5.428  0.1832  0.0511  0.5411
31747SOL    HW197779  10.131   9.964   5.374 -0.6367 -0.4395 -0.1496
31747SOL    HW297780  10.098   9.914   5.513 -1.6749  0.0589 -0.2072
31748SOL     OW97781   3.584   9.074   0.062  0.2470 -0.1941  0.0162
31748SOL    HW197782   3.561   9.163   0.088  1.9310 -0.8211  3.9408
31748SOL    HW297783   3.680   9.072   0.067  0.1497 -2.7291  1.9127
31749SOL     OW97784   0.674   0.252   4.914  0.3597  0.3947 -0.0648
31749SOL    HW197785   0.752   0.281   4.867  0.9049  0.1267  0.6715
31749SOL    HW297786   0.602   0.269   4.853  1.0456  0.1490 -0.9574
31750SOL     OW97787   6.596   3.987   6.933  0.1977 -0.0234  0.3779
31750SOL    HW197788   6.505   4.007   6.954  0.2475  1.3631 -0.6532
31750SOL    HW297789   6.625   3.929   7.003 -1.1745  0.3553  1.2684
31751SOL     OW97790   9.942   2.127   9.697  0.2582  0.0578  0.1667
31751SOL    HW197791   9.849   2.103   9.707 -0.3020  1.7569 -0.7605
31751SOL    HW297792   9.943   2.222   9.707  1.9192  0.0331  0.2508
31752SOL     OW97793   2.814   6.124   0.417  0.4102 -0.3774  0.8094
31752SOL    HW197794   2.728   6.086   0.438 -0.1264  1.5052  2.1608
31752SOL    HW297795   2.820   6.119   0.322 -0.5972 -1.7737  0.7936
31753SOL     OW97796  10.181   9.405   8.967  0.2115  0.4012  0.0006
31753SOL    HW197797  10.263   9.357   8.955  0.9461  1.6006  0.0840
31753SOL    HW297798  10.207   9.484   9.014 -1.0036  0.7878  0.0304
31754SOL     OW97799   3.871   1.978   3.378 -0.0442  0.1742 -0.3299
31754SOL    HW197800   3.876   2.060   3.330 -2.5483  0.2066 -0.5969
31754SOL    HW297801   3.815   1.997   3.453 -0.2610 -1.1543 -0.1372
31755SOL     OW97802   4.142   1.554   0.314 -0.0905 -0.4464  0.4610
31755SOL    HW197803   4.228   1.587   0.340 -0.5246  0.6353  0.5296
31755SOL    HW297804   4.161   1.488   0.247  0.7014  0.9326 -0.6802
31756SOL     OW97805   2.695   5.360   9.091  0.4801  0.6454  0.6949
31756SOL    HW197806   2.686   5.392   9.001  0.0525 -0.5060  0.3167
31756SOL    HW297807   2.677   5.266   9.084 -0.7349  0.7556  2.1632
31757SOL     OW97808   2.416   0.433   1.034 -0.4227 -0.5096  0.2119
31757SOL    HW197809   2.417   0.437   0.938  1.5584 -1.8795  0.1498
31757SOL    HW297810   2.360   0.506   1.060 -0.7292  0.0803 -1.9842
31758SOL     OW97811   1.215   3.129   7.986  0.5364  0.0015 -0.4061
31758SOL    HW197812   1.234   3.193   7.918  0.7537 -0.1561 -0.4940
31758SOL    HW297813   1.192   3.049   7.939 -0.7528  0.3009 -0.3077
31759SOL     OW97814   6.094   1.340   3.583 -0.6118  0.0300  0.2008
31759SOL    HW197815   6.149   1.419   3.588  0.5216 -0.5511 -2.5218
31759SOL    HW297816   6.143   1.274   3.633 -0.3954  0.3734  0.4463
31760SOL     OW97817   3.624   2.692   5.574  0.3103  0.1064  1.0338
31760SOL    HW197818   3.620   2.709   5.480  2.1315  0.7977  1.0507
31760SOL    HW297819   3.615   2.597   5.582  2.5878 -0.2554 -0.0593
31761SOL     OW97820   8.194   0.275   2.701  0.5945  0.1051  0.1942
31761SOL    HW197821   8.114   0.305   2.745 -0.7131 -0.1071 -1.9412
31761SOL    HW297822   8.230   0.209   2.759 -0.9327  0.0256  1.0879
31762SOL     OW97823   3.698   4.631   3.673 -0.3611 -0.1975  0.0824
31762SOL    HW197824   3.731   4.641   3.763  0.3258 -4.1618  0.3741
31762SOL    HW297825   3.617   4.582   3.684 -0.8119  0.2193 -1.3990
31763SOL     OW97826   9.544   1.831   9.661 -0.0856 -0.3821  0.1153
31763SOL    HW197827   9.480   1.766   9.634 -2.4913  1.2370  1.7937
31763SOL    HW297828   9.501   1.915   9.647  2.6477  0.8812 -1.1944
31764SOL     OW97829   0.439   8.644   3.992  0.1825 -0.1825 -0.1174
31764SOL    HW197830   0.480   8.589   3.925 -0.5062  1.6669 -2.1210
31764SOL    HW297831   0.504   8.711   4.011  0.6937 -1.1426  1.7192
31765SOL     OW97832   8.455   7.118   9.586 -0.0653 -0.5551  0.1059
31765SOL    HW197833   8.475   7.138   9.677  0.0615  1.1803 -0.2929
31765SOL    HW297834   8.519   7.050   9.562  0.6948 -0.1356  0.9400
31766SOL     OW97835   7.593   0.720   3.331  0.0557  0.5041  0.4887
31766SOL    HW197836   7.674   0.681   3.299 -0.1659  1.0666 -0.7784
31766SOL    HW297837   7.527   0.651   3.322  0.3646  0.0682  1.4596
31767SOL     OW97838   0.727   1.084   2.532  0.2526  0.0934  0.4218
31767SOL    HW197839   0.652   1.099   2.590  0.5059 -0.2181  0.8345
31767SOL    HW297840   0.733   1.164   2.480 -1.1316 -0.3621 -0.4826
31768SOL     OW97841   4.532   3.789   1.868  0.3010  0.3056 -0.0634
31768SOL    HW197842   4.624   3.783   1.896  0.5584  0.1705 -0.9083
31768SOL    HW297843   4.481   3.767   1.946  1.0333 -2.1481 -0.2302
31769SOL     OW97844   5.368   3.780   1.817 -0.6250  0.3282  0.0194
31769SOL    HW197845   5.348   3.872   1.798 -1.9961 -0.1232 -0.8322
31769SOL    HW297846   5.313   3.759   1.892  0.5270  0.5147  0.9150
31770SOL     OW97847   5.093   0.890   6.064 -0.0727 -0.3094  0.0128
31770SOL    HW197848   5.177   0.865   6.102  0.0141  1.3546  0.9635
31770SOL    HW297849   5.028   0.842   6.115  0.1724  0.2337  0.8428
31771SOL     OW97850   0.031   9.774   7.555 -0.3520  0.0246  0.3627
31771SOL    HW197851   0.124   9.786   7.536 -0.2212 -1.4551 -0.0124
31771SOL    HW297852   0.003   9.858   7.591  1.7049 -0.2712  2.7949
31772SOL     OW97853   9.530   4.536   1.837 -0.0209  0.1293  0.0853
31772SOL    HW197854   9.449   4.545   1.887 -0.7043  0.8985 -1.1140
31772SOL    HW297855   9.547   4.442   1.835 -0.3266  0.0430  1.2058
31773SOL     OW97856   1.010   5.436   0.176 -0.3801  0.4060 -0.4891
31773SOL    HW197857   0.932   5.447   0.229 -0.2966  1.0697 -0.5047
31773SOL    HW297858   0.988   5.364   0.116 -0.5144 -0.2624  0.3460
31774SOL     OW97859   1.684   7.674   1.946  0.0089 -0.0582 -0.3334
31774SOL    HW197860   1.594   7.675   1.914  0.7936 -0.7137 -2.6303
31774SOL    HW297861   1.687   7.748   2.008 -1.9300  0.3539 -0.6730
31775SOL     OW97862   1.332   6.954   0.835  0.3439  0.6234 -0.1335
31775SOL    HW197863   1.347   6.860   0.832  0.1381  0.5322  1.4651
31775SOL    HW297864   1.405   6.991   0.786 -0.3063 -0.4279 -1.9357
31776SOL     OW97865   7.517   1.145   6.423  0.5465  0.2509 -0.1005
31776SOL    HW197866   7.545   1.057   6.397 -1.1253 -0.4632  0.4558
31776SOL    HW297867   7.503   1.139   6.517 -2.6453  0.2292 -0.5291
31777SOL     OW97868   5.674   8.950   9.368  0.4817 -0.1954 -0.6198
31777SOL    HW197869   5.742   8.956   9.301  0.4286  0.5420 -0.6124
31777SOL    HW297870   5.709   8.999   9.442  0.3512 -0.6323 -0.2663
31778SOL     OW97871   7.847   1.926   9.431 -0.5520  0.1875  0.1584
31778SOL    HW197872   7.921   1.867   9.446  0.3066  1.0388 -0.6790
31778SOL    HW297873   7.773   1.883   9.475  0.3872 -0.7669  0.8253
31779SOL     OW97874   7.446   4.387   0.110 -0.0854  0.3216 -0.3987
31779SOL    HW197875   7.497   4.338   0.045 -0.0749 -2.0686  1.3409
31779SOL    HW297876   7.355   4.367   0.089 -0.1146  0.2962 -0.2516
31780SOL     OW97877   6.647   9.166   1.391 -0.2801  0.3655 -1.0053
31780SOL    HW197878   6.686   9.249   1.362 -1.9728  1.8356  0.7794
31780SOL    HW297879   6.653   9.169   1.487 -0.8130 -1.3680 -0.9048
31781SOL     OW97880   1.137   4.939   9.294  0.5600 -0.0042 -0.8496
31781SOL    HW197881   1.055   4.958   9.340  0.0984 -1.0974 -1.2184
31781SOL    HW297882   1.202   4.931   9.363 -0.1740 -1.8817 -0.3474
31782SOL     OW97883   6.887   7.684   7.731  0.0512  0.0980  0.0279
31782SOL    HW197884   6.883   7.770   7.774 -2.2082  0.7669 -1.4282
31782SOL    HW297885   6.813   7.635   7.767 -0.6026 -0.0751 -1.5021
31783SOL     OW97886   3.457   8.303   8.359  0.5019  0.0585 -0.7383
31783SOL    HW197887   3.361   8.301   8.352  0.2833 -0.4239  1.7745
31783SOL    HW297888   3.477   8.395   8.378  0.2234 -0.3349  1.7254
31784SOL     OW97889   1.229   3.497   5.393 -0.5419  0.0960  0.2549
31784SOL    HW197890   1.228   3.556   5.317  0.4444 -0.4869 -0.2179
31784SOL    HW297891   1.312   3.516   5.437  0.1880 -1.5121 -0.3732
31785SOL     OW97892   4.908   5.610   4.403 -0.3162 -0.5627 -0.5659
31785SOL    HW197893   4.868   5.653   4.479  0.0479 -1.0355 -0.0970
31785SOL    HW297894   5.000   5.600   4.427 -0.2418 -0.8987 -0.9869
31786SOL     OW97895   2.252   0.830   5.784  0.3023 -0.0629 -0.8687
31786SOL    HW197896   2.202   0.908   5.807  0.8720  0.2963 -0.8420
31786SOL    HW297897   2.228   0.813   5.692  0.2770  0.2160 -0.9142
31787SOL     OW97898   5.003   2.382   9.887 -0.0261  0.2593  0.6559
31787SOL    HW197899   5.087   2.428   9.894  0.7504 -0.9850 -0.3802
31787SOL    HW297900   4.971   2.402   9.799  0.4981 -1.4931  0.0621
31788SOL     OW97901   6.352   3.636   9.657 -0.2742  0.0256  0.2416
31788SOL    HW197902   6.264   3.666   9.635 -0.0005  0.8576  0.2656
31788SOL    HW297903   6.338   3.566   9.721 -0.8802  0.8311  0.9999
31789SOL     OW97904   0.394   7.610   0.438 -0.4795 -0.1748  0.5432
31789SOL    HW197905   0.300   7.593   0.443 -0.3097 -0.5130  3.9577
31789SOL    HW297906   0.433   7.548   0.499  1.8176  0.9269  0.2509
31790SOL     OW97907   3.416   9.559   1.531  0.0473  0.2112 -0.0088
31790SOL    HW197908   3.410   9.648   1.496 -1.0643  0.5113  0.9085
31790SOL    HW297909   3.369   9.564   1.615  2.2357 -0.6042  1.2817
31791SOL     OW97910   8.743   1.784   7.276  0.1487 -0.1313  1.2740
31791SOL    HW197911   8.692   1.703   7.280  1.1949 -0.7684  2.5010
31791SOL    HW297912   8.834   1.754   7.284  0.7302  0.9688 -0.8913
31792SOL     OW97913   0.089   2.807   0.939  0.7725  0.4922  0.2793
31792SOL    HW197914   0.033   2.869   0.986  0.2360  1.0627 -1.0941
31792SOL    HW297915   0.029   2.754   0.888  1.3572 -0.1149  0.2134
31793SOL     OW97916   2.982   7.050   5.224  0.2159 -0.6541 -0.2006
31793SOL    HW197917   2.931   7.129   5.241  2.0436  0.9164 -1.6629
31793SOL    HW297918   2.937   7.008   5.151  1.0006  0.7715 -1.5431
31794SOL     OW97919   0.487   0.852   7.575  0.4674  0.3017 -0.3563
31794SOL    HW197920   0.496   0.929   7.520 -1.5643  0.4033 -0.5955
31794SOL    HW297921   0.424   0.797   7.529  0.2847 -0.5295  0.8611
31795SOL     OW97922   0.321   6.696   8.262 -0.5868 -0.7999 -0.1638
31795SOL    HW197923   0.312   6.605   8.288 -0.3314 -1.0342 -0.8676
31795SOL    HW297924   0.239   6.716   8.216  0.0183 -1.1773 -1.4457
31796SOL     OW97925   4.156   3.142   3.503  0.4484  0.1661 -0.2367
31796SOL    HW197926   4.105   3.221   3.482 -0.8141 -0.4441  0.4769
31796SOL    HW297927   4.129   3.119   3.592  0.8357 -1.0468 -0.4296
31797SOL     OW97928   1.002   5.309   2.117  0.4898 -0.1709  0.4455
31797SOL    HW197929   1.061   5.266   2.055 -0.3894  0.4482 -0.8325
31797SOL    HW297930   0.945   5.239   2.149 -0.4662 -0.0967 -1.0835
31798SOL     OW97931   3.346   7.820   9.076 -0.4310 -0.5276  1.0125
31798SOL    HW197932   3.323   7.810   8.984  0.0046 -0.5504  0.9104
31798SOL    HW297933   3.301   7.900   9.103  3.7287  2.5001 -0.6006
31799SOL     OW97934   4.626   3.917   4.284  0.1661  0.2427  0.2453
31799SOL    HW197935   4.688   3.924   4.357  0.7663  0.9656 -0.3283
31799SOL    HW297936   4.653   3.985   4.223 -1.7509  1.2005  0.3973
31800SOL     OW97937   3.619   7.173   6.702 -0.0010  0.3537 -0.1279
31800SOL    HW197938   3.675   7.146   6.629  0.2239  0.5468 -0.0268
31800SOL    HW297939   3.567   7.095   6.722  0.6430 -0.0113  0.1601
31801SOL     OW97940   2.441   2.799   8.116  0.2680  0.5624  0.0099
31801SOL    HW197941   2.442   2.876   8.059 -2.1381  0.3895 -0.3154
31801SOL    HW297942   2.372   2.743   8.081  0.3888 -0.6651  1.6480
31802SOL     OW97943   2.161   8.318   6.225 -0.1629  0.1034  0.6455
31802SOL    HW197944   2.185   8.404   6.192 -2.0899  0.9730  1.3920
31802SOL    HW297945   2.149   8.264   6.147  0.7760  0.5786  0.1667
31803SOL     OW97946   6.787   4.985   7.020  0.2552 -0.0905  0.2414
31803SOL    HW197947   6.840   5.049   7.067 -0.2801  0.1658  0.4914
31803SOL    HW297948   6.845   4.954   6.950  1.6116 -1.6558  2.0046
31804SOL     OW97949   1.543   1.272   5.777  0.0501 -0.5003  0.1968
31804SOL    HW197950   1.562   1.288   5.870  2.5761  0.5994 -0.4674
31804SOL    HW297951   1.538   1.176   5.770 -0.4351 -0.5881  1.4989
31805SOL     OW97952   3.897   2.881   4.391  0.1925  0.3706 -0.0575
31805SOL    HW197953   3.878   2.900   4.483 -1.4853 -1.3141 -0.0370
31805SOL    HW297954   3.866   2.959   4.344 -1.4760  0.0891  0.5541
31806SOL     OW97955   4.515   1.320   5.187 -0.0542  0.4060  0.5484
31806SOL    HW197956   4.483   1.356   5.269 -0.0789  1.2760  0.1672
31806SOL    HW297957   4.610   1.328   5.192 -0.0823  0.9435  0.2815
31807SOL     OW97958   8.634   1.729   1.200  0.1446  0.4087  0.1336
31807SOL    HW197959   8.729   1.729   1.212  0.0934 -1.0036  0.6541
31807SOL    HW297960   8.618   1.660   1.136 -0.4843  1.0471 -0.3995
31808SOL     OW97961   5.150   0.837   0.348  0.2498  0.2855 -0.0462
31808SOL    HW197962   5.128   0.822   0.440  1.5749 -0.2477  0.1905
31808SOL    HW297963   5.101   0.916   0.324 -3.5988 -1.9549 -0.1371
31809SOL     OW97964   5.421   4.765   8.447 -0.0438 -0.0128  0.1092
31809SOL    HW197965   5.454   4.681   8.477 -1.5778 -0.7389 -0.1980
31809SOL    HW297966   5.492   4.803   8.396  0.6397 -1.1344  0.2312
31810SOL     OW97967   8.709   8.701   0.650  0.0748  0.2421 -0.2611
31810SOL    HW197968   8.803   8.683   0.646 -0.0096 -0.2171 -0.2062
31810SOL    HW297969   8.693   8.724   0.741  0.1604  0.4803 -0.3050
31811SOL     OW97970   8.711   6.153   2.128 -0.2980  0.0275 -0.0486
31811SOL    HW197971   8.657   6.075   2.140  1.2596 -1.0591  0.0990
31811SOL    HW297972   8.689   6.185   2.041 -2.3165  0.5128  0.6293
31812SOL     OW97973   2.629   8.786   6.438 -0.3701  0.3662  0.4287
31812SOL    HW197974   2.641   8.786   6.533 -4.2604 -0.7616  1.0405
31812SOL    HW297975   2.568   8.858   6.422  0.5352  0.7658 -1.2508
31813SOL     OW97976   6.053   3.003   0.923 -0.1391  0.1526  0.1555
31813SOL    HW197977   6.132   2.951   0.941 -0.0340 -0.1789 -1.2338
31813SOL    HW297978   6.034   3.047   1.006  1.7593  0.5645  0.3907
31814SOL     OW97979   6.087   4.048   9.895 -0.0590 -0.1434  0.4498
31814SOL    HW197980   6.134   3.969   9.922 -0.4154 -0.6389 -0.3529
31814SOL    HW297981   6.156   4.110   9.871  0.2086 -0.4585  0.4027
31815SOL     OW97982   4.869   7.141   4.806 -0.0519 -0.1784 -0.3249
31815SOL    HW197983   4.774   7.152   4.799 -0.2517 -1.3094  0.5244
31815SOL    HW297984   4.880   7.051   4.837  1.2060  0.8042  2.1612
31816SOL     OW97985   4.887   5.312   2.082  0.0439 -0.0859  0.8917
31816SOL    HW197986   4.850   5.399   2.067  0.5512 -0.1803 -1.1462
31816SOL    HW297987   4.872   5.294   2.174 -2.8666  0.8583  0.6383
31817SOL     OW97988   3.380   1.904   7.353  0.0136  0.5250  0.0610
31817SOL    HW197989   3.442   1.834   7.332  1.2615  2.3031 -2.4045
31817SOL    HW297990   3.424   1.957   7.419  0.6202  1.1408 -0.8487
31818SOL     OW97991   9.355  10.099   6.601 -0.1359  0.2034  0.1527
31818SOL    HW197992   9.335  10.087   6.508  0.5261  0.7041 -0.0539
31818SOL    HW297993   9.295  10.039   6.646 -0.3123 -0.1946 -0.6055
31819SOL     OW97994   1.404   8.018   1.679 -0.0288 -0.0500 -0.2643
31819SOL    HW197995   1.461   8.080   1.724  1.8890 -0.5960 -1.8994
31819SOL    HW297996   1.316   8.055   1.690  0.6982  1.1459  1.7002
31820SOL     OW97997   9.648   7.606   7.239 -0.4887  0.0189  0.1147
31820SOL    HW197998   9.606   7.625   7.323  0.5414  1.6011  0.2994
31820SOL    HW297999   9.712   7.538   7.259 -0.0686  0.5733  0.6600
31821SOL     OW98000   6.938   8.862   9.431 -0.3471  0.5237 -0.8711
31821SOL    HW198001   6.901   8.924   9.368 -0.2347 -1.3846 -2.8770
31821SOL    HW298002   6.938   8.778   9.385  0.6005 -0.7471  1.3622
31822SOL     OW98003   4.728   3.988   0.720  0.1388 -0.2223 -0.5945
31822SOL    HW198004   4.725   3.937   0.801  2.5030  0.8801  0.2191
31822SOL    HW298005   4.743   4.078   0.749 -0.8809  0.4872 -2.1802
31823SOL     OW98006   6.044   5.379   2.337 -0.1115  0.1339 -0.0689
31823SOL    HW198007   6.092   5.410   2.260 -0.5080 -2.0779 -1.2804
31823SOL    HW298008   6.106   5.386   2.409  1.5583 -1.2565 -1.3236
31824SOL     OW98009   6.004   5.466   8.695  0.2270 -0.7152  0.0404
31824SOL    HW198010   5.998   5.481   8.600  1.7905 -3.3129 -0.5091
31824SOL    HW298011   6.037   5.377   8.703  2.3947  0.2679  3.0150
31825SOL     OW98012   2.528   7.962   6.578 -0.2141 -0.0987  0.0044
31825SOL    HW198013   2.475   8.002   6.509  1.5176  0.4110 -1.0798
31825SOL    HW298014   2.565   8.036   6.626  0.1410 -0.4385  0.2587
31826SOL     OW98015   0.628   3.252   4.135  0.1645  0.1948 -0.4628
31826SOL    HW198016   0.560   3.211   4.082 -1.6197  0.5393  1.5138
31826SOL    HW298017   0.685   3.296   4.071 -1.3341 -0.2587 -2.1459
31827SOL     OW98018   2.588   5.498   9.461  0.2878  0.1213 -0.5758
31827SOL    HW198019   2.651   5.532   9.525 -1.0061  1.6336 -0.0738
31827SOL    HW298020   2.503   5.522   9.497 -0.5994 -2.3045 -1.0159
31828SOL     OW98021   9.659   4.768   0.436  0.5951 -0.0828  0.0498
31828SOL    HW198022   9.691   4.845   0.483 -1.1876  1.3540 -1.0780
31828SOL    HW298023   9.575   4.794   0.399 -0.0495 -2.5654 -0.3655
31829SOL     OW98024   6.836   1.291   4.967  0.0610 -0.5207  0.3177
31829SOL    HW198025   6.897   1.355   4.930  1.6162 -1.9507  0.4014
31829SOL    HW298026   6.854   1.210   4.920 -0.8138 -1.3072  1.3228
31830SOL     OW98027   2.317   4.730   2.582  0.0534  0.1383 -0.3244
31830SOL    HW198028   2.326   4.825   2.578  1.3360  0.0006 -0.7958
31830SOL    HW298029   2.295   4.704   2.493  1.4233 -0.1713 -0.5860
31831SOL     OW98030   2.095  10.165   6.864  0.1469  0.0988 -0.2265
31831SOL    HW198031   2.009  10.125   6.877 -0.3275  0.9679 -0.7372
31831SOL    HW298032   2.129  10.179   6.953  1.1936 -3.3107 -0.0085
31832SOL     OW98033   6.916   4.245   7.015  0.4282  0.3381 -0.3041
31832SOL    HW198034   6.909   4.326   7.066 -0.6175  2.2463 -3.3200
31832SOL    HW298035   6.989   4.260   6.956  0.7020 -1.2372 -0.3734
31833SOL     OW98036   0.298   8.357   1.225  0.6003  0.0589 -0.5076
31833SOL    HW198037   0.205   8.340   1.239  0.8381 -1.5668 -0.8284
31833SOL    HW298038   0.301   8.433   1.167 -0.5138  0.5751  0.1062
31834SOL     OW98039   1.984   2.797   3.780  0.3904  0.4062  0.0065
31834SOL    HW198040   1.991   2.767   3.870  1.5597 -1.0217 -0.5402
31834SOL    HW298041   1.891   2.789   3.758 -0.0354  1.5325  1.3267
31835SOL     OW98042   0.166   8.639   3.078  0.0828  0.5705 -0.3335
31835SOL    HW198043   0.211   8.719   3.048  2.0542 -0.3612  0.0513
31835SOL    HW298044   0.227   8.568   3.057 -1.5231 -0.8233 -0.3874
31836SOL     OW98045   0.583   5.017   8.361 -0.0351 -0.4995  0.2642
31836SOL    HW198046   0.522   5.082   8.396 -0.5270 -0.7008 -0.2192
31836SOL    HW298047   0.620   4.975   8.439  0.3899  0.4603  0.5789
31837SOL     OW98048   8.816   9.171   8.340 -0.5500 -0.0008  0.2754
31837SOL    HW198049   8.860   9.095   8.378 -1.4699 -0.0992  1.1757
31837SOL    HW298050   8.828   9.161   8.246 -0.2494 -1.0067  0.4109
31838SOL     OW98051   7.772   8.328   4.111  0.7098  0.0574 -0.4476
31838SOL    HW198052   7.741   8.332   4.020 -0.6838  2.7901  0.0923
31838SOL    HW298053   7.824   8.408   4.122  1.0504 -0.3637  1.1133
31839SOL     OW98054   5.472   2.567   2.835 -0.1679  0.4649  0.4631
31839SOL    HW198055   5.380   2.550   2.811  0.0552 -1.0621  0.6008
31839SOL    HW298056   5.486   2.514   2.913  1.1278 -0.1522 -0.1623
31840SOL     OW98057   6.481   2.767   5.992 -0.3428 -0.1177  0.4590
31840SOL    HW198058   6.503   2.856   6.019 -0.3246 -0.6728  2.3976
31840SOL    HW298059   6.486   2.768   5.897  1.7814  1.4078  0.5449
31841SOL     OW98060   5.000   5.151   8.375 -0.5647 -0.0723  0.5934
31841SOL    HW198061   5.047   5.151   8.291  0.0197 -0.5293  0.9112
31841SOL    HW298062   4.986   5.243   8.394 -1.0790  0.0223 -0.2177
31842SOL     OW98063  10.165   0.554   7.880 -0.3460 -0.1948  0.4410
31842SOL    HW198064  10.256   0.583   7.872 -0.6813  0.5559 -0.8385
31842SOL    HW298065  10.122   0.589   7.802 -1.5484 -1.2607  0.6169
31843SOL     OW98066   6.416   2.454   0.472  0.3790 -0.9485  0.4003
31843SOL    HW198067   6.327   2.420   0.466 -0.1041  0.2057  0.8139
31843SOL    HW298068   6.419   2.499   0.557  0.8277  0.4847 -0.3468
31844SOL     OW98069   5.790   1.799   6.523  0.7790 -0.5125 -0.2563
31844SOL    HW198070   5.817   1.711   6.495  0.3004 -0.5355 -0.6444
31844SOL    HW298071   5.790   1.850   6.442  0.3880 -0.3230 -0.1355
31845SOL     OW98072   2.179   5.744   2.915 -0.2401  0.0226 -0.1247
31845SOL    HW198073   2.253   5.691   2.946  0.7072  1.5713  0.3108
31845SOL    HW298074   2.132   5.769   2.995 -0.1301  0.6376 -0.2480
31846SOL     OW98075   5.306   4.834   0.699  0.2602 -0.0847 -0.3971
31846SOL    HW198076   5.325   4.835   0.793  0.4356  0.3899 -0.4371
31846SOL    HW298077   5.350   4.756   0.666  0.9547  0.2342 -0.2390
31847SOL     OW98078   9.231   3.544   0.733  0.1688  0.3906 -0.3898
31847SOL    HW198079   9.172   3.485   0.781  1.0384  0.0202  0.2226
31847SOL    HW298080   9.267   3.490   0.662  1.8348 -0.1429  0.8462
31848SOL     OW98081   8.687   7.227  10.036 -0.0022 -0.0032 -0.0068
31848SOL    HW198082   8.632   7.150  10.049  0.4711 -0.5869 -1.4102
31848SOL    HW298083   8.694   7.267  10.123  0.1551 -1.8034  0.8234
31849SOL     OW98084   9.164   7.395   1.922 -0.1877 -0.3856  0.4759
31849SOL    HW198085   9.071   7.407   1.940 -0.2818 -0.4465  0.0524
31849SOL    HW298086   9.175   7.300   1.915 -0.5288 -0.2799 -1.6947
31850SOL     OW98087   9.736   5.474   1.017 -0.5445 -0.0753  0.5033
31850SOL    HW198088   9.774   5.530   1.084 -0.8929 -0.8549  1.3608
31850SOL    HW298089   9.654   5.518   0.994  0.4562  1.1712 -0.7611
31851SOL     OW98090   9.167   9.167   7.946 -0.1387  0.0974  0.1674
31851SOL    HW198091   9.205   9.253   7.930  2.0448 -0.3411  2.7122
31851SOL    HW298092   9.240   9.106   7.937 -1.6115 -1.5261 -1.3804
31852SOL     OW98093   8.276   2.245   0.747  0.0106  0.5841  0.3276
31852SOL    HW198094   8.276   2.338   0.770  2.0634  0.7830 -0.4157
31852SOL    HW298095   8.188   2.229   0.714 -0.8076  1.9213  1.7939
31853SOL     OW98096   1.104   8.359   0.426 -0.2708 -0.5583  0.0209
31853SOL    HW198097   1.088   8.394   0.338  0.4156 -1.6665 -0.5752
31853SOL    HW298098   1.183   8.404   0.456 -0.4348 -0.2684  0.0162
31854SOL     OW98099   4.112   3.558   2.175  0.4473 -0.0763 -0.1837
31854SOL    HW198100   4.171   3.628   2.148  0.2991 -0.6841 -2.1959
31854SOL    HW298101   4.037   3.566   2.116 -0.3555 -0.8283  0.7291
31855SOL     OW98102   6.220   8.703   6.845  0.7804  0.1608  0.0380
31855SOL    HW198103   6.191   8.740   6.761 -0.7051 -0.4138  0.2883
31855SOL    HW298104   6.301   8.657   6.824  0.6141  0.3315 -1.0189
31856SOL     OW98105   2.904   5.161   5.455 -0.4762 -1.0683  0.3344
31856SOL    HW198106   2.828   5.193   5.407  0.7642 -0.7064 -1.4230
31856SOL    HW298107   2.928   5.233   5.513 -0.1222 -0.3552 -0.7055
31857SOL     OW98108   5.782   5.634   4.850  0.2265  0.0162  0.3225
31857SOL    HW198109   5.736   5.566   4.898  0.9558 -2.1093 -1.8753
31857SOL    HW298110   5.874   5.608   4.853  0.3722  0.2299 -1.5379
31858SOL     OW98111   4.870   7.199   9.347  0.0783 -0.5258 -0.6192
31858SOL    HW198112   4.874   7.248   9.429  1.9285 -0.1172 -0.9295
31858SOL    HW298113   4.819   7.121   9.368  0.0272 -0.1257  0.7668
31859SOL     OW98114   2.295   5.258   2.696 -0.2174  0.0356 -0.0328
31859SOL    HW198115   2.228   5.326   2.682 -1.3520 -1.2510 -1.0515
31859SOL    HW298116   2.327   5.239   2.607 -0.6302 -1.4715  0.1398
31860SOL     OW98117  10.193   8.888   8.315 -0.0227  0.1379  0.7649
31860SOL    HW198118  10.120   8.834   8.344 -0.0822 -0.2510 -0.1040
31860SOL    HW298119  10.254   8.827   8.273  2.0033  0.0387  3.6531
31861SOL     OW98120   7.557   8.374   5.909 -0.4122 -0.5205  0.5181
31861SOL    HW198121   7.526   8.358   5.820 -0.2294 -0.0661  0.3703
31861SOL    HW298122   7.626   8.309   5.922 -0.4004 -0.5504  0.3117
31862SOL     OW98123   3.134   1.115   4.731  0.6323  0.3023 -0.3056
31862SOL    HW198124   3.127   1.204   4.767  1.6247  0.6615 -0.9912
31862SOL    HW298125   3.226   1.093   4.739  0.1947 -1.2074  1.0776
31863SOL     OW98126   3.317   7.625   3.684  0.1285  0.3657  0.2088
31863SOL    HW198127   3.330   7.614   3.590  1.2239  0.0645  0.3985
31863SOL    HW298128   3.225   7.602   3.698  0.5967 -1.9878 -0.4110
31864SOL     OW98129   3.846   5.563   0.733  0.2225  0.6377 -0.1075
31864SOL    HW198130   3.869   5.601   0.648 -2.2917  2.0541 -0.1996
31864SOL    HW298131   3.833   5.638   0.791  0.3254 -0.2674  1.1162
31865SOL     OW98132   7.559   5.492   8.984  0.5536 -0.0205  0.1153
31865SOL    HW198133   7.537   5.511   8.893  1.9663 -1.2717 -0.5001
31865SOL    HW298134   7.654   5.485   8.984  0.7420  2.0352  2.0982
31866SOL     OW98135   0.544   0.373   8.181 -0.4017  0.2107  0.3236
31866SOL    HW198136   0.604   0.447   8.175 -0.6956  0.5450  1.2824
31866SOL    HW298137   0.600   0.295   8.180  0.0531  0.5204  1.2372
31867SOL     OW98138   0.947   0.980   2.643 -0.0569  0.1616 -0.0010
31867SOL    HW198139   0.907   1.032   2.713  0.5512 -0.0316  0.4937
31867SOL    HW298140   0.875   0.959   2.584 -0.4444  0.9508  0.1778
31868SOL     OW98141   7.014   8.424   7.363 -0.2033 -0.5096  0.4163
31868SOL    HW198142   7.004   8.384   7.450  1.5293 -1.3296  0.2700
31868SOL    HW298143   7.109   8.432   7.352 -0.3993 -0.7536 -1.5605
31869SOL     OW98144   7.255   7.017   2.505  0.6548  0.0827 -0.0730
31869SOL    HW198145   7.175   7.045   2.462  1.2611 -0.1937 -1.4063
31869SOL    HW298146   7.282   7.093   2.557 -0.2621  0.2984  0.0939
31870SOL     OW98147   2.001   4.979   7.003 -0.3096  0.6725 -0.5029
31870SOL    HW198148   2.085   4.949   6.967  0.3590  1.2633  0.5031
31870SOL    HW298149   1.993   4.932   7.086 -0.1857  1.8168  0.1679
31871SOL     OW98150   5.525   8.214   8.262  0.9916 -0.3026 -0.4217
31871SOL    HW198151   5.485   8.213   8.348  3.1086  0.6291  0.6018
31871SOL    HW298152   5.603   8.159   8.271  2.3036  1.3838 -1.1903
31872SOL     OW98153   1.255   2.458   7.193  0.8604  0.1964  0.1334
31872SOL    HW198154   1.201   2.468   7.114 -0.3685  1.4107  1.1125
31872SOL    HW298155   1.240   2.368   7.221  1.2714 -0.2360 -0.9759
31873SOL     OW98156   0.561   4.431   2.637 -0.0458 -0.1016  0.1894
31873SOL    HW198157   0.487   4.381   2.669 -1.2381  0.2077 -1.9383
31873SOL    HW298158   0.555   4.423   2.541  1.8934  1.0135 -0.0506
31874SOL     OW98159   1.419   8.718   7.741  0.1869  0.0367 -0.0412
31874SOL    HW198160   1.331   8.697   7.771  0.2756 -1.2876 -0.6448
31874SOL    HW298161   1.408   8.751   7.652  0.3339 -0.5875 -0.2954
31875SOL     OW98162   8.599   4.486   7.363  0.1295 -0.0187  0.6657
31875SOL    HW198163   8.625   4.526   7.446  0.6008  0.7289  0.1612
31875SOL    HW298164   8.680   4.450   7.327  0.6972  3.1274 -1.3535
31876SOL     OW98165   1.773   6.721   3.884 -0.4326 -0.0208 -0.2468
31876SOL    HW198166   1.694   6.767   3.913 -0.2728 -0.4922  0.9756
31876SOL    HW298167   1.743   6.634   3.859  0.0274 -1.0660  2.6372
31877SOL     OW98168   9.137   2.610   5.470 -0.2168 -0.8760 -0.2860
31877SOL    HW198169   9.046   2.640   5.461  0.4449  1.1111 -0.5111
31877SOL    HW298170   9.188   2.671   5.417  1.1557 -2.5787 -0.9690
31878SOL     OW98171   9.483   1.772   9.098  0.8225 -0.3610 -0.2401
31878SOL    HW198172   9.520   1.842   9.044 -1.3861 -0.2484 -1.6321
31878SOL    HW298173   9.389   1.786   9.095  0.5535 -1.2284  2.4967
31879SOL     OW98174   7.153   8.662   1.147  0.4427  0.2529  0.0646
31879SOL    HW198175   7.200   8.745   1.137  1.8902 -0.6745 -1.0644
31879SOL    HW298176   7.120   8.664   1.237  3.3615  0.6116  1.2086
31880SOL     OW98177   2.840   6.638   4.914  0.1951 -0.1791  0.2154
31880SOL    HW198178   2.826   6.667   4.824  2.5700  0.0819 -0.1034
31880SOL    HW298179   2.903   6.566   4.907  0.2168 -0.3094  1.6322
31881SOL     OW98180   1.973   6.348   8.330 -0.0034  0.7356  0.3322
31881SOL    HW198181   1.976   6.275   8.392 -1.6173  0.9243  0.6337
31881SOL    HW298182   1.958   6.307   8.245  1.0058  0.5794  0.2151
31882SOL     OW98183   1.830   8.615   6.273 -0.5102  0.5254  0.1616
31882SOL    HW198184   1.914   8.591   6.312 -0.1176  2.4429  0.5434
31882SOL    HW298185   1.770   8.618   6.347 -0.7617 -0.1242 -0.0109
31883SOL     OW98186   7.486   5.230   1.428  0.1920 -0.4838  0.4831
31883SOL    HW198187   7.444   5.144   1.431  0.4759 -0.5871  1.6345
31883SOL    HW298188   7.413   5.292   1.426 -0.0114 -0.7282  0.1224
31884SOL     OW98189   3.567   7.933   0.352  0.0805  0.0073  0.0418
31884SOL    HW198190   3.643   7.936   0.294  0.7553 -2.3679  0.7285
31884SOL    HW298191   3.496   7.900   0.297 -0.6607  2.7365 -0.7428
31885SOL     OW98192   3.304   1.713   9.350 -0.2787  0.7154 -0.3669
31885SOL    HW198193   3.228   1.668   9.313 -0.1096 -0.5292  0.7903
31885SOL    HW298194   3.315   1.791   9.294 -2.5637  1.0521 -0.3755
31886SOL     OW98195   6.205   1.055   7.522 -0.3499  0.0876  0.1011
31886SOL    HW198196   6.196   1.022   7.612  1.0016 -1.4134 -0.3196
31886SOL    HW298197   6.241   1.143   7.533 -0.6100  0.0868  1.0385
31887SOL     OW98198   9.184   6.750   7.050 -0.2129  0.2688 -0.3979
31887SOL    HW198199   9.276   6.740   7.074 -0.4286  2.6949  1.7024
31887SOL    HW298200   9.187   6.795   6.965  0.5411 -1.1575 -1.1323
31888SOL     OW98201   1.282   7.251   8.321 -0.0724 -0.0279  0.0050
31888SOL    HW198202   1.301   7.158   8.336 -0.8787 -0.4064 -1.1641
31888SOL    HW298203   1.239   7.252   8.235 -0.8090  1.3337  0.3773
31889SOL     OW98204   0.683   4.554   7.353  0.2643 -0.3892 -0.2916
31889SOL    HW198205   0.603   4.603   7.371  0.5746 -0.1747  0.5138
31889SOL    HW298206   0.744   4.619   7.319  0.2858 -0.4474 -0.3640
31890SOL     OW98207   5.002   8.237   2.748  0.7282 -0.3541  0.1993
31890SOL    HW198208   5.038   8.229   2.837 -0.1107 -1.7651  0.4378
31890SOL    HW298209   4.939   8.165   2.742 -0.1301  0.4966 -1.1145
31891SOL     OW98210   0.414   7.558   8.262  0.0995 -0.5176  0.1133
31891SOL    HW198211   0.449   7.522   8.343 -1.3548  0.4202  1.1793
31891SOL    HW298212   0.441   7.495   8.195  0.8816 -1.5756  1.3840
31892SOL     OW98213   3.893   0.324   9.920  0.0954 -0.5100  0.3979
31892SOL    HW198214   3.892   0.420   9.917 -0.8478 -0.5062  0.5661
31892SOL    HW298215   3.966   0.302   9.978  0.9018  0.0854 -0.3979
31893SOL     OW98216   4.785   1.617   8.694  0.5729 -0.3871 -0.2543
31893SOL    HW198217   4.837   1.584   8.768  2.0173 -1.0595 -1.5513
31893SOL    HW298218   4.827   1.700   8.671 -1.2804  0.9722  1.1325
31894SOL     OW98219   4.499   2.078   6.080 -0.2665 -0.3250 -0.6814
31894SOL    HW198220   4.538   1.993   6.062 -0.2470 -0.6717  0.8887
31894SOL    HW298221   4.405   2.063   6.079 -0.2428 -0.6662  0.8964
31895SOL     OW98222   3.308   4.638   7.116 -0.7261 -0.0862 -0.2708
31895SOL    HW198223   3.255   4.709   7.155  1.0136 -0.8035  3.7017
31895SOL    HW298224   3.397   4.673   7.114 -0.3882 -0.9870 -1.4402
31896SOL     OW98225   9.101   4.871   5.857  0.4813  0.0841 -0.4906
31896SOL    HW198226   9.040   4.799   5.841 -0.5512  0.7466  0.4223
31896SOL    HW298227   9.051   4.950   5.834  0.6990  0.6895  1.0707
31897SOL     OW98228   6.971   1.335   9.618 -0.3469 -0.8604  0.3459
31897SOL    HW198229   6.990   1.334   9.524  0.8154 -0.5748  0.5704
31897SOL    HW298230   7.055   1.357   9.659 -0.8918 -0.8124  1.4407
31898SOL     OW98231   4.812   2.789   0.845  1.1162  0.1011 -0.4215
31898SOL    HW198232   4.795   2.818   0.935  0.8407 -1.1401 -0.0541
31898SOL    HW298233   4.766   2.852   0.790  0.7575  0.5053  0.3337
31899SOL     OW98234   2.334   2.783   0.983  0.3975  0.2254  0.0382
31899SOL    HW198235   2.391   2.741   0.918 -0.2253  0.5749 -0.7436
31899SOL    HW298236   2.331   2.721   1.055  1.6137  0.1170  0.0081
31900SOL     OW98237   9.817   2.611   2.775 -0.0889 -0.2562  0.3812
31900SOL    HW198238   9.745   2.600   2.837  0.7256 -0.4689  1.3095
31900SOL    HW298239   9.890   2.562   2.813 -0.2228 -2.2916 -1.8752
31901SOL     OW98240   0.071   2.481   1.968  0.4689 -0.1028  0.1067
31901SOL    HW198241   0.002   2.538   1.935  0.9357  0.1396 -0.4839
31901SOL    HW298242   0.100   2.522   2.049 -1.3142 -1.1957  1.3286
31902SOL     OW98243   4.230   8.174   9.601  0.2393 -0.1669  0.5973
31902SOL    HW198244   4.324   8.170   9.617  0.6793  0.0998 -1.8009
31902SOL    HW298245   4.221   8.231   9.524 -1.9135  0.1614  1.0547
31903SOL     OW98246   7.265   1.953   4.604  0.0586 -0.5062 -0.0026
31903SOL    HW198247   7.249   1.917   4.691  0.0087 -0.3287  0.0619
31903SOL    HW298248   7.360   1.943   4.590 -0.2333 -2.4384 -0.7748
31904SOL     OW98249   8.203   2.279   4.628 -0.3890  0.1164  0.3064
31904SOL    HW198250   8.164   2.216   4.567 -1.2697  1.0939 -0.1713
31904SOL    HW298251   8.297   2.271   4.615 -0.5326 -0.4326 -0.4212
31905SOL     OW98252   3.341   7.871   6.677 -0.0730  0.1832 -0.3592
31905SOL    HW198253   3.391   7.942   6.637 -0.8664  0.4582 -0.8843
31905SOL    HW298254   3.395   7.841   6.750 -0.3103  2.2092  0.6939
31906SOL     OW98255   5.850   2.489   7.213  0.0704 -0.1891  0.2404
31906SOL    HW198256   5.858   2.486   7.118 -0.9685  1.4052  0.0905
31906SOL    HW298257   5.806   2.572   7.231 -0.7466 -0.9868  2.0459
31907SOL     OW98258   8.403   8.888   2.751  0.4762 -0.2075  0.0295
31907SOL    HW198259   8.441   8.910   2.836 -0.3973  0.6627  0.2012
31907SOL    HW298260   8.377   8.796   2.760  1.7189 -0.5475  0.2071
31908SOL     OW98261   4.593   1.025   6.018 -0.5448  0.3599  0.3159
31908SOL    HW198262   4.512   1.000   5.974  0.5551 -2.0712 -0.4483
31908SOL    HW298263   4.633   1.091   5.961 -1.1893  0.3399 -0.1548
31909SOL     OW98264   0.037   7.544   5.644 -0.3401  0.2248  0.1892
31909SOL    HW198265  -0.038   7.507   5.598 -0.3837  0.6151 -0.0595
31909SOL    HW298266   0.106   7.478   5.636 -0.7470 -0.2600  0.6692
31910SOL     OW98267  10.107   2.823   7.559 -0.2272 -0.1664 -0.3081
31910SOL    HW198268  10.098   2.893   7.624  0.3977 -2.1334  1.9962
31910SOL    HW298269  10.194   2.838   7.521  0.7908 -0.8321  1.6552
31911SOL     OW98270   7.449   9.693   9.097 -0.2815  0.0150 -0.3534
31911SOL    HW198271   7.375   9.658   9.147  1.4140 -0.9598  1.5164
31911SOL    HW298272   7.504   9.617   9.078  1.8129  1.1429  0.9697
31912SOL     OW98273   6.166   9.874   9.859 -0.1891  0.0661 -0.0125
31912SOL    HW198274   6.180   9.780   9.853  1.8289  0.3367  0.2821
31912SOL    HW298275   6.171   9.894   9.953 -0.7433  0.4602 -0.0588
31913SOL     OW98276   6.612   7.456   0.682  0.4654 -0.0457  0.0579
31913SOL    HW198277   6.695   7.501   0.694  0.4625  0.0622 -0.3480
31913SOL    HW298278   6.613   7.426   0.592 -0.7531  1.6160 -0.5306
31914SOL     OW98279   5.680  10.002   1.743 -0.0919  0.4764 -0.3912
31914SOL    HW198280   5.639  10.055   1.811 -0.4807  0.3214 -0.5053
31914SOL    HW298281   5.616   9.934   1.724  0.0652  0.4534 -0.8306
31915SOL     OW98282   1.960   9.445   3.227 -0.5655  0.2812  0.5478
31915SOL    HW198283   1.933   9.518   3.171 -3.5675 -1.2468 -0.1116
31915SOL    HW298284   1.983   9.375   3.165 -0.1534 -0.1519  1.1855
31916SOL     OW98285   2.714   6.924   2.741  0.2967  0.4998  0.1235
31916SOL    HW198286   2.771   6.854   2.708  4.3092  3.2256  0.9183
31916SOL    HW298287   2.707   6.907   2.835  2.0010  1.5477  0.4739
31917SOL     OW98288   9.884   3.529   5.015 -0.9332  0.3794  0.1233
31917SOL    HW198289   9.861   3.493   4.929 -1.3797  0.0659  0.3748
31917SOL    HW298290   9.820   3.492   5.075 -0.2624  0.1341  0.6969
31918SOL     OW98291   9.028   7.624   0.451  0.0899  0.0624  0.2106
31918SOL    HW198292   8.966   7.615   0.379 -0.4775  0.0670  0.6978
31918SOL    HW298293   8.991   7.572   0.522 -0.1405  1.2849  1.0090
31919SOL     OW98294   6.857   3.510   8.813 -0.1868 -0.3191  0.5143
31919SOL    HW198295   6.906   3.488   8.893  0.4346 -0.2962  0.1415
31919SOL    HW298296   6.806   3.431   8.794 -0.2291 -0.3762  0.8583
31920SOL     OW98297   0.534   3.575   1.625 -0.2710  0.2052 -0.2197
31920SOL    HW198298   0.442   3.597   1.614 -1.1157 -2.8137  0.2810
31920SOL    HW298299   0.571   3.648   1.675 -2.6711  0.8505  0.6858
31921SOL     OW98300   5.794   2.942   0.120  0.1663 -0.3754  0.2408
31921SOL    HW198301   5.847   2.933   0.041 -0.4926  3.4332 -0.7268
31921SOL    HW298302   5.717   2.888   0.104  0.1613  0.1714 -1.6186
31922SOL     OW98303   6.655   6.916   9.898  0.2923  0.1533  0.0168
31922SOL    HW198304   6.645   6.962   9.814  0.7298 -0.4337 -0.3605
31922SOL    HW298305   6.677   6.827   9.873  0.2633 -0.0591  0.7648
31923SOL     OW98306   9.538   3.324   8.904 -0.5065  0.4133  0.4663
31923SOL    HW198307   9.555   3.403   8.956  1.9430 -0.2497  0.7509
31923SOL    HW298308   9.484   3.355   8.831  1.0684  2.5213  0.1383
31924SOL     OW98309   2.385  10.063   9.949  0.1999  0.3519 -0.3466
31924SOL    HW198310   2.290  10.078   9.951  0.0642 -0.5403  0.1994
31924SOL    HW298311   2.414  10.084  10.038 -0.0566 -2.8594  0.5617
31925SOL     OW98312   4.036   8.161   9.875  0.5471  0.0728 -0.6898
31925SOL    HW198313   3.984   8.092   9.917  0.2536  1.0082  0.5291
31925SOL    HW298314   4.077   8.118   9.800  1.1369 -1.6806  0.6031
31926SOL     OW98315   1.835   2.946   0.846  0.3373  0.2629  0.2611
31926SOL    HW198316   1.824   2.917   0.755  0.1746 -0.0184  0.3704
31926SOL    HW298317   1.919   2.908   0.873 -0.5484 -1.2911  0.8610
31927SOL     OW98318   2.382   3.025   5.142  0.1598  0.3778 -0.4969
31927SOL    HW198319   2.313   2.959   5.134  0.7285 -0.1959 -0.6513
31927SOL    HW298320   2.442   2.990   5.208  0.7701  0.4622 -0.9993
31928SOL     OW98321   8.948   4.619   0.492 -0.2734 -0.1183  0.0216
31928SOL    HW198322   8.935   4.658   0.578 -0.3411  1.1603 -0.5532
31928SOL    HW298323   8.922   4.528   0.502  0.4451 -0.1695  1.5395
31929SOL     OW98324   6.464   6.220   3.106 -0.0338 -0.6548 -0.1601
31929SOL    HW198325   6.404   6.213   3.180  1.0873 -1.8049  0.6630
31929SOL    HW298326   6.412   6.193   3.030 -1.2277  0.6615  0.1613
31930SOL     OW98327   1.413   4.352   2.235 -0.7376 -0.3958  0.0612
31930SOL    HW198328   1.507   4.359   2.250 -0.6016  3.2868 -1.9148
31930SOL    HW298329   1.404   4.341   2.140 -2.3022 -1.0453  0.2573
31931SOL     OW98330   3.067   1.248   3.441 -0.2495 -0.1428  0.1669
31931SOL    HW198331   3.009   1.209   3.376  0.2275 -0.1802 -0.2405
31931SOL    HW298332   3.096   1.174   3.494  1.6721 -0.5616 -1.4041
31932SOL     OW98333   9.046   6.911  10.176  0.2596  1.0011 -0.1421
31932SOL    HW198334   9.015   6.852  10.244 -1.2793  1.0853 -0.7482
31932SOL    HW298335   9.142   6.907  10.182  0.1604 -0.8159  0.4386
31933SOL     OW98336   7.864   9.009   1.574  0.1598 -0.1076 -0.5061
31933SOL    HW198337   7.820   8.990   1.656  0.1527  0.5721 -0.3498
31933SOL    HW298338   7.797   9.050   1.519  0.6257  1.0269 -0.2282
31934SOL     OW98339   5.810   0.182   5.396  0.8552  0.0351 -0.6790
31934SOL    HW198340   5.826   0.201   5.304 -1.0263 -1.3074 -1.3289
31934SOL    HW298341   5.774   0.093   5.396  0.7877  0.0274  1.3577
31935SOL     OW98342   9.251   2.121   3.082 -0.0623  0.0555 -0.3250
31935SOL    HW198343   9.225   2.164   3.163  0.1312 -0.8149  0.2131
31935SOL    HW298344   9.175   2.069   3.057 -0.4646  1.0564 -1.2244
31936SOL     OW98345   1.698  10.036   9.448  0.7179  0.6575 -0.6586
31936SOL    HW198346   1.605  10.058   9.445 -0.0960 -2.7141 -1.7474
31936SOL    HW298347   1.731  10.084   9.524 -2.5031 -0.2175  1.4221
31937SOL     OW98348   1.750   7.871   0.497 -0.3699  0.1762 -0.6161
31937SOL    HW198349   1.840   7.839   0.499 -1.2099 -2.2384 -0.1589
31937SOL    HW298350   1.704   7.817   0.561 -2.2767  1.0076 -1.2461
31938SOL     OW98351   1.129   7.020   7.231  0.4432 -0.5450 -0.2254
31938SOL    HW198352   1.189   7.045   7.161  0.7290 -0.2250  0.1342
31938SOL    HW298353   1.084   7.101   7.254  0.8407 -0.5076  0.4303
31939SOL     OW98354   5.635   6.266   6.561  0.3257 -0.3374  0.5543
31939SOL    HW198355   5.544   6.272   6.534  0.3502 -3.1596 -0.2283
31939SOL    HW298356   5.672   6.352   6.538 -1.6962  0.2575 -0.6116
31940SOL     OW98357   6.170   2.332   2.422 -0.0948  0.0919  0.2902
31940SOL    HW198358   6.159   2.426   2.434 -1.1101 -0.0447  0.5143
31940SOL    HW298359   6.135   2.314   2.335 -1.6666 -0.3529  0.9971
31941SOL     OW98360   2.034   5.387   3.752 -0.1788 -0.1698 -0.4320
31941SOL    HW198361   2.113   5.438   3.734 -0.6571  0.3105 -1.2344
31941SOL    HW298362   1.997   5.426   3.830 -0.7541  0.9794 -1.2666
31942SOL     OW98363   7.359   8.259   1.554 -0.2631 -0.2374  0.3344
31942SOL    HW198364   7.410   8.200   1.609 -1.1878 -1.4964 -0.1617
31942SOL    HW298365   7.409   8.341   1.556  2.8382 -1.9612 -1.6724
31943SOL     OW98366   2.550  10.130   9.089  0.2303 -0.1655 -0.0662
31943SOL    HW198367   2.608  10.168   9.022 -1.5640  1.4830 -0.7473
31943SOL    HW298368   2.600  10.137   9.170  1.0575  1.1187 -0.6564
31944SOL     OW98369   3.198   1.140   0.640  1.1256  0.3373  0.2621
31944SOL    HW198370   3.142   1.217   0.624 -3.4235 -2.1500  2.9500
31944SOL    HW298371   3.204   1.097   0.555 -3.7179 -0.8582  0.3779
31945SOL     OW98372   5.779   5.855   3.829  0.3313  0.2064 -0.8800
31945SOL    HW198373   5.757   5.761   3.828 -0.0677  0.2899 -0.2577
31945SOL    HW298374   5.744   5.889   3.747 -3.7582  0.7531  1.0010
31946SOL     OW98375   6.640   0.564   9.936 -0.1852  0.8185  0.2547
31946SOL    HW198376   6.616   0.624   9.865  0.1917  1.1384  0.3918
31946SOL    HW298377   6.565   0.564   9.995 -0.2147  1.1089  0.2173
31947SOL     OW98378  10.129   3.946   5.714 -0.5159  0.5698  0.0104
31947SOL    HW198379  10.126   3.854   5.739  1.0456  0.6539  0.5690
31947SOL    HW298380  10.100   3.947   5.623 -0.1046 -0.5385 -0.1389
31948SOL     OW98381   2.037   3.579   7.986  0.1628 -0.3488 -0.2842
31948SOL    HW198382   2.007   3.623   7.907 -1.3944  1.8635  1.4716
31948SOL    HW298383   2.123   3.617   8.004  0.0558 -0.0824 -0.3383
31949SOL     OW98384   1.807   8.142   8.781 -0.2513 -0.3033 -0.1814
31949SOL    HW198385   1.833   8.079   8.714  1.2620 -0.0734  0.1906
31949SOL    HW298386   1.861   8.219   8.764 -0.1561 -0.0987  1.0517
31950SOL     OW98387   2.754   5.664   0.582  0.0046 -0.1575 -0.2380
31950SOL    HW198388   2.735   5.685   0.490  0.5176 -0.4913 -0.4253
31950SOL    HW298389   2.720   5.575   0.593  1.2100 -0.6715 -0.5127
31951SOL     OW98390   5.390   0.976   2.237 -0.1035 -0.1264 -0.4099
31951SOL    HW198391   5.418   0.994   2.148 -1.9056  0.1197 -0.9393
31951SOL    HW298392   5.472   0.957   2.284  1.2243  2.7947 -1.3703
31952SOL     OW98393   0.200   2.078   1.584  0.5335  0.7562  0.0765
31952SOL    HW198394   0.154   2.153   1.622 -0.0280 -0.0053  0.9193
31952SOL    HW298395   0.273   2.116   1.536 -0.1817  1.8888 -0.1159
31953SOL     OW98396   0.284   9.278   4.033 -0.0132  0.6967 -0.6554
31953SOL    HW198397   0.311   9.189   4.011 -2.5748 -0.2576 -0.1578
31953SOL    HW298398   0.364   9.320   4.066  1.0347 -1.7035 -0.0341
31954SOL     OW98399   6.242   1.879   0.894  0.0694  0.1774 -0.3965
31954SOL    HW198400   6.194   1.836   0.823  1.9829 -0.7742 -1.1411
31954SOL    HW298401   6.228   1.822   0.970  0.2193 -0.2259 -0.6685
31955SOL     OW98402   9.021   6.491   8.190 -0.2388 -0.1809 -0.3581
31955SOL    HW198403   9.001   6.489   8.283  1.7670 -0.0089  0.1010
31955SOL    HW298404   9.116   6.484   8.186 -0.3898 -1.3419 -2.4422
31956SOL     OW98405   5.859   2.457   2.268  0.0744  0.6435  0.3443
31956SOL    HW198406   5.839   2.545   2.237  1.3586  1.5486  2.0317
31956SOL    HW298407   5.939   2.467   2.319  0.2886 -1.5253  0.4731
31957SOL     OW98408   3.867   2.515   2.233  0.0652  0.2860 -0.3270
31957SOL    HW198409   3.833   2.429   2.209 -0.4024  0.5130 -0.4994
31957SOL    HW298410   3.889   2.557   2.150  1.0317  0.0397 -0.2000
31958SOL     OW98411   7.350   4.226   6.882  0.5503  0.3727 -0.1200
31958SOL    HW198412   7.376   4.238   6.973  1.2678  3.7273 -0.7141
31958SOL    HW298413   7.418   4.271   6.831 -0.1445 -0.9644 -2.3054
31959SOL     OW98414   2.207   9.197   9.947 -0.1884  0.5339 -0.0971
31959SOL    HW198415   2.165   9.260   9.890 -1.8678 -1.8179 -1.5490
31959SOL    HW298416   2.249   9.134   9.887  1.5803  0.3313  1.2962
31960SOL     OW98417  10.043   7.392   4.623 -0.0250 -0.5283 -0.0865
31960SOL    HW198418  10.016   7.453   4.555  0.3446  1.0846  1.1863
31960SOL    HW298419  10.002   7.309   4.598 -2.3965  0.7584 -0.6514
31961SOL     OW98420   4.044   6.936   4.537 -0.1116 -0.0853 -0.1336
31961SOL    HW198421   4.010   6.862   4.488  0.0192 -0.8621  0.9214
31961SOL    HW298422   4.137   6.938   4.518  0.2375 -1.4023  1.3613
31962SOL     OW98423   0.437   1.834   7.389  0.5792 -0.3268  0.0463
31962SOL    HW198424   0.420   1.879   7.471 -1.3067 -0.4510 -0.2434
31962SOL    HW298425   0.531   1.844   7.374  0.7165  0.7594  1.5814
31963SOL     OW98426   3.757   3.998   0.024 -0.2334  0.5214  0.4216
31963SOL    HW198427   3.728   3.909   0.004 -0.1140  0.5562  0.1034
31963SOL    HW298428   3.739   4.008   0.118 -1.4036  0.6024  0.1877
31964SOL     OW98429   8.468   6.862   1.226  0.2994  0.0893 -0.7018
31964SOL    HW198430   8.463   6.950   1.263 -2.2524 -0.7668  1.0882
31964SOL    HW298431   8.555   6.831   1.251 -0.9357 -0.0657  3.8458
31965SOL     OW98432   2.419   9.838   1.101 -0.5378 -0.3942  0.2061
31965SOL    HW198433   2.510   9.813   1.084 -0.4468 -0.3600  0.6485
31965SOL    HW298434   2.397   9.796   1.184 -0.4853  0.7290  0.7954
31966SOL     OW98435   9.539   0.388   6.528 -0.0218 -0.1729  0.2615
31966SOL    HW198436   9.524   0.365   6.437  2.2313 -0.1085 -0.1662
31966SOL    HW298437   9.515   0.480   6.534  0.7290  0.0862 -0.5220
31967SOL     OW98438   3.887   1.204   4.209 -0.2668 -0.1483  0.0457
31967SOL    HW198439   3.847   1.290   4.198 -2.5930 -1.1397  0.3080
31967SOL    HW298440   3.954   1.199   4.141 -1.5251  1.0716 -1.3207
31968SOL     OW98441   8.239   7.031   3.035  0.4973  0.3779  0.1138
31968SOL    HW198442   8.197   7.081   2.964 -1.6304 -1.4008  0.0741
31968SOL    HW298443   8.326   7.010   3.000 -0.4847 -0.3951 -1.9547
31969SOL     OW98444   3.467   6.758   7.484 -0.4430 -0.1739  0.0887
31969SOL    HW198445   3.505   6.845   7.498 -0.1166 -0.0339 -1.4998
31969SOL    HW298446   3.530   6.698   7.523  1.5118  0.0554 -2.5861
31970SOL     OW98447   3.493   2.413   3.024 -0.0391  0.0234  0.3074
31970SOL    HW198448   3.572   2.363   3.002  0.8753  1.6075 -0.1549
31970SOL    HW298449   3.442   2.355   3.079  0.3380 -1.9330 -1.3421
31971SOL     OW98450   9.027   8.864   6.519 -0.0469  0.4176 -0.0344
31971SOL    HW198451   8.971   8.793   6.549 -0.4005  0.3933 -0.7276
31971SOL    HW298452   9.061   8.904   6.599  1.1503 -1.3079  0.3224
31972SOL     OW98453   7.704   9.400   5.312  0.3324 -0.4065  0.2707
31972SOL    HW198454   7.660   9.315   5.311 -0.6227  0.0721  0.9097
31972SOL    HW298455   7.783   9.387   5.260  0.5298 -1.8627  0.9289
31973SOL     OW98456   3.264   9.303   1.976 -0.4493  0.0468  0.0387
31973SOL    HW198457   3.269   9.321   1.882 -1.0593 -0.6318 -0.1336
31973SOL    HW298458   3.194   9.360   2.008 -0.3407  0.1725  0.0480
31974SOL     OW98459   3.225   5.894   5.758  0.1490 -0.1370 -0.0122
31974SOL    HW198460   3.230   5.871   5.851 -0.6682  2.3889  0.7007
31974SOL    HW298461   3.191   5.815   5.716 -1.7378 -0.5560  2.1994
31975SOL     OW98462   5.946   4.065   6.317 -0.1116  0.0533  0.1188
31975SOL    HW198463   5.887   4.140   6.309 -0.7253 -0.3543  0.7201
31975SOL    HW298464   5.910   4.015   6.391  1.7251  0.4717  1.3070
31976SOL     OW98465   6.495   6.052   8.579  0.0441 -0.1817 -0.4601
31976SOL    HW198466   6.552   6.063   8.503  1.1600  0.4194  0.4380
31976SOL    HW298467   6.554   6.062   8.654 -1.2112  0.2449  0.4841
31977SOL     OW98468   3.665   9.409  10.119 -0.3253 -0.1774  0.8847
31977SOL    HW198469   3.697   9.336  10.066 -1.9878 -0.5813  0.4029
31977SOL    HW298470   3.600   9.370  10.177  0.7686  0.4413  2.5687
31978SOL     OW98471   8.261   1.979   9.931 -0.3614 -0.2415 -0.1478
31978SOL    HW198472   8.176   1.937   9.919 -0.6362  0.1436  0.4336
31978SOL    HW298473   8.241   2.071   9.947  0.2849  0.2967 -2.2776
31979SOL     OW98474   5.941   5.833   5.246 -0.7233 -0.1777 -0.0170
31979SOL    HW198475   5.951   5.767   5.178  1.8522  0.1331  0.0220
31979SOL    HW298476   6.026   5.877   5.250 -1.6816  1.6197  1.5270
31980SOL     OW98477   1.147   2.204   7.542 -0.6357  0.4927 -0.4273
31980SOL    HW198478   1.079   2.249   7.592  0.1526  0.4766  0.6677
31980SOL    HW298479   1.223   2.261   7.547  0.0609 -0.4525  0.1030
31981SOL     OW98480   1.850   7.360   6.111  0.1073  1.0630 -0.5091
31981SOL    HW198481   1.889   7.348   6.025  1.3783  2.1778 -0.1099
31981SOL    HW298482   1.919   7.333   6.172 -0.7940  0.2331  0.1678
31982SOL     OW98483   9.372   8.365   0.404 -0.0267  0.0899  0.3721
31982SOL    HW198484   9.276   8.373   0.398 -0.1209 -0.4594  1.1099
31982SOL    HW298485   9.404   8.415   0.329 -0.8910  0.3421  0.1571
31983SOL     OW98486   1.248   6.989   8.074  0.8433  0.6117  0.0014
31983SOL    HW198487   1.161   7.029   8.065  0.8034  0.3240 -0.9053
31983SOL    HW298488   1.275   7.012   8.163 -0.6590 -0.2812  0.7092
31984SOL     OW98489   6.843   3.037   5.593  0.5922  0.0558  0.2032
31984SOL    HW198490   6.850   3.094   5.670 -1.0389  0.5177  0.0223
31984SOL    HW298491   6.803   3.092   5.526 -1.1173 -1.3115  0.0649
31985SOL     OW98492   3.208   9.343   8.185  0.4420 -0.3711 -0.0264
31985SOL    HW198493   3.291   9.349   8.136 -0.1830  1.6708 -0.9022
31985SOL    HW298494   3.213   9.415   8.248 -0.0508 -1.1307  0.8768
31986SOL     OW98495   9.398   5.432   4.552 -0.6895  0.5304 -0.1124
31986SOL    HW198496   9.306   5.458   4.543 -0.5393  0.6481 -1.5192
31986SOL    HW298497   9.446   5.499   4.503 -0.1317 -1.3326 -2.2123
31987SOL     OW98498   1.829   0.774   5.606  0.1593  0.1809  0.1607
31987SOL    HW198499   1.765   0.831   5.563  1.8834 -0.3671 -3.3174
31987SOL    HW298500   1.784   0.691   5.618 -0.1938  0.1811 -1.1015
31988SOL     OW98501   9.723   1.773   4.008  0.4362 -0.3189  0.1786
31988SOL    HW198502   9.785   1.784   3.936  0.8397  0.3862  0.6272
31988SOL    HW298503   9.752   1.695   4.054  1.7133  0.6702  1.0930
31989SOL     OW98504   5.213   9.724   8.608 -0.0684 -0.1967 -0.2395
31989SOL    HW198505   5.185   9.752   8.520 -0.3702 -0.6987 -0.3052
31989SOL    HW298506   5.308   9.719   8.602  0.1233  2.2961  0.2069
31990SOL     OW98507   0.851   9.118   8.728 -0.1819 -0.2824 -0.0614
31990SOL    HW198508   0.784   9.055   8.756  1.0359 -1.6979 -0.2889
31990SOL    HW298509   0.832   9.197   8.779 -1.9126 -0.7287  0.0113
31991SOL     OW98510   1.571   0.727   6.902  0.1837  0.3215  0.2432
31991SOL    HW198511   1.501   0.663   6.918 -0.3707  0.4086 -1.6678
31991SOL    HW298512   1.526   0.811   6.897  0.6207  0.5729  0.4891
31992SOL     OW98513   2.187   1.810   5.072 -0.5691 -0.0279  0.3731
31992SOL    HW198514   2.147   1.884   5.119 -0.4909  0.8745 -0.9605
31992SOL    HW298515   2.235   1.850   5.000 -0.5323 -1.3834 -0.3821
31993SOL     OW98516   2.892   3.051   5.623 -0.0037 -0.3106  0.0446
31993SOL    HW198517   2.828   3.105   5.671  0.3124 -0.6067  0.8084
31993SOL    HW298518   2.975   3.065   5.669  0.7992  1.1614 -1.7856
31994SOL     OW98519   8.795   0.359   1.625 -0.2006 -0.2091 -0.1793
31994SOL    HW198520   8.776   0.295   1.694 -1.9819 -0.0980 -0.5506
31994SOL    HW298521   8.890   0.358   1.618 -0.0004 -0.4354  2.0965
31995SOL     OW98522   8.996   2.889   2.571  0.3515  0.0232 -0.4612
31995SOL    HW198523   8.927   2.823   2.576  1.1238 -0.8108 -0.8573
31995SOL    HW298524   9.038   2.874   2.487  0.9401  0.6078 -0.2752
31996SOL     OW98525   1.357   4.956   4.428 -0.0683 -0.4461 -0.8729
31996SOL    HW198526   1.338   5.037   4.474 -1.9068 -0.9899 -0.6385
31996SOL    HW298527   1.332   4.887   4.489 -0.9518 -1.1683 -2.0367
31997SOL     OW98528   8.793   4.509   4.014  0.2454 -0.1675  0.1427
31997SOL    HW198529   8.762   4.555   3.936 -3.1312 -0.4538  1.2351
31997SOL    HW298530   8.814   4.421   3.983  0.5529  0.2173 -0.7523
31998SOL     OW98531   7.243   4.265   8.974 -0.5702 -0.0136 -0.3120
31998SOL    HW198532   7.190   4.202   9.022 -0.9869 -0.1358 -0.9236
31998SOL    HW298533   7.279   4.215   8.901  0.6951 -0.0268  0.3084
31999SOL     OW98534   0.479   7.743   4.770  0.1095 -0.3969 -0.0172
31999SOL    HW198535   0.505   7.652   4.756  2.9449  0.3917 -0.2597
31999SOL    HW298536   0.520   7.790   4.697 -0.4344  1.2321  0.7127
32000SOL     OW98537   2.927   9.594   0.959 -0.4059  0.4468  0.0500
32000SOL    HW198538   2.909   9.688   0.952 -2.1067  0.2046  0.8361
32000SOL    HW298539   2.852   9.559   1.007 -0.5043 -1.5615 -1.5202
32001SOL     OW98540   9.200   8.643   9.759 -0.1340  0.0451 -0.4444
32001SOL    HW198541   9.206   8.666   9.666 -0.0375  0.6217 -0.2955
32001SOL    HW298542   9.155   8.558   9.759 -0.6316  0.3007 -0.9873
32002SOL     OW98543   4.498   2.342   9.638 -0.6075 -0.3164  0.1622
32002SOL    HW198544   4.433   2.346   9.569  0.4799  0.0594 -0.8593
32002SOL    HW298545   4.540   2.257   9.627 -1.1850 -0.7321  1.0737
32003SOL     OW98546   2.474   2.307   5.657 -0.4281 -0.9117  0.4694
32003SOL    HW198547   2.518   2.387   5.628 -0.5770 -0.8853  0.3177
32003SOL    HW298548   2.389   2.309   5.613  0.4287 -2.2517 -1.2836
32004SOL     OW98549   9.610   5.447   7.133 -0.2349 -0.2560  0.3198
32004SOL    HW198550   9.666   5.520   7.108  0.0284 -0.2941  0.7875
32004SOL    HW298551   9.660   5.369   7.109  0.3419 -0.2996  1.6430
32005SOL     OW98552   9.390   2.390   4.764  0.0291 -0.0727  0.2964
32005SOL    HW198553   9.384   2.328   4.692 -0.7078 -0.7308  0.9195
32005SOL    HW298554   9.359   2.341   4.841  2.2577  0.1270  1.3557
32006SOL     OW98555   4.854   0.389   6.838 -0.7221 -0.0655  0.0176
32006SOL    HW198556   4.830   0.436   6.758  1.1120 -0.1361 -0.5894
32006SOL    HW298557   4.850   0.456   6.907 -0.1090  0.5133 -0.5068
32007SOL     OW98558   4.583   3.795   5.077  0.3698  0.0006 -0.7598
32007SOL    HW198559   4.528   3.732   5.031 -1.7231  0.5775  0.8630
32007SOL    HW298560   4.578   3.874   5.023 -2.5729  0.8680  0.6913
32008SOL     OW98561   0.744   3.550   7.287  0.1461  0.0114 -0.0627
32008SOL    HW198562   0.649   3.561   7.277  0.0296 -0.9277 -0.0208
32008SOL    HW298563   0.755   3.515   7.376  0.5575  0.4278  0.0517
32009SOL     OW98564   7.849   1.139   2.186  0.1776 -0.3002 -0.4351
32009SOL    HW198565   7.881   1.073   2.247 -1.6151  0.4800  1.4058
32009SOL    HW298566   7.878   1.222   2.223 -1.7505  0.2415 -0.0974
32010SOL     OW98567   1.055   2.133   0.135  0.5247 -0.8026  0.6886
32010SOL    HW198568   1.148   2.111   0.146  0.3298 -1.0449  1.9736
32010SOL    HW298569   1.055   2.207   0.074  1.5587 -0.8460  0.6217
32011SOL     OW98570   3.619   6.521   4.480  0.1625  0.1324  0.2164
32011SOL    HW198571   3.636   6.459   4.551  0.7631  0.8181  0.6870
32011SOL    HW298572   3.526   6.542   4.488  0.4146  0.8851  1.3799
32012SOL     OW98573   2.618   3.586   3.945  0.4505  0.5788  0.4942
32012SOL    HW198574   2.660   3.507   3.910 -0.6161  0.4846 -0.6075
32012SOL    HW298575   2.559   3.553   4.013  1.6449  0.6499  1.5853
32013SOL     OW98576   9.054   3.795   0.321  0.1544  0.1940 -0.6509
32013SOL    HW198577   8.988   3.786   0.252 -0.1751  1.4564 -0.5149
32013SOL    HW298578   9.024   3.736   0.390 -0.6492  0.4828 -0.7395
32014SOL     OW98579   8.219   5.184   2.726 -0.8655  0.7040  0.1611
32014SOL    HW198580   8.196   5.098   2.691 -1.0289  0.8127  0.0035
32014SOL    HW298581   8.268   5.165   2.806 -0.0619  0.4435 -0.3827
32015SOL     OW98582   5.270   5.173   8.507 -0.1370  0.4546  0.1162
32015SOL    HW198583   5.210   5.126   8.449  0.5175 -0.8589  0.4947
32015SOL    HW298584   5.355   5.168   8.463  0.3656 -0.5706  1.1803
32016SOL     OW98585   2.633   4.354   9.863  0.1127  0.0066  0.4028
32016SOL    HW198586   2.602   4.303   9.938  1.7963 -1.0958  0.3761
32016SOL    HW298587   2.559   4.410   9.840 -1.2993 -1.4330  1.3119
32017SOL     OW98588   6.806   1.128   6.827 -0.0130 -0.0683 -0.3513
32017SOL    HW198589   6.761   1.044   6.826  3.0584 -1.7555 -0.7082
32017SOL    HW298590   6.832   1.141   6.918  0.1961  0.1366 -0.4378
32018SOL     OW98591   1.485   9.942   3.634 -0.1359  0.3310  0.4755
32018SOL    HW198592   1.502   9.882   3.706 -3.1042 -1.5782 -0.2985
32018SOL    HW298593   1.554   9.925   3.570  1.3694  0.6381  2.0180
32019SOL     OW98594   8.174   9.425   4.606 -0.3856 -0.0832 -0.1427
32019SOL    HW198595   8.165   9.512   4.567 -1.6807 -0.3191 -0.4067
32019SOL    HW298596   8.120   9.369   4.551  0.3905 -1.0446  0.0704
32020SOL     OW98597   0.643   5.063   3.764  0.0061  0.5162  0.6205
32020SOL    HW198598   0.723   5.095   3.805 -0.0773 -0.1912  1.3509
32020SOL    HW298599   0.655   4.969   3.758 -0.4027  0.5071 -0.0808
32021SOL     OW98600   3.217   0.837   6.455  0.5442 -0.8282  0.6519
32021SOL    HW198601   3.236   0.753   6.496  1.8688 -1.1466 -0.5706
32021SOL    HW298602   3.290   0.851   6.395 -1.1675 -0.2292 -1.3572
32022SOL     OW98603   6.744   5.493   8.949  0.3518  0.0761  0.0955
32022SOL    HW198604   6.699   5.554   9.007  0.0324  0.4765 -0.5688
32022SOL    HW298605   6.753   5.541   8.866 -1.0340 -1.2098 -0.8353
32023SOL     OW98606   3.564   0.212   1.905  0.3824 -0.0372  0.0814
32023SOL    HW198607   3.582   0.171   1.820  0.4214  0.2757 -0.0615
32023SOL    HW298608   3.479   0.255   1.893 -1.0022 -2.4073  1.0787
32024SOL     OW98609   6.996   3.479   2.378 -0.0572  0.6950  0.4296
32024SOL    HW198610   7.063   3.506   2.315  0.0761 -0.6574 -0.0321
32024SOL    HW298611   7.045   3.452   2.456  0.1332 -2.1950 -0.5988
32025SOL     OW98612   9.340   1.967   6.528  0.0379 -0.8377  0.6686
32025SOL    HW198613   9.358   2.058   6.551 -0.9847 -0.7304  1.0936
32025SOL    HW298614   9.410   1.917   6.571  0.2752 -0.3036  0.9135
32026SOL     OW98615   5.012   7.591   0.571  0.2369 -0.7881 -0.0377
32026SOL    HW198616   4.929   7.618   0.532  0.0019 -1.0462  0.2872
32026SOL    HW298617   5.040   7.667   0.623  0.5330 -0.4533 -0.6616
32027SOL     OW98618   7.140   5.431   6.178  0.2110 -0.1664  0.3940
32027SOL    HW198619   7.047   5.416   6.161  0.1956 -0.5151  0.7767
32027SOL    HW298620   7.146   5.526   6.190  0.3808  0.2190 -2.3896
32028SOL     OW98621   8.091   4.699   1.165  0.1104  0.0261  0.1196
32028SOL    HW198622   8.052   4.753   1.097 -0.6472 -0.1883  0.3710
32028SOL    HW298623   8.069   4.744   1.247 -0.0387 -0.3539  0.2923
32029SOL     OW98624   0.137   2.496   4.495 -0.2346  0.8626 -0.5502
32029SOL    HW198625   0.224   2.512   4.458  0.4734 -3.5645 -1.0838
32029SOL    HW298626   0.083   2.473   4.419 -0.5031 -1.5411  0.3398
32030SOL     OW98627   6.790   5.699   1.943 -0.7796 -0.3491 -0.3818
32030SOL    HW198628   6.836   5.778   1.915 -0.1144 -1.3587 -2.2334
32030SOL    HW298629   6.779   5.710   2.038  1.0757  1.0341 -0.2979
32031SOL     OW98630   4.848   2.794   5.044  0.5475 -0.5702  0.1577
32031SOL    HW198631   4.858   2.878   4.999  1.3448 -1.5322 -1.5115
32031SOL    HW298632   4.859   2.815   5.137 -0.9330  1.4274 -0.0982
32032SOL     OW98633   9.693   0.827   0.018 -0.5700  0.3436  0.3188
32032SOL    HW198634   9.650   0.874  -0.053 -1.6121  2.3223  2.2159
32032SOL    HW298635   9.645   0.744   0.024 -1.0904  0.5671 -0.6204
32033SOL     OW98636   3.397  10.014   7.010  0.0640  0.8297  0.2619
32033SOL    HW198637   3.458   9.959   6.959  0.1162  0.0081  1.1855
32033SOL    HW298638   3.427  10.004   7.100 -1.4046  0.4673  0.7161
32034SOL     OW98639   2.355   0.011   7.356 -0.2517 -0.0650 -0.3764
32034SOL    HW198640   2.435   0.040   7.312  0.3260 -0.8193  0.1771
32034SOL    HW298641   2.378   0.009   7.449 -0.8765 -0.4139 -0.2284
32035SOL     OW98642   6.410   5.351   5.537  0.7337  0.1200  0.2375
32035SOL    HW198643   6.480   5.304   5.583  0.5862  0.0009  0.3407
32035SOL    HW298644   6.379   5.416   5.601  2.3680  1.7909 -0.6351
32036SOL     OW98645   8.664   9.729   9.924 -0.2553 -0.5114 -0.1824
32036SOL    HW198646   8.647   9.764   9.836 -1.7444  1.8630  0.9781
32036SOL    HW298647   8.719   9.796   9.965 -0.8728 -0.8377  1.1888
32037SOL     OW98648   3.418   8.165   5.247  0.1157 -0.9931  0.2005
32037SOL    HW198649   3.323   8.155   5.255  0.3224 -0.8237  3.6050
32037SOL    HW298650   3.452   8.076   5.257  0.3600 -0.9962 -0.6056
32038SOL     OW98651   4.788   2.153  10.161 -0.0134 -0.4341  0.0977
32038SOL    HW198652   4.750   2.155  10.073  1.4053  1.5536 -0.5167
32038SOL    HW298653   4.880   2.130  10.146  0.3751  0.4963  0.9688
32039SOL     OW98654   1.738   0.739   7.967 -0.1109 -0.7812 -0.7858
32039SOL    HW198655   1.793   0.672   8.007  0.5197 -1.0535 -2.0856
32039SOL    HW298656   1.659   0.692   7.940 -0.6441 -0.5467  0.3686
32040SOL     OW98657   9.396   4.417   2.887  0.0262  0.3830  0.1362
32040SOL    HW198658   9.428   4.359   2.956  2.3183  0.3617 -0.8780
32040SOL    HW298659   9.445   4.498   2.899  1.2078  0.0401 -2.0228
32041SOL     OW98660   9.144   5.108   2.185  0.0188  0.0486  0.1330
32041SOL    HW198661   9.224   5.058   2.164 -0.7858 -0.6370 -1.3869
32041SOL    HW298662   9.104   5.058   2.256  0.3175 -0.2733  0.0797
32042SOL     OW98663   2.127   7.413   1.931  0.1029  0.0107 -0.3520
32042SOL    HW198664   2.144   7.459   2.014 -0.8650  0.6354 -0.4917
32042SOL    HW298665   2.038   7.438   1.908  0.1408 -0.6806 -1.2596
32043SOL     OW98666   7.965   7.166   4.845  0.1761  0.1422  0.5316
32043SOL    HW198667   8.055   7.191   4.865 -0.2139 -0.3446  3.0500
32043SOL    HW298668   7.939   7.108   4.916 -2.2719  0.6056  0.0789
32044SOL     OW98669   5.403   6.476   2.798  0.3262 -0.4215  0.3832
32044SOL    HW198670   5.438   6.498   2.884  1.5738 -0.5563 -0.0871
32044SOL    HW298671   5.474   6.429   2.754 -1.1611 -2.5830  0.1943
32045SOL     OW98672   6.002   5.188   3.953 -0.1900  0.3480  0.4256
32045SOL    HW198673   6.090   5.157   3.976 -0.5160 -0.1869  0.9937
32045SOL    HW298674   5.960   5.112   3.911 -0.7318  0.2534  1.1185
32046SOL     OW98675   5.777   3.705   6.574  0.4731 -0.0371  0.5775
32046SOL    HW198676   5.742   3.661   6.652 -0.3326  2.0736  1.4317
32046SOL    HW298677   5.745   3.653   6.501 -0.0496 -1.1592  1.5878
32047SOL     OW98678   3.442   1.217   4.112 -0.0767 -0.3697  0.2811
32047SOL    HW198679   3.528   1.181   4.136  0.6714  1.9359  1.2269
32047SOL    HW298680   3.420   1.175   4.030  1.2883 -2.1039  0.7851
32048SOL     OW98681   3.358   6.596   4.516 -0.1306 -0.1433 -0.2488
32048SOL    HW198682   3.342   6.691   4.518  0.8372  0.1280 -2.8736
32048SOL    HW298683   3.306   6.565   4.441  0.9944 -1.3794 -0.5327
32049SOL     OW98684   4.337   9.326   9.913 -0.4715 -0.0362  0.6147
32049SOL    HW198685   4.298   9.335   9.826  0.6502 -1.9511 -0.1256
32049SOL    HW298686   4.370   9.413   9.935 -1.7846  0.7165 -0.3721
32050SOL     OW98687   0.793   6.876  10.061  0.5062 -0.1926  1.1206
32050SOL    HW198688   0.721   6.926  10.101  0.9571  0.9279  0.5289
32050SOL    HW298689   0.867   6.891  10.119  1.9015  3.6121 -1.4562
32051SOL     OW98690   9.519   5.119   8.220  0.1059  0.2634  0.5977
32051SOL    HW198691   9.504   5.083   8.133 -1.0746  0.9559  0.5073
32051SOL    HW298692   9.614   5.130   8.226  0.2370 -0.3358 -0.3724
32052SOL     OW98693   0.382   1.762   0.120  0.1441  0.2809 -0.3514
32052SOL    HW198694   0.476   1.775   0.132 -0.0519  0.9830  0.3898
32052SOL    HW298695   0.361   1.687   0.176  0.4736 -0.6412 -1.4258
32053SOL     OW98696   3.201   7.094   1.691  0.1590  0.3286 -0.2589
32053SOL    HW198697   3.197   7.185   1.661 -0.3869  0.2025 -0.5841
32053SOL    HW298698   3.136   7.089   1.761 -1.7115 -0.4448 -1.9988
32054SOL     OW98699   3.425   0.528   7.885 -0.4140 -0.3992  0.6148
32054SOL    HW198700   3.411   0.518   7.790 -1.2530 -1.2877  0.8254
32054SOL    HW298701   3.500   0.587   7.892  1.2813 -2.3411 -0.6337
32055SOL     OW98702   2.420   3.050   3.527 -0.2300 -0.1912  0.3127
32055SOL    HW198703   2.496   2.998   3.551  0.0256  0.3296  0.6321
32055SOL    HW298704   2.346   2.989   3.534 -0.1135 -0.1462  2.0328
32056SOL     OW98705   6.436   9.971   9.463  0.0118 -0.6534 -0.0357
32056SOL    HW198706   6.428  10.054   9.416 -0.2770 -1.3430 -1.2427
32056SOL    HW298707   6.429   9.994   9.555  0.4243  0.7225 -0.3343
32057SOL     OW98708   1.532   6.421   1.254  0.0769  0.0078 -0.2615
32057SOL    HW198709   1.496   6.342   1.293 -0.6456  0.3464 -0.2332
32057SOL    HW298710   1.561   6.395   1.167 -0.9328 -0.0885 -0.5679
32058SOL     OW98711   1.847   0.647   9.488 -0.1449  0.3903 -0.0722
32058SOL    HW198712   1.895   0.582   9.539  0.8669 -0.4015 -1.9897
32058SOL    HW298713   1.785   0.597   9.437  0.2537  0.9817 -1.1457
32059SOL     OW98714   0.308   6.093   4.559  0.1088 -0.1053 -0.1709
32059SOL    HW198715   0.389   6.141   4.544 -0.2233  0.2009 -0.9968
32059SOL    HW298716   0.264   6.140   4.630  0.6215 -0.2370  0.2349
32060SOL     OW98717   9.269   8.009   2.266  0.2195  0.2809  0.0994
32060SOL    HW198718   9.223   8.054   2.195  1.4773  1.2176 -0.1313
32060SOL    HW298719   9.240   8.054   2.345  0.9812  1.1027 -0.0757
32061SOL     OW98720   1.256   9.725   0.421  0.3338  0.2246 -0.2744
32061SOL    HW198721   1.246   9.720   0.326 -1.0050 -1.0559 -0.0938
32061SOL    HW298722   1.193   9.662   0.455  2.3705 -0.9873  1.3977
32062SOL     OW98723   1.578   4.948   0.841  0.2008  0.2977 -0.0287
32062SOL    HW198724   1.521   5.009   0.795  1.4259  1.2203 -0.3362
32062SOL    HW298725   1.662   4.953   0.795  0.4156 -1.3952  0.1211
32063SOL     OW98726   9.502   9.082   4.810  0.6414  0.3334  0.3785
32063SOL    HW198727   9.513   9.029   4.889 -0.8485 -0.6825 -0.0630
32063SOL    HW298728   9.481   9.169   4.843  0.7856  0.0993  1.1134
32064SOL     OW98729   7.458   1.733  10.039 -0.0758 -0.1063 -0.1167
32064SOL    HW198730   7.528   1.668  10.030  0.0835  0.4211 -3.3872
32064SOL    HW298731   7.481   1.802   9.977 -3.2317  0.3012 -0.9486
32065SOL     OW98732   5.360   4.600   1.998 -0.4032  0.3256 -0.4636
32065SOL    HW198733   5.422   4.572   2.065  0.5341 -0.9324 -1.8302
32065SOL    HW298734   5.362   4.695   2.002 -1.0979  0.2776  1.9511
32066SOL     OW98735   5.747   0.289   9.317 -0.3213  0.6032  1.1537
32066SOL    HW198736   5.693   0.212   9.300  1.0582 -0.9201  3.2699
32066SOL    HW298737   5.808   0.292   9.243  1.1144 -1.7807  2.1553
32067SOL     OW98738   7.658   5.061   3.411 -0.7100 -0.2320  0.3339
32067SOL    HW198739   7.715   5.039   3.337  1.2134  0.2801  1.6137
32067SOL    HW298740   7.594   4.991   3.415  0.7468 -1.6214 -0.2486
32068SOL     OW98741   0.583   1.070   9.059  0.1742  0.1878  0.2542
32068SOL    HW198742   0.499   1.029   9.037 -0.6273  2.9363 -2.2728
32068SOL    HW298743   0.558   1.155   9.096  1.8421  0.6073  0.4203
32069SOL     OW98744   9.962   4.352   2.634 -0.3749 -0.3833  0.3487
32069SOL    HW198745   9.912   4.363   2.553 -0.0140  2.6282  0.4746
32069SOL    HW298746  10.037   4.411   2.624 -0.9125  0.8851  3.3227
32070SOL     OW98747   7.048   3.828   1.657 -0.4633 -0.3542 -0.2680
32070SOL    HW198748   6.957   3.824   1.685  0.0847  1.8175  2.0090
32070SOL    HW298749   7.047   3.884   1.579 -0.9663  0.4234  0.2951
32071SOL     OW98750   4.984   0.571   5.096 -0.4266 -0.2429  0.3817
32071SOL    HW198751   4.888   0.574   5.100 -0.4377  1.2760 -0.5905
32071SOL    HW298752   5.008   0.644   5.040  1.3600 -0.1175  1.2633
32072SOL     OW98753   7.977   6.498   0.768  0.1082 -0.2784  0.9665
32072SOL    HW198754   7.973   6.592   0.780  0.2275 -0.3366  1.4946
32072SOL    HW298755   7.886   6.471   0.753  0.2116  0.0582 -0.3244
32073SOL     OW98756   1.738   2.630   1.623  0.6305 -0.1064 -0.4667
32073SOL    HW198757   1.804   2.700   1.621  0.3262  0.1787 -0.5826
32073SOL    HW298758   1.730   2.607   1.715 -0.4341  1.1213 -0.2341
32074SOL     OW98759   4.164   3.900   4.372  0.2963  0.4578 -0.8031
32074SOL    HW198760   4.256   3.879   4.389 -0.1600 -0.4332  0.6584
32074SOL    HW298761   4.165   3.993   4.348  1.5209  0.5807 -0.3184
32075SOL     OW98762   7.842   5.418   6.839  0.5361  0.1675 -0.1237
32075SOL    HW198763   7.836   5.514   6.849 -1.0589  0.2601 -1.7713
32075SOL    HW298764   7.821   5.384   6.926 -1.5152  1.2550 -0.1582
32076SOL     OW98765   2.309   0.254   3.994 -0.1406 -0.3007 -0.4836
32076SOL    HW198766   2.352   0.324   4.042  0.5437 -1.0743  0.0295
32076SOL    HW298767   2.267   0.299   3.919 -0.3780  0.7554  0.2663
32077SOL     OW98768   9.369   8.735   7.358  0.0444 -0.1800 -0.3453
32077SOL    HW198769   9.431   8.663   7.375  0.3562  0.1383 -0.1280
32077SOL    HW298770   9.301   8.725   7.424 -0.0994 -0.4870 -0.5390
32078SOL     OW98771   7.457   0.885   2.920  0.2782 -0.1661  0.7644
32078SOL    HW198772   7.515   0.905   2.993  0.7932 -0.5951  0.4724
32078SOL    HW298773   7.482   0.797   2.892 -1.5638 -1.0226  1.6519
32079SOL     OW98774   0.329   6.248   1.224  0.6063 -0.0596  0.1597
32079SOL    HW198775   0.309   6.234   1.131  2.4974 -0.8472 -0.1585
32079SOL    HW298776   0.244   6.243   1.268 -0.6351  2.7493 -1.7739
32080SOL     OW98777   3.320   7.862   7.392  0.7350  0.0712 -0.1381
32080SOL    HW198778   3.301   7.778   7.432  1.0766  1.2735  2.6793
32080SOL    HW298779   3.390   7.899   7.446  0.0559  2.4599 -0.8362
32081SOL     OW98780   9.872   0.785   9.468 -0.1182  0.1860 -0.7025
32081SOL    HW198781   9.882   0.714   9.531  0.2427  1.0357  0.2123
32081SOL    HW298782   9.777   0.794   9.457 -0.2512  1.1943  1.0777
32082SOL     OW98783   5.527   0.110   1.315  0.0984 -0.1275  0.5831
32082SOL    HW198784   5.475   0.065   1.248 -0.0755  0.2694  0.4491
32082SOL    HW298785   5.585   0.167   1.264  1.5575 -1.4945  0.6641
32083SOL     OW98786   0.889   8.486   2.407  0.8457 -0.7082  0.1688
32083SOL    HW198787   0.968   8.470   2.458  1.7948 -1.1751 -1.4114
32083SOL    HW298788   0.877   8.581   2.410  1.8960 -0.5568 -0.1729
32084SOL     OW98789   8.087   7.954   1.105  0.4269  0.2212 -0.1665
32084SOL    HW198790   8.065   7.910   1.023 -1.5911 -2.1091  1.5451
32084SOL    HW298791   8.008   8.004   1.127  0.5583 -0.0361  0.8981
32085SOL     OW98792   6.568   1.423   6.562  0.6042  0.1410  0.2162
32085SOL    HW198793   6.582   1.390   6.650 -0.8677 -2.8134 -0.5966
32085SOL    HW298794   6.478   1.456   6.562  0.3413 -0.5687 -0.3847
32086SOL     OW98795   0.100   2.380   6.272  0.4051  0.0145  0.3396
32086SOL    HW198796   0.101   2.349   6.362  1.7947  1.0353  0.6981
32086SOL    HW298797   0.133   2.307   6.220 -0.9385 -0.7776  0.5659
32087SOL     OW98798   8.589   2.222   3.000 -0.0842 -0.2602 -0.0572
32087SOL    HW198799   8.671   2.173   3.008 -0.6760 -1.1414  0.6420
32087SOL    HW298800   8.551   2.191   2.918 -0.2400 -0.6313  0.1573
32088SOL     OW98801   8.792   3.105   7.803 -0.1941  0.1660 -0.0637
32088SOL    HW198802   8.717   3.050   7.827 -0.9163  1.5004  0.7756
32088SOL    HW298803   8.804   3.090   7.709 -0.5676 -1.1731  0.0848
32089SOL     OW98804   8.029   8.810   3.889  0.0595 -0.0128 -0.5089
32089SOL    HW198805   8.078   8.812   3.806 -0.4181 -0.0833 -0.7936
32089SOL    HW298806   7.994   8.898   3.898  1.2125  0.3733  0.2839
32090SOL     OW98807   4.598   5.855   8.251 -0.4909  0.2677  0.1402
32090SOL    HW198808   4.531   5.865   8.318  0.4668  2.6488  0.7880
32090SOL    HW298809   4.671   5.813   8.296 -0.2443  0.8811  0.3061
32091SOL     OW98810   2.266   2.067   6.531 -0.1529 -0.0086  0.4522
32091SOL    HW198811   2.233   1.989   6.577 -1.1568  1.2824  1.9880
32091SOL    HW298812   2.339   2.097   6.585  0.2239  0.1242 -0.1312
32092SOL     OW98813   6.940   5.833   4.749 -0.3264 -0.1678  0.4690
32092SOL    HW198814   6.939   5.900   4.681 -2.7357  0.3163  0.9365
32092SOL    HW298815   6.970   5.754   4.704  2.1935  1.1196 -0.1665
32093SOL     OW98816   8.899   6.749   8.563 -0.3974 -0.3012  0.4949
32093SOL    HW198817   8.911   6.707   8.648 -0.5091 -0.1658  0.5801
32093SOL    HW298818   8.840   6.822   8.581  1.3179  1.0633  0.7113
32094SOL     OW98819   5.177  10.181   0.735 -0.3564 -0.4101  0.2390
32094SOL    HW198820   5.139  10.146   0.816 -0.3064  0.0276  0.4545
32094SOL    HW298821   5.101  10.206   0.683 -0.3941 -0.8711  0.0663
32095SOL     OW98822   1.083   4.355   5.024  0.4417 -0.7908 -0.4673
32095SOL    HW198823   1.171   4.343   4.987 -0.2174 -0.1411 -2.3253
32095SOL    HW298824   1.084   4.442   5.061  0.9581 -1.2567  0.6308
32096SOL     OW98825   4.936   9.479   4.671  0.4326  0.4920  1.0229
32096SOL    HW198826   4.866   9.523   4.622  2.3418  1.1738 -1.2077
32096SOL    HW298827   4.942   9.392   4.631  0.3587  0.1666  1.7138
32097SOL     OW98828   4.992   0.048   4.723 -0.1196  0.2931  0.1498
32097SOL    HW198829   4.949  -0.014   4.782 -1.8380  1.0912 -0.2361
32097SOL    HW298830   4.948   0.035   4.639  0.1685  1.3609 -0.1656
32098SOL     OW98831   8.561   5.272   3.538  0.0408 -0.4775 -0.5504
32098SOL    HW198832   8.573   5.318   3.455 -0.3290  0.4068 -0.1196
32098SOL    HW298833   8.625   5.201   3.535  0.6744  0.1138 -1.1865
32099SOL     OW98834   9.097   9.638   3.956 -0.1199 -0.0999 -0.2039
32099SOL    HW198835   9.095   9.624   3.861 -0.1608 -1.1360 -0.0512
32099SOL    HW298836   9.023   9.697   3.972  0.3835  0.7477 -0.9108
32100SOL     OW98837   6.613   3.186   5.084 -0.0720 -0.5050  0.2174
32100SOL    HW198838   6.567   3.223   5.159 -0.4717  2.7684 -1.5147
32100SOL    HW298839   6.545   3.180   5.016  1.3982  1.8008 -1.5277
32101SOL     OW98840   2.390   9.492   4.829  0.5384  0.3488 -0.4394
32101SOL    HW198841   2.345   9.411   4.804  0.7917  0.4157 -1.1512
32101SOL    HW298842   2.342   9.524   4.905 -0.0798 -0.0396 -0.6567
32102SOL     OW98843   0.672   2.930   1.657  0.2854 -0.3312  0.5676
32102SOL    HW198844   0.613   2.854   1.659  1.1185 -1.0427 -0.6119
32102SOL    HW298845   0.626   2.994   1.602 -0.5763  0.1651  1.8492
32103SOL     OW98846   0.421   7.209   5.136 -0.2737  0.3183 -0.9529
32103SOL    HW198847   0.466   7.191   5.218 -1.3316  0.1418 -0.3940
32103SOL    HW298848   0.392   7.122   5.105 -0.0109  0.3995 -1.4314
32104SOL     OW98849   8.430   5.229   8.937 -0.2843 -0.1120 -0.4969
32104SOL    HW198850   8.341   5.248   8.965 -0.7459 -1.2001 -1.1962
32104SOL    HW298851   8.447   5.291   8.866  0.4692  1.8532  1.3328
32105SOL     OW98852   6.511   9.899   8.271 -0.2327 -0.1077  0.2021
32105SOL    HW198853   6.425   9.864   8.251 -0.1556  0.0143 -0.3685
32105SOL    HW298854   6.507   9.924   8.363 -0.4006 -1.2618  0.5132
32106SOL     OW98855   9.093   7.075   8.350  0.3282  0.4579  0.1296
32106SOL    HW198856   9.188   7.075   8.337  0.5590 -0.3334  1.7231
32106SOL    HW298857   9.080   7.121   8.433 -0.5351 -0.9406  0.7794
32107SOL     OW98858   3.989   2.686   2.411  0.6676 -0.5248 -0.2748
32107SOL    HW198859   3.925   2.625   2.374  2.2275 -2.0677 -0.5174
32107SOL    HW298860   4.019   2.737   2.336 -0.1948  0.1298 -0.1781
32108SOL     OW98861   0.134   9.952   4.677  0.1034 -0.0197  0.5038
32108SOL    HW198862   0.169   9.927   4.591 -0.4099 -0.4646  0.4197
32108SOL    HW298863   0.189   9.903   4.739 -0.9959 -1.5074  0.3325
32109SOL     OW98864   6.982   8.695   9.148 -0.4854  0.7348 -0.4779
32109SOL    HW198865   6.947   8.758   9.086 -0.2891 -0.9461 -2.3184
32109SOL    HW298866   6.964   8.609   9.109  2.7639 -0.2552  0.0614
32110SOL     OW98867   0.163   2.204   0.696 -0.0362  0.5137  0.6503
32110SOL    HW198868   0.253   2.228   0.715  0.6320 -1.1632 -0.2753
32110SOL    HW298869   0.169   2.117   0.655 -2.0927  0.1921  0.9613
32111SOL     OW98870   7.883   6.108   7.282  0.1166  0.0922 -0.3572
32111SOL    HW198871   7.934   6.048   7.229  1.0710  0.3205  0.2887
32111SOL    HW298872   7.792   6.097   7.252  0.5472 -0.2978 -1.5197
32112SOL     OW98873   1.356   3.623   9.882  0.0810 -0.4847 -0.1215
32112SOL    HW198874   1.444   3.586   9.890 -0.0198 -0.6700  0.1202
32112SOL    HW298875   1.300   3.562   9.928  0.1325  0.8195  1.7296
32113SOL     OW98876   3.463   0.105   1.395  0.0791  0.3384  0.4353
32113SOL    HW198877   3.395   0.049   1.433  2.1510 -1.7540  1.1578
32113SOL    HW298878   3.423   0.142   1.317 -1.2555 -2.4314 -0.2496
32114SOL     OW98879   3.303   3.270   3.244 -0.4156  0.7858  0.5021
32114SOL    HW198880   3.278   3.347   3.193 -0.5102  0.2536 -0.2539
32114SOL    HW298881   3.225   3.248   3.295 -1.3879 -0.6267 -1.5410
32115SOL     OW98882   1.021   6.441   4.343  0.4339  0.1358 -1.2098
32115SOL    HW198883   0.968   6.472   4.416 -1.7427 -1.3514 -2.1041
32115SOL    HW298884   1.110   6.469   4.365 -0.6898  2.7039  0.3109
32116SOL     OW98885   3.132   5.259   1.893  0.2542  0.2465 -0.5861
32116SOL    HW198886   3.122   5.334   1.834  0.1840  0.2622 -0.5526
32116SOL    HW298887   3.088   5.285   1.973  0.1034  0.1117 -0.6247
32117SOL     OW98888   2.716   8.693   1.985 -0.0873 -0.5957 -0.6239
32117SOL    HW198889   2.793   8.649   1.949  0.3955 -0.2234 -0.0663
32117SOL    HW298890   2.751   8.770   2.030 -0.7949 -0.3689 -0.4491
32118SOL     OW98891   9.070   2.306   9.372 -0.1098 -0.1135  0.6386
32118SOL    HW198892   9.056   2.218   9.409 -1.3143 -0.0838  0.2703
32118SOL    HW298893   9.033   2.301   9.284  1.8010  0.1300 -0.2009
32119SOL     OW98894   3.028   0.279   4.345  0.1481 -0.1379  0.1916
32119SOL    HW198895   2.943   0.241   4.321  0.3414 -0.1946 -0.4109
32119SOL    HW298896   3.083   0.265   4.269  0.6118  0.1777  0.4648
32120SOL     OW98897   8.492   5.740   8.302  0.1345 -0.2216  0.1535
32120SOL    HW198898   8.420   5.684   8.271  0.9864 -1.3087  0.1230
32120SOL    HW298899   8.513   5.796   8.228 -0.8353  0.2687  0.2349
32121SOL     OW98900   7.600   2.079   4.432  0.0627  0.1293  0.0095
32121SOL    HW198901   7.606   2.000   4.485  0.6688 -0.9787 -1.6757
32121SOL    HW298902   7.581   2.149   4.495 -2.3576 -1.6179  1.2764
32122SOL     OW98903   6.199   9.207   0.752 -0.0244  0.0482  0.1919
32122SOL    HW198904   6.279   9.243   0.714  0.6201 -2.0736 -0.4806
32122SOL    HW298905   6.179   9.267   0.824  2.1881  0.5721  0.4148
32123SOL     OW98906   9.724   6.118   4.389  0.2134  0.8502 -0.2452
32123SOL    HW198907   9.701   6.125   4.296  0.0661 -1.1736 -0.3841
32123SOL    HW298908   9.738   6.025   4.403  0.8793  1.2108  1.6309
32124SOL     OW98909   8.333   0.505   8.305 -0.1087 -0.5200  0.2191
32124SOL    HW198910   8.307   0.592   8.337  0.2594 -1.3515  2.9102
32124SOL    HW298911   8.422   0.518   8.271  0.4825 -0.0959  1.8662
32125SOL     OW98912   0.503   5.925   6.935  0.6992  0.0938  0.3151
32125SOL    HW198913   0.585   5.884   6.906  1.0016 -0.0848  1.4311
32125SOL    HW298914   0.493   6.000   6.877  1.5326 -0.0182  0.0136
32126SOL     OW98915   3.168   1.048   0.891 -0.9222 -0.3035 -0.2009
32126SOL    HW198916   3.256   1.020   0.918  0.1036  2.3114 -0.6236
32126SOL    HW298917   3.183   1.098   0.810 -2.5273  1.8741  0.7796
32127SOL     OW98918   4.067   6.068   1.680  0.4417  0.5053 -0.0369
32127SOL    HW198919   3.981   6.086   1.718 -0.1602  1.6605 -1.8813
32127SOL    HW298920   4.086   5.978   1.704 -0.1994  0.9974  2.4326
32128SOL     OW98921   1.558   2.905   6.634 -0.1992 -0.3537 -0.1963
32128SOL    HW198922   1.517   2.958   6.566  0.6682 -0.2750 -0.6724
32128SOL    HW298923   1.523   2.939   6.716  0.4754  1.0830 -0.4878
32129SOL     OW98924   4.677   3.778   3.808  0.6306 -0.8050  0.4111
32129SOL    HW198925   4.760   3.793   3.854  0.9928 -0.2983 -0.3978
32129SOL    HW298926   4.615   3.755   3.877  0.6401  2.0730  1.4191
32130SOL     OW98927   5.032   9.803   0.912  0.1461 -0.1695  0.0593
32130SOL    HW198928   5.037   9.805   0.816  1.2818  0.2384  0.1196
32130SOL    HW298929   4.947   9.762   0.931 -0.3005  0.1849 -1.1207
32131SOL     OW98930   8.263   7.185   1.056  0.9318  0.2882 -0.1309
32131SOL    HW198931   8.235   7.129   0.984 -0.0984  0.0971  0.4019
32131SOL    HW298932   8.183   7.198   1.108  2.0653 -1.2740  2.0925
32132SOL     OW98933   0.515   6.539   7.145 -0.2100  0.2000  0.3856
32132SOL    HW198934   0.519   6.451   7.184  0.6218 -0.0119 -0.1738
32132SOL    HW298935   0.585   6.587   7.189  0.2313  0.1813 -0.2855
32133SOL     OW98936   4.366   6.601   9.142  0.2508  0.6413 -0.2850
32133SOL    HW198937   4.395   6.583   9.053 -0.1571  0.1473 -0.3266
32133SOL    HW298938   4.369   6.515   9.186 -1.0686  0.5798 -0.2792
32134SOL     OW98939   6.782   4.429   2.249 -0.2954  0.4242  0.1683
32134SOL    HW198940   6.783   4.451   2.156 -0.2636  0.5704  0.2030
32134SOL    HW298941   6.830   4.346   2.254 -1.5132 -0.3078 -0.1204
32135SOL     OW98942   9.476   5.107   5.488 -0.1187 -0.0418 -0.5179
32135SOL    HW198943   9.435   5.189   5.515 -0.4610 -0.1720 -0.6345
32135SOL    HW298944   9.441   5.042   5.550  0.6829  0.0187  0.0054
32136SOL     OW98945   9.436   3.032   8.766  0.6144 -0.1323 -0.3120
32136SOL    HW198946   9.427   3.034   8.671  0.8634 -0.0764 -0.3366
32136SOL    HW298947   9.349   3.052   8.799  0.9384  1.7539 -0.5328
32137SOL     OW98948   1.003   5.792   7.900 -0.5484 -0.3900 -0.4824
32137SOL    HW198949   1.085   5.832   7.928 -0.5158 -0.5346 -0.3693
32137SOL    HW298950   1.002   5.706   7.944  0.2241 -1.2767 -2.1709
32138SOL     OW98951   6.868   2.033   9.559 -0.2096 -0.2408  0.1224
32138SOL    HW198952   6.925   2.079   9.498 -1.7323  0.8402 -0.4995
32138SOL    HW298953   6.894   2.066   9.645  2.3267 -2.1831  0.2018
32139SOL     OW98954   2.138   7.797   7.502 -0.3865  0.3498 -0.4564
32139SOL    HW198955   2.109   7.779   7.591 -1.8168 -2.0623 -1.3415
32139SOL    HW298956   2.222   7.751   7.494 -1.6028 -1.8623 -1.1504
32140SOL     OW98957   3.111   7.878   6.829 -0.1728  0.4534 -0.0571
32140SOL    HW198958   3.160   7.885   6.911  0.1888 -0.3584 -0.1899
32140SOL    HW298959   3.178   7.855   6.764 -0.8565 -1.5332 -0.0855
32141SOL     OW98960  10.023   9.461   9.715 -0.0912 -0.6824  0.0148
32141SOL    HW198961  10.076   9.486   9.791  0.5815  0.4751 -0.8224
32141SOL    HW298962  10.087   9.438   9.648 -0.6356  0.4679 -0.9217
32142SOL     OW98963   8.858  10.011   9.651  0.5620 -0.1331  0.0531
32142SOL    HW198964   8.878  10.086   9.708 -0.3386 -0.8617  1.3466
32142SOL    HW298965   8.944   9.974   9.630  0.8940  0.0441  1.0681
32143SOL     OW98966   9.955   1.784   2.351  0.2996  0.0139 -0.2222
32143SOL    HW198967   9.942   1.694   2.322 -0.1610 -0.0002  0.0109
32143SOL    HW298968  10.005   1.776   2.432  0.5174 -0.0161 -0.3609
32144SOL     OW98969   5.245   7.255   0.237  0.0017 -0.1814 -0.2639
32144SOL    HW198970   5.270   7.316   0.307 -0.7401 -1.1879  0.9098
32144SOL    HW298971   5.151   7.267   0.228  0.1584  0.2244 -1.3749
32145SOL     OW98972   7.489   6.480   4.774  0.2775  0.5958 -0.0802
32145SOL    HW198973   7.505   6.480   4.868 -0.3584  1.1625  0.0356
32145SOL    HW298974   7.473   6.572   4.753 -0.4832  0.3475 -0.5880
32146SOL     OW98975   4.713   9.332   6.983  0.2146  0.0676 -0.2835
32146SOL    HW198976   4.754   9.284   7.055  2.3572  0.4747 -1.2163
32146SOL    HW298977   4.685   9.263   6.922 -0.6345 -0.2102  0.3950
32147SOL     OW98978   1.165   4.198   2.225  0.1175 -0.1252  0.2160
32147SOL    HW198979   1.129   4.249   2.153  0.3781  1.0480  0.8979
32147SOL    HW298980   1.249   4.241   2.245  0.2668 -0.7239  0.9057
32148SOL     OW98981  10.118   9.448   7.780 -0.8388 -0.1515 -0.2065
32148SOL    HW198982  10.104   9.465   7.873 -0.2955 -0.5398 -0.0508
32148SOL    HW298983  10.032   9.459   7.740 -0.8768  1.0537  0.1858
32149SOL     OW98984   5.410  10.140   3.165  0.1572 -0.2897  0.1292
32149SOL    HW198985   5.458  10.112   3.244  1.5685 -1.8822 -1.2468
32149SOL    HW298986   5.464  10.109   3.092 -2.3985 -1.0644 -1.4899
32150SOL     OW98987   1.074   9.856   8.463 -0.0516  0.2120 -0.4206
32150SOL    HW198988   1.078   9.781   8.522 -0.3994 -0.2983 -1.0417
32150SOL    HW298989   1.164   9.888   8.459  0.6693 -1.9210 -2.4068
32151SOL     OW98990   0.120   0.553   4.799 -0.1550 -0.0277  0.3449
32151SOL    HW198991   0.079   0.492   4.860  2.7293 -2.7652 -0.3216
32151SOL    HW298992   0.083   0.529   4.713 -1.8268  1.7016  0.5602
32152SOL     OW98993   0.155   5.739   8.054  0.1233  0.0079 -0.2430
32152SOL    HW198994   0.091   5.758   7.985  1.3529 -1.9235 -1.9629
32152SOL    HW298995   0.123   5.658   8.095 -0.5135  1.0519  1.4001
32153SOL     OW98996  10.183   3.973  10.019 -0.2335  0.3831  0.0859
32153SOL    HW198997  10.238   3.906   9.977  1.2001  1.9680 -0.6478
32153SOL    HW298998  10.149   3.930  10.098  2.9492 -0.3220  1.1508
32154SOL     OW98999   1.245   0.852   7.513  0.9188 -0.5852  0.0941
32154SOL    HW199000   1.263   0.945   7.522 -1.5798  0.1389 -1.8596
32154SOL    HW299001   1.252   0.834   7.420  0.1112 -2.0508  0.2839
32155SOL     OW99002   0.187   3.915   5.992 -0.3612 -0.1929  0.0985
32155SOL    HW199003   0.122   3.978   5.963  0.3278  0.1144 -0.8153
32155SOL    HW299004   0.231   3.957   6.066 -0.3203  0.1382 -0.1156
32156SOL     OW99005   2.655   9.862   0.717  0.2720  0.1092  0.5780
32156SOL    HW199006   2.607   9.945   0.721  1.0444  0.7852 -2.7647
32156SOL    HW299007   2.588   9.796   0.700 -0.0342  0.3925  0.6857
32157SOL     OW99008   1.692   7.968   7.034 -0.2671 -0.0773 -0.5850
32157SOL    HW199009   1.775   7.932   7.066  0.6597  0.5878 -2.1445
32157SOL    HW299010   1.692   7.945   6.941 -0.1741  2.9482 -1.3653
32158SOL     OW99011   3.003   0.967   6.011  0.0547  0.7170  0.1753
32158SOL    HW199012   2.934   1.017   6.055 -2.1352 -0.7712 -1.4382
32158SOL    HW299013   3.041   0.913   6.079 -0.6501  1.2526  0.9988
32159SOL     OW99014   2.118   0.284   5.543  0.0318  0.0380 -0.1253
32159SOL    HW199015   2.143   0.231   5.467  0.2395  2.0215 -1.4780
32159SOL    HW299016   2.078   0.362   5.506  0.6961  1.3352  1.8034
32160SOL     OW99017   2.932   3.467   5.368 -0.0707 -0.4876 -0.1315
32160SOL    HW199018   2.985   3.482   5.446  1.1514  0.0144 -1.0560
32160SOL    HW299019   2.975   3.395   5.323 -1.6485 -1.8152  0.4264
32161SOL     OW99020   1.602   4.122   6.790  0.2621  0.0755  0.5722
32161SOL    HW199021   1.677   4.142   6.734 -1.4546 -0.1322 -1.8975
32161SOL    HW299022   1.533   4.094   6.729 -1.2064 -1.6637  2.9237
32162SOL     OW99023   8.392   1.489   4.248  0.1847 -0.2455 -0.0963
32162SOL    HW199024   8.324   1.428   4.275 -0.2792  0.1989 -0.2671
32162SOL    HW299025   8.361   1.575   4.277  0.0007  0.1433 -1.4339
32163SOL     OW99026   0.697   7.543   2.968 -0.2783  0.5116 -0.7487
32163SOL    HW199027   0.689   7.624   2.917 -1.4881 -0.6498 -2.4318
32163SOL    HW299028   0.611   7.502   2.962  0.9619 -2.0275 -1.8668
32164SOL     OW99029   1.679   0.914   0.955  0.3891 -0.5475  0.3214
32164SOL    HW199030   1.692   0.820   0.971  2.2840 -0.6025 -1.3307
32164SOL    HW299031   1.752   0.939   0.898 -2.2465  1.0902 -2.4858
32165SOL     OW99032   3.801   0.874   3.617 -0.1430 -0.1156  0.6370
32165SOL    HW199033   3.750   0.941   3.571  0.1985 -0.6137 -0.4663
32165SOL    HW299034   3.740   0.801   3.629  0.5250 -1.0399 -1.4221
32166SOL     OW99035   2.402   8.122   9.359 -0.2806 -0.1337  0.1378
32166SOL    HW199036   2.398   8.070   9.439  0.1473  0.5568  0.6057
32166SOL    HW299037   2.405   8.212   9.389 -0.0745  0.1254 -0.6606
32167SOL     OW99038   2.314   5.175   6.106 -0.5822 -0.6631  0.1384
32167SOL    HW199039   2.280   5.206   6.022 -0.0574  1.1082  0.5647
32167SOL    HW299040   2.361   5.250   6.142  0.5393 -1.9066  1.2991
32168SOL     OW99041   2.697   2.809   1.036  0.4586  0.0004 -0.1162
32168SOL    HW199042   2.773   2.750   1.040 -0.5909 -1.2823  1.4228
32168SOL    HW299043   2.682   2.835   1.126 -1.8485 -0.9601 -0.1842
32169SOL     OW99044   2.863   8.418   8.592  0.4729 -0.2481 -0.1855
32169SOL    HW199045   2.828   8.372   8.516 -1.0860 -0.2233  0.4812
32169SOL    HW299046   2.785   8.455   8.634  1.4207  0.5480  0.8734
32170SOL     OW99047   6.348   3.229   4.038 -0.5260  0.2524  0.2596
32170SOL    HW199048   6.365   3.135   4.034  1.9849  0.6647  0.7017
32170SOL    HW299049   6.380   3.256   4.124 -1.3292  1.4964  0.1911
32171SOL     OW99050   3.215   1.111   5.025  0.2217  0.2812 -0.7546
32171SOL    HW199051   3.204   1.039   5.088  0.9162  0.1036 -0.8289
32171SOL    HW299052   3.246   1.068   4.945  1.6369  0.7743 -0.4831
32172SOL     OW99053   4.294   1.881   1.633 -0.3014  0.0558 -0.4911
32172SOL    HW199054   4.346   1.962   1.633  0.9590 -0.7243  1.0186
32172SOL    HW299055   4.314   1.839   1.550 -0.2909  0.8705 -0.9071
32173SOL     OW99056   6.871   2.180   5.129  0.1878 -1.0162  0.2147
32173SOL    HW199057   6.807   2.201   5.061  1.1530 -0.3073 -0.4853
32173SOL    HW299058   6.819   2.172   5.209 -0.8887 -1.3289 -0.4995
32174SOL     OW99059   4.032   9.803   3.130 -0.4453 -0.1652  0.3566
32174SOL    HW199060   4.008   9.818   3.039  4.4396 -0.0910 -1.1087
32174SOL    HW299061   4.032   9.708   3.140  1.3496 -0.2949 -0.5417
32175SOL     OW99062   6.858  10.177   7.833  0.1278 -0.1471 -0.2142
32175SOL    HW199063   6.902  10.259   7.853  0.3610 -0.4643  0.6125
32175SOL    HW299064   6.845  10.179   7.739 -1.5078  1.6415  0.0142
32176SOL     OW99065   4.443   9.699   7.386 -0.1223 -0.2610 -0.1462
32176SOL    HW199066   4.517   9.689   7.446  0.3911 -1.6115 -0.9754
32176SOL    HW299067   4.389   9.621   7.401 -0.0414 -0.5612 -1.3378
32177SOL     OW99068   1.068  10.117   3.692 -0.1423  0.6708 -0.1410
32177SOL    HW199069   1.057  10.043   3.752 -3.6347  1.1763 -0.0293
32177SOL    HW299070   1.098  10.188   3.748 -1.7808  0.6939  0.7378
32178SOL     OW99071   3.354   8.891   6.348 -0.5581  0.6484  0.1320
32178SOL    HW199072   3.334   8.982   6.369 -1.1034  0.6187 -0.2325
32178SOL    HW299073   3.427   8.869   6.405 -1.2116  0.9426  1.0995
32179SOL     OW99074   3.232   8.577   4.116 -0.0828 -0.1490 -0.3680
32179SOL    HW199075   3.301   8.515   4.095 -1.5679 -2.3423  1.0172
32179SOL    HW299076   3.163   8.560   4.052 -2.5939 -3.5173  2.9896
32180SOL     OW99077   8.836   7.985   7.271  0.1856  0.3773 -0.0104
32180SOL    HW199078   8.913   8.038   7.251  0.9253 -0.8373 -0.4949
32180SOL    HW299079   8.765   8.026   7.222  1.0044  0.2264 -1.3689
32181SOL     OW99080   0.315   9.771   8.623 -0.5372 -0.0217 -0.0732
32181SOL    HW199081   0.340   9.807   8.708  0.6743 -1.6211  0.2883
32181SOL    HW299082   0.233   9.815   8.600  0.3358  2.1123  0.8312
32182SOL     OW99083   4.619   2.803   0.466 -0.5095 -0.0319 -0.0954
32182SOL    HW199084   4.525   2.804   0.446 -1.2034  1.6072  2.9117
32182SOL    HW299085   4.646   2.895   0.455  0.9877 -0.6518 -1.8642
32183SOL     OW99086   9.675   0.319   3.829  0.1870 -0.0232  0.5326
32183SOL    HW199087   9.602   0.318   3.768  0.2442  0.9439  0.4418
32183SOL    HW299088   9.750   0.348   3.777  0.2317  0.8189  1.0595
32184SOL     OW99089   4.263   2.125   0.963  0.2148  0.9345  0.2703
32184SOL    HW199090   4.230   2.201   0.915 -1.4106  0.0293 -0.0633
32184SOL    HW299091   4.185   2.087   1.004  0.8236 -1.2779 -0.5826
32185SOL     OW99092   1.088   4.353   1.993  0.1941  0.0448  0.4847
32185SOL    HW199093   1.183   4.358   1.984  0.2051 -0.7306  0.2112
32185SOL    HW299094   1.056   4.325   1.907 -0.2064 -0.6405  0.8515
32186SOL     OW99095   0.868   3.449   7.501  0.0350  0.0307  0.0147
32186SOL    HW199096   0.862   3.354   7.500  0.4919 -0.0042  0.3319
32186SOL    HW299097   0.960   3.467   7.483 -0.5127  0.4743 -2.5614
32187SOL     OW99098   4.726   8.463   4.053 -0.2129  0.1878  0.4104
32187SOL    HW199099   4.787   8.393   4.030  0.8788  1.0146  0.7550
32187SOL    HW299100   4.732   8.525   3.981  0.1902  0.8156  0.9823
32188SOL     OW99101   6.527   2.186   9.989  0.2966 -0.5957 -0.1034
32188SOL    HW199102   6.458   2.185  10.056 -0.3418  0.0659 -0.7417
32188SOL    HW299103   6.543   2.093   9.970 -0.6627 -0.7479 -0.1915
32189SOL     OW99104   6.485   9.275   0.690 -0.7285  0.2428  0.4033
32189SOL    HW199105   6.571   9.233   0.685  0.5898  2.7574  0.9110
32189SOL    HW299106   6.480   9.328   0.611 -0.8333  1.8452  1.4582
32190SOL     OW99107   5.297   3.593   4.844  0.2115 -0.3419  0.3514
32190SOL    HW199108   5.276   3.584   4.937  0.8759  1.5000  0.7016
32190SOL    HW299109   5.222   3.640   4.807  0.2566 -0.4738  0.0949
32191SOL     OW99110   3.809   8.921   3.814 -0.1586 -0.1603 -0.4062
32191SOL    HW199111   3.888   8.896   3.862 -1.0251 -0.0359  1.1218
32191SOL    HW299112   3.787   8.844   3.762  0.8109 -0.2940 -0.6214
32192SOL     OW99113   9.465  10.091   9.617  0.3823 -0.3671  0.1662
32192SOL    HW199114   9.456  10.100   9.522  0.1340  0.5197  0.2683
32192SOL    HW299115   9.425  10.006   9.637 -0.5576 -0.0633 -0.3853
32193SOL     OW99116   5.553   7.676   7.346  0.1029  0.3136  0.0560
32193SOL    HW199117   5.498   7.598   7.356  0.4080  0.2486  1.3004
32193SOL    HW299118   5.526   7.734   7.417  1.0219  0.6497  0.1405
32194SOL     OW99119   6.711   1.880   6.862  0.4544 -0.0823  0.1870
32194SOL    HW199120   6.716   1.919   6.775  0.1828 -0.6588 -0.0919
32194SOL    HW299121   6.624   1.904   6.894  0.0355 -0.9948 -0.2480
32195SOL     OW99122   6.361   5.016   1.466  0.7830  0.2160 -0.0022
32195SOL    HW199123   6.276   5.032   1.508  0.7129 -2.5380  0.9844
32195SOL    HW299124   6.385   5.101   1.428 -2.3617  1.0597 -0.2416
32196SOL     OW99125   8.417   8.341   8.750 -0.1698 -0.3064  0.0658
32196SOL    HW199126   8.326   8.367   8.760 -0.8776 -2.1313 -1.3334
32196SOL    HW299127   8.457   8.357   8.835 -0.6506  4.7795 -0.5428
32197SOL     OW99128   8.103   9.658   0.052  0.0814  0.1523  0.0091
32197SOL    HW199129   8.024   9.653  -0.002  0.7488  0.9101 -1.0507
32197SOL    HW299130   8.080   9.612   0.133 -1.3827  0.2190 -0.3601
32198SOL     OW99131   2.399   3.257   5.981  0.2382 -0.9859  0.1726
32198SOL    HW199132   2.494   3.254   5.977  0.2409  0.1559 -0.7436
32198SOL    HW299133   2.369   3.224   5.896 -0.1444  0.2681 -0.1916
32199SOL     OW99134   4.461   9.022   7.366 -0.0907  0.3388  0.1432
32199SOL    HW199135   4.417   9.083   7.307 -1.5593 -0.2314  0.6352
32199SOL    HW299136   4.449   9.060   7.453 -1.3601 -0.8249  0.5009
32200SOL     OW99137   9.937   7.463   1.704 -0.1988 -0.0944 -0.1695
32200SOL    HW199138   9.945   7.437   1.796 -0.2869  0.7611  0.0790
32200SOL    HW299139   9.928   7.380   1.657  1.9455 -0.6610  0.3715
32201SOL     OW99140   1.826   7.848   1.794 -0.3236  0.5947 -0.0592
32201SOL    HW199141   1.836   7.858   1.888 -2.3679  4.3082 -0.1342
32201SOL    HW299142   1.746   7.796   1.784 -1.9688  2.9835  0.2941
32202SOL     OW99143   6.265   1.303   5.205  0.2431 -0.6490 -0.2233
32202SOL    HW199144   6.277   1.316   5.299  0.0492  0.8642 -0.3972
32202SOL    HW299145   6.171   1.308   5.192  0.2732 -0.8135 -0.5028
32203SOL     OW99146   7.894   7.362   2.534 -0.6351 -0.3225  0.0411
32203SOL    HW199147   7.858   7.336   2.619 -0.7632 -2.0302 -0.5225
32203SOL    HW299148   7.964   7.299   2.517 -0.7106 -0.0835 -1.1902
32204SOL     OW99149   4.893   3.256   1.263  0.4332 -0.1425 -0.5802
32204SOL    HW199150   4.945   3.259   1.344  1.4989  0.0839 -1.2520
32204SOL    HW299151   4.811   3.299   1.285  2.2311  3.4883 -0.6532
32205SOL     OW99152   2.312   4.547   7.259  0.0415 -0.0993 -0.1287
32205SOL    HW199153   2.397   4.512   7.287  0.1719  1.3113  1.2965
32205SOL    HW299154   2.333   4.608   7.189  0.2069  0.1414  0.1262
32206SOL     OW99155   1.535   1.507   7.200 -0.2025  0.5534 -0.3096
32206SOL    HW199156   1.501   1.575   7.258  4.0057  2.3416  0.2476
32206SOL    HW299157   1.535   1.547   7.113 -2.0984 -0.4435 -0.7838
32207SOL     OW99158   0.221   5.233   9.895 -0.3819 -0.1326  0.1049
32207SOL    HW199159   0.188   5.193   9.975  0.4991  0.0380  0.5636
32207SOL    HW299160   0.223   5.327   9.915  0.5101 -0.1524  0.1467
32208SOL     OW99161   1.088   1.232   4.894  0.1140  0.3705 -0.3022
32208SOL    HW199162   1.178   1.229   4.927 -0.1669  3.0832  0.8323
32208SOL    HW299163   1.082   1.158   4.834  3.4632  0.7898 -1.2445
32209SOL     OW99164   5.681   3.931   2.273 -0.1241 -0.0136 -0.0228
32209SOL    HW199165   5.703   3.972   2.189  2.1864 -0.7402  0.1940
32209SOL    HW299166   5.762   3.890   2.302 -0.9848 -0.0814  2.4269
32210SOL     OW99167   9.966   8.096   9.575 -0.1698 -0.4778  0.0123
32210SOL    HW199168   9.999   8.067   9.489 -0.6246  0.6866 -0.5669
32210SOL    HW299169  10.032   8.157   9.607  0.1959 -1.2185  0.6784
32211SOL     OW99170   8.117   4.738   2.015 -0.1459  0.0072 -0.4830
32211SOL    HW199171   8.064   4.796   1.959 -0.9465  0.0729  0.3250
32211SOL    HW299172   8.202   4.734   1.972 -0.3830  1.0275 -1.0603
32212SOL     OW99173   5.567   8.935   2.736  0.0377  0.4093  0.3512
32212SOL    HW199174   5.475   8.910   2.735  0.0088  0.5089  0.7304
32212SOL    HW299175   5.595   8.922   2.826  0.5779 -0.2923  0.0897
32213SOL     OW99176   9.136  10.138   2.768 -0.0073 -0.2013  0.3555
32213SOL    HW199177   9.106  10.226   2.790  1.0038  0.2217  0.0790
32213SOL    HW299178   9.226  10.150   2.739 -0.0912 -1.2417 -0.3676
32214SOL     OW99179   6.082   9.068   0.153  0.2882 -0.2506 -0.1686
32214SOL    HW199180   6.154   9.097   0.097  0.5509  0.2937  0.4529
32214SOL    HW299181   6.029   9.011   0.096 -0.4565  1.7433 -1.5159
32215SOL     OW99182   8.586   0.573   4.637 -0.0930  0.1303 -0.4762
32215SOL    HW199183   8.578   0.533   4.550 -1.1712 -1.5785  0.3917
32215SOL    HW299184   8.678   0.600   4.642  0.0122  0.1377 -2.1019
32216SOL     OW99185   4.821   8.055   3.892 -0.1299  0.1544 -0.1202
32216SOL    HW199186   4.756   8.116   3.858 -1.1228 -1.7338 -1.7556
32216SOL    HW299187   4.772   7.999   3.952  0.4947  0.2207  0.4490
32217SOL     OW99188   3.026   0.246   2.663 -0.0657  0.0824  0.0856
32217SOL    HW199189   3.113   0.207   2.655 -0.1867  0.0173 -0.9732
32217SOL    HW299190   3.033   0.329   2.616 -0.7957 -0.2888 -0.6847
32218SOL     OW99191   2.588   1.876   5.748  0.1070 -0.5030  0.6303
32218SOL    HW199192   2.574   1.895   5.841  1.0194  0.4454  0.5831
32218SOL    HW299193   2.503   1.889   5.707  0.3111  1.8388  0.8767
32219SOL     OW99194   7.561   5.707   7.616  0.2211 -0.3809 -0.0317
32219SOL    HW199195   7.477   5.666   7.594 -0.2898 -0.0849  1.3205
32219SOL    HW299196   7.627   5.650   7.576 -0.5464 -1.7975  0.6870
32220SOL     OW99197   8.743   3.983   7.743  0.1030 -0.0014 -0.4910
32220SOL    HW199198   8.680   4.033   7.796  1.8981  1.7612  0.0457
32220SOL    HW299199   8.769   3.910   7.799  1.8714  1.7652  1.0933
32221SOL     OW99200   1.350   4.056   7.291 -0.0673 -0.5930 -0.4390
32221SOL    HW199201   1.277   4.113   7.268 -0.2172 -0.2217  0.9232
32221SOL    HW299202   1.315   3.997   7.357  0.6854 -0.8453 -0.2554
32222SOL     OW99203   4.659   6.014   5.457  0.0140  0.1589  0.2437
32222SOL    HW199204   4.591   6.068   5.497  0.8983  0.5091  1.3115
32222SOL    HW299205   4.623   5.988   5.372 -1.3276  0.5680  0.6804
32223SOL     OW99206   9.069   6.028  10.162  0.3214 -0.1335 -0.2440
32223SOL    HW199207   9.035   6.117  10.175 -0.3567 -0.0037 -2.6949
32223SOL    HW299208   9.158   6.031  10.198  0.2528  1.4834 -0.1569
32224SOL     OW99209   1.444   9.144   7.137  0.5943  0.0099  0.3708
32224SOL    HW199210   1.389   9.154   7.215 -0.7180 -1.5170 -0.3432
32224SOL    HW299211   1.450   9.050   7.124  2.2636  0.1934 -0.3754
32225SOL     OW99212   8.000   3.110   7.695 -0.3770  0.0939 -0.1882
32225SOL    HW199213   8.013   3.021   7.661  0.9846 -0.6162  2.1023
32225SOL    HW299214   7.939   3.100   7.768  0.1745  0.9668  0.4086
32226SOL     OW99215   7.010   9.457   7.554 -0.1067 -0.1352  0.5154
32226SOL    HW199216   7.084   9.445   7.495 -0.9105 -0.3739 -0.4592
32226SOL    HW299217   7.016   9.549   7.581 -1.1310  0.6990 -1.9085
32227SOL     OW99218   0.257   6.048   5.263  0.3255 -0.3032  0.0505
32227SOL    HW199219   0.193   6.045   5.192  0.8888  1.6536 -0.5710
32227SOL    HW299220   0.325   5.985   5.237 -1.1314 -2.1345  0.5490
32228SOL     OW99221   2.139   8.744   0.264  0.1130 -0.3399 -0.0004
32228SOL    HW199222   2.180   8.685   0.327 -0.0905 -0.7556 -0.2615
32228SOL    HW299223   2.045   8.727   0.272  0.0472 -0.0090 -0.0321
32229SOL     OW99224   0.265   8.300   4.737  1.0386  0.0135  0.0701
32229SOL    HW199225   0.321   8.375   4.721 -0.5534  0.7897 -2.0521
32229SOL    HW299226   0.271   8.248   4.657  0.1007 -0.7938  0.5164
32230SOL     OW99227   3.728   8.080   5.753  0.3373  0.3028  0.0156
32230SOL    HW199228   3.713   8.161   5.704 -0.9450  0.4296  0.6073
32230SOL    HW299229   3.822   8.065   5.745  0.5911  1.8304 -0.1350
32231SOL     OW99230   7.451   1.499   0.289 -0.0618 -0.2628  0.4980
32231SOL    HW199231   7.397   1.527   0.215  1.1786 -0.5383 -0.5152
32231SOL    HW299232   7.398   1.522   0.366 -1.5290 -0.3342 -0.4646
32232SOL     OW99233   6.070   0.254   6.473 -0.0530 -0.3020  0.3655
32232SOL    HW199234   6.005   0.321   6.453 -0.1974 -1.1755 -2.2934
32232SOL    HW299235   6.139   0.300   6.521 -0.8667  1.4212 -0.1045
32233SOL     OW99236   2.828   5.091   2.106  0.1310 -0.1879 -0.4213
32233SOL    HW199237   2.869   5.174   2.085 -0.8651  0.8541  1.6007
32233SOL    HW299238   2.901   5.031   2.124  0.8241  0.6441 -0.4638
32234SOL     OW99239   3.844   3.488   4.042  0.0733  0.9517 -0.3201
32234SOL    HW199240   3.812   3.578   4.053 -0.2630  0.6249  1.4460
32234SOL    HW299241   3.767   3.433   4.056  0.9390  0.2564  1.7950
32235SOL     OW99242   8.204   5.443   3.683  0.3247  0.3675  0.2335
32235SOL    HW199243   8.288   5.418   3.722 -0.1676  0.2528  1.2202
32235SOL    HW299244   8.221   5.527   3.640  0.9641  0.2962  0.3457
32236SOL     OW99245   9.598   6.575   3.968  0.5079 -0.3134 -0.3172
32236SOL    HW199246   9.659   6.598   4.039  2.0379 -3.1658 -0.6612
32236SOL    HW299247   9.553   6.497   4.000 -1.2300  0.3386 -1.1212
32237SOL     OW99248   8.096   5.705   9.191  0.2872 -0.5329  0.1090
32237SOL    HW199249   8.002   5.721   9.186 -0.0680 -2.3173  0.8635
32237SOL    HW299250   8.112   5.680   9.281  1.5730  0.1612  0.0874
32238SOL     OW99251   7.099   9.571   2.648 -0.0175  0.0635 -0.1510
32238SOL    HW199252   7.155   9.509   2.695  1.7191  1.0266 -0.9007
32238SOL    HW299253   7.010   9.539   2.663  0.7610 -1.8284  0.5991
32239SOL     OW99254   9.281   0.796   9.498 -0.0834 -0.2203  0.0526
32239SOL    HW199255   9.204   0.754   9.459  0.0370 -0.3515 -0.0423
32239SOL    HW299256   9.262   0.799   9.592  0.3938 -1.5001  0.1892
32240SOL     OW99257   8.599   4.252   6.168 -0.2483  0.1586 -0.0479
32240SOL    HW199258   8.601   4.190   6.241  1.2116  1.8903  1.4236
32240SOL    HW299259   8.690   4.258   6.139 -0.3920  1.5257 -0.2359
32241SOL     OW99260   7.951   2.825   4.057  0.4032  0.0118  0.0154
32241SOL    HW199261   7.956   2.733   4.031 -0.8391  0.2274 -1.0238
32241SOL    HW299262   7.994   2.872   3.985 -3.5526  0.6645 -2.0088
32242SOL     OW99263   0.078   7.661   6.351  0.3457  0.0899  0.4609
32242SOL    HW199264   0.111   7.615   6.274  1.1970 -1.1117  1.5243
32242SOL    HW299265   0.126   7.744   6.351  1.1401 -0.3645  0.3092
32243SOL     OW99266   1.171   7.565   4.521 -0.2331 -0.1087 -0.0285
32243SOL    HW199267   1.220   7.496   4.566  0.4432 -1.9473 -3.3923
32243SOL    HW299268   1.236   7.607   4.465 -1.3225  1.2205 -0.3138
32244SOL     OW99269   2.255   9.698   4.632  0.2872  0.3533 -1.0315
32244SOL    HW199270   2.275   9.609   4.603 -0.2659  0.6188 -2.2559
32244SOL    HW299271   2.197   9.686   4.708  0.0063 -0.3312 -1.3482
32245SOL     OW99272   4.635   1.866   9.981  0.1162 -0.2075 -0.1158
32245SOL    HW199273   4.652   1.868  10.075 -1.5179 -1.6845  0.2280
32245SOL    HW299274   4.542   1.884   9.973  0.3812  0.6144 -1.5137
32246SOL     OW99275   1.479   4.923   7.652 -0.0884 -0.4387 -0.1328
32246SOL    HW199276   1.564   4.953   7.618 -0.2456  1.0343  0.7190
32246SOL    HW299277   1.427   4.905   7.574  1.5143 -2.9383 -0.6988
32247SOL     OW99278   6.248   2.339   9.399 -0.1593  0.8020  0.2810
32247SOL    HW199279   6.283   2.398   9.332 -1.2516  2.1364  0.8643
32247SOL    HW299280   6.230   2.395   9.474 -0.8614 -0.3432  0.9928
32248SOL     OW99281   6.662   1.865  10.129 -0.7436  0.0978 -0.1921
32248SOL    HW199282   6.743   1.911  10.107 -0.0033 -1.0716  0.0596
32248SOL    HW299283   6.617   1.923  10.189  2.2583 -1.3701  3.7188
32249SOL     OW99284   8.526   1.005   7.927  0.3489  0.8124  0.6331
32249SOL    HW199285   8.605   1.030   7.879  1.0013  1.2578  1.9049
32249SOL    HW299286   8.543   0.915   7.956 -0.1736  0.4333 -0.2272
32250SOL     OW99287   8.101   6.337   6.269  0.0186 -0.5454  0.1684
32250SOL    HW199288   8.186   6.382   6.260 -0.4694  0.5035  0.6907
32250SOL    HW299289   8.082   6.341   6.363 -0.8602 -0.2941 -0.0173
32251SOL     OW99290   8.270   7.835   4.485  0.2926  0.9936 -0.2203
32251SOL    HW199291   8.362   7.846   4.508  0.2473 -1.5933  1.5005
32251SOL    HW299292   8.271   7.790   4.401  0.6513 -0.1333  0.3744
32252SOL     OW99293   1.307   8.655   9.075 -0.1504 -0.2702  1.0876
32252SOL    HW199294   1.330   8.748   9.073 -0.1292 -0.2836 -0.6463
32252SOL    HW299295   1.247   8.643   9.001  0.1754 -1.7089  1.0324
32253SOL     OW99296   5.588   4.780   2.970 -0.1739  0.3366 -0.4349
32253SOL    HW199297   5.653   4.717   2.939  0.0905 -0.1765  1.1073
32253SOL    HW299298   5.623   4.865   2.943  1.6224  0.1464  1.1153
32254SOL     OW99299   1.022   7.664  10.034  0.7320 -0.3799 -0.1274
32254SOL    HW199300   1.046   7.594   9.974 -1.0910 -1.2964  0.1758
32254SOL    HW299301   0.942   7.633  10.077  0.7806  1.1951  1.1762
32255SOL     OW99302   2.570   4.366   8.467  0.0652 -0.0553  0.1764
32255SOL    HW199303   2.557   4.289   8.411  1.5404 -0.0938 -0.1290
32255SOL    HW299304   2.495   4.365   8.526  0.0465 -1.7078  0.1502
32256SOL     OW99305   5.542   2.266   0.910 -0.0278  0.1319  0.0089
32256SOL    HW199306   5.511   2.186   0.869  0.8069 -0.0396 -0.2870
32256SOL    HW299307   5.599   2.307   0.845 -0.6469  1.0986  0.0567
32257SOL     OW99308   5.759   0.980   9.747  0.0813 -0.6738 -0.4118
32257SOL    HW199309   5.745   1.029   9.666 -0.0161 -0.7551 -0.4448
32257SOL    HW299310   5.779   0.891   9.718 -3.3291 -1.5486 -0.2637
32258SOL     OW99311   2.588   2.104   4.901 -0.4231  0.1990  0.0575
32258SOL    HW199312   2.627   2.099   4.988 -0.4649  0.2335  0.0784
32258SOL    HW299313   2.662   2.118   4.842 -0.4369  0.6118  0.1326
32259SOL     OW99314   7.193   8.943   0.480 -0.5668  0.4702  0.1548
32259SOL    HW199315   7.228   8.854   0.481  1.1454  1.1235  1.5081
32259SOL    HW299316   7.185   8.965   0.387  0.4724 -0.5215 -0.1748
32260SOL     OW99317   2.019   1.159   5.406  0.7577  0.7281 -0.0672
32260SOL    HW199318   2.072   1.081   5.421  0.5270  0.9002  1.7530
32260SOL    HW299319   2.081   1.225   5.373  1.0410 -0.0560 -1.1269
32261SOL     OW99320   1.716   5.872   6.781  0.0145  0.8455 -0.0816
32261SOL    HW199321   1.640   5.831   6.740  0.7269  0.0386 -0.6166
32261SOL    HW299322   1.731   5.820   6.860 -0.1673  1.1884  0.1800
32262SOL     OW99323   3.247   8.064   3.906  0.9941  0.0062  0.4301
32262SOL    HW199324   3.309   8.096   3.971  1.7886  0.0073 -0.3119
32262SOL    HW299325   3.294   7.993   3.861 -0.1588 -1.1214  0.9785
32263SOL     OW99326   9.294   0.684   1.264 -0.8139  0.2959  0.1131
32263SOL    HW199327   9.303   0.672   1.359  0.7517  0.5837  0.0141
32263SOL    HW299328   9.315   0.598   1.227 -2.2577 -0.0465  0.0548
32264SOL     OW99329   3.479   3.549   2.493  0.6668 -0.5779  0.2169
32264SOL    HW199330   3.500   3.592   2.576  2.0504 -0.2067 -0.3097
32264SOL    HW299331   3.561   3.506   2.467 -0.1094 -1.7673 -0.3180
32265SOL     OW99332   1.455   3.175   8.473 -0.5164  0.5539 -0.2732
32265SOL    HW199333   1.551   3.171   8.472 -0.5730 -1.1527 -0.8301
32265SOL    HW299334   1.435   3.233   8.546  0.9438  0.4290  0.2636
32266SOL     OW99335   8.176   9.012   3.729  0.3685 -0.4634 -0.3634
32266SOL    HW199336   8.121   8.948   3.683 -1.3805  1.3000 -0.7900
32266SOL    HW299337   8.135   9.096   3.710  3.5506  0.9774 -1.1307
32267SOL     OW99338   4.907   0.129   6.916 -0.0845  0.4962  0.0220
32267SOL    HW199339   4.988   0.132   6.865 -1.9818 -1.3820 -3.2873
32267SOL    HW299340   4.872   0.218   6.909 -0.3624  0.2340 -2.0755
32268SOL     OW99341   0.619   6.784   6.641 -0.4013 -0.3827 -0.1404
32268SOL    HW199342   0.695   6.736   6.607 -0.7698 -2.1571  1.4629
32268SOL    HW299343   0.600   6.742   6.725 -1.7156  1.5764  0.5704
32269SOL     OW99344   3.387   1.794   1.741 -0.2148 -0.3254  0.4428
32269SOL    HW199345   3.316   1.774   1.802 -0.4170  0.5014  0.4927
32269SOL    HW299346   3.367   1.883   1.710  0.8775 -0.0304  0.5820
32270SOL     OW99347   7.394   7.410   0.920 -0.2685 -0.5806 -0.2628
32270SOL    HW199348   7.403   7.438   1.011 -0.4086  0.5117 -0.5854
32270SOL    HW299349   7.484   7.409   0.886 -0.3342  0.1647 -0.4569
32271SOL     OW99350   3.218   3.248   6.637 -1.1103 -0.5760  0.4283
32271SOL    HW199351   3.250   3.304   6.567 -0.4673 -1.7885 -0.2684
32271SOL    HW299352   3.251   3.288   6.717 -0.2430 -0.2302 -0.0938
32272SOL     OW99353   0.083   1.426  10.030  0.1093 -0.2806  0.2871
32272SOL    HW199354   0.114   1.481  10.102 -2.7524  0.5349  0.9479
32272SOL    HW299355   0.028   1.360  10.071 -0.2669 -0.7800 -0.9916
32273SOL     OW99356   5.393   7.497   7.054 -0.4497 -0.5789 -0.1215
32273SOL    HW199357   5.328   7.437   7.092  0.0265 -1.9029 -1.3672
32273SOL    HW299358   5.356   7.584   7.068 -2.3231 -1.2930 -0.4592
32274SOL     OW99359   6.985   4.902   8.936  0.3573 -0.3268 -0.1385
32274SOL    HW199360   6.955   4.992   8.929  0.5568 -0.3580 -1.5651
32274SOL    HW299361   7.072   4.909   8.977  0.5517  0.1658 -0.6285
32275SOL     OW99362   8.621   0.120   5.913 -0.7367 -0.1614  0.2126
32275SOL    HW199363   8.614   0.198   5.967  0.4702 -0.9316  1.5253
32275SOL    HW299364   8.669   0.149   5.835 -1.1641  0.6230  0.2357
32276SOL     OW99365   1.053   0.188   3.432  0.1063 -0.2345  0.0669
32276SOL    HW199366   1.047   0.178   3.527  1.6101 -1.3460  0.0717
32276SOL    HW299367   0.966   0.163   3.400  0.0361 -1.2847  1.0467
32277SOL     OW99368   5.098   1.337   0.164 -0.1801  1.3140 -0.0786
32277SOL    HW199369   5.012   1.331   0.123  0.5717 -0.1877 -1.4508
32277SOL    HW299370   5.160   1.336   0.091  1.1501 -0.8378  1.0407
32278SOL     OW99371   5.680   5.342   7.659  0.6046  0.4615 -0.0054
32278SOL    HW199372   5.727   5.287   7.596 -0.8289 -0.1372 -0.5851
32278SOL    HW299373   5.713   5.313   7.744  1.1952 -0.0394 -0.3954
32279SOL     OW99374   8.616   2.211   4.283  0.5932 -0.0914 -0.0160
32279SOL    HW199375   8.654   2.212   4.195  1.1191  0.9512  0.2104
32279SOL    HW299376   8.675   2.265   4.335  1.0352 -1.8020  1.3144
32280SOL     OW99377   1.138   0.377   3.266  0.5611  0.1700 -1.3215
32280SOL    HW199378   1.222   0.358   3.308  1.0054 -0.1376 -2.3275
32280SOL    HW299379   1.076   0.319   3.309  1.2504 -1.0346 -1.9240
32281SOL     OW99380   7.075   9.598   6.253  0.1836  0.4481  0.1560
32281SOL    HW199381   7.160   9.634   6.277  0.6213  0.8083 -1.8587
32281SOL    HW299382   7.012   9.659   6.291  0.8289  0.5778  1.0339
32282SOL     OW99383   6.105  10.047   0.638 -0.4838 -0.8148  0.1275
32282SOL    HW199384   6.179  10.067   0.696  0.6536 -1.8294 -0.9563
32282SOL    HW299385   6.048   9.991   0.691 -0.5604  0.0857  1.0144
32283SOL     OW99386   3.500   6.817   8.322 -0.3362  0.3561  0.2952
32283SOL    HW199387   3.558   6.883   8.361 -0.0322  0.3492 -0.1429
32283SOL    HW299388   3.438   6.795   8.392  1.5110 -1.2087  1.5159
32284SOL     OW99389   2.485   2.654   4.419  0.5728 -0.7059  0.2846
32284SOL    HW199390   2.580   2.661   4.412  0.2904  3.1387 -0.5852
32284SOL    HW299391   2.457   2.740   4.448 -2.6819 -1.7602  0.4029
32285SOL     OW99392  10.017   3.563   8.689 -0.2350  0.3170  0.0614
32285SOL    HW199393  10.055   3.496   8.631  0.6697  0.2668  0.6922
32285SOL    HW299394   9.965   3.513   8.752 -1.8639  0.4286 -1.1637
32286SOL     OW99395   4.476   8.516   0.989  0.2780 -0.2472  0.3713
32286SOL    HW199396   4.401   8.464   1.019 -0.1896  0.6084  0.7156
32286SOL    HW299397   4.541   8.451   0.961 -0.3580 -1.0088  0.6348
32287SOL     OW99398   5.823   9.892   1.381  0.1210 -0.0582  0.2344
32287SOL    HW199399   5.826   9.987   1.398  2.6033 -0.3163  1.3875
32287SOL    HW299400   5.841   9.884   1.288  0.8225  0.5597  0.3127
32288SOL     OW99401   1.450   4.831  10.080 -0.2701  0.0762 -0.0074
32288SOL    HW199402   1.545   4.833  10.097  0.0059 -1.1180 -1.2947
32288SOL    HW299403   1.444   4.815   9.986 -1.7579  0.7063 -0.0174
32289SOL     OW99404   2.576   4.830   3.241 -0.2635 -0.1825  0.1898
32289SOL    HW199405   2.620   4.769   3.182 -0.3786 -1.7123  1.6373
32289SOL    HW299406   2.488   4.840   3.205 -0.1872 -0.7515 -0.1515
32290SOL     OW99407   4.412   6.286   1.137 -0.1351 -0.3046  0.1429
32290SOL    HW199408   4.445   6.198   1.118  0.3774 -0.0789 -0.0065
32290SOL    HW299409   4.382   6.282   1.228  1.6958 -0.0874  0.7709
32291SOL     OW99410   8.035   3.642   2.078  0.2875  0.3506 -0.5659
32291SOL    HW199411   8.023   3.737   2.076  2.1612  0.5919 -0.9396
32291SOL    HW299412   7.974   3.609   2.012  0.1164  1.3535 -0.9176
32292SOL     OW99413   5.378   3.942   0.706  0.1609 -0.2888  0.0582
32292SOL    HW199414   5.353   3.956   0.797  0.0416  1.4333 -0.2170
32292SOL    HW299415   5.295   3.935   0.659  0.1918  1.5393 -0.2956
32293SOL     OW99416   7.530   1.793   9.287  0.0163  0.0840 -0.4379
32293SOL    HW199417   7.574   1.806   9.371  0.6740  0.0038 -0.7673
32293SOL    HW299418   7.563   1.709   9.255 -0.0702  0.2181 -0.8793
32294SOL     OW99419   2.961   8.054   2.851 -0.4531 -0.1836 -0.0628
32294SOL    HW199420   2.933   8.142   2.825  1.7387  0.6960  0.4378
32294SOL    HW299421   2.962   8.057   2.947  1.4289 -0.1435 -0.0682
32295SOL     OW99422   1.144   4.049   3.314  0.3366  0.1716  0.5621
32295SOL    HW199423   1.138   4.024   3.221 -1.1500  2.5172  0.0014
32295SOL    HW299424   1.203   3.984   3.352  3.1772  0.7564 -2.6103
32296SOL     OW99425   1.220   9.878   3.054 -0.9876 -0.4297  0.1869
32296SOL    HW199426   1.137   9.855   3.013 -1.4202 -0.1587  0.8943
32296SOL    HW299427   1.215   9.973   3.067 -0.9882 -0.5499  1.1270
32297SOL     OW99428   3.378   7.754   9.504  0.2499 -0.0133 -0.0287
32297SOL    HW199429   3.465   7.780   9.534  0.6488 -0.1124 -1.0921
32297SOL    HW299430   3.393   7.708   9.421 -0.7097 -1.0544  0.3576
32298SOL     OW99431   4.273   6.592   7.266  0.2370  0.1137 -0.7214
32298SOL    HW199432   4.265   6.613   7.359 -2.1384  0.9650 -1.0972
32298SOL    HW299433   4.309   6.503   7.265  2.8283  1.0678  0.9429
32299SOL     OW99434   6.687   3.277   3.988 -0.0044 -0.2199  0.3390
32299SOL    HW199435   6.686   3.222   4.067 -0.5423  0.5780  0.9031
32299SOL    HW299436   6.686   3.215   3.915 -0.2132 -0.9665  0.9680
32300SOL     OW99437   7.439   9.547   8.055  0.3066 -0.2343 -0.2054
32300SOL    HW199438   7.519   9.595   8.074  1.4650 -3.0005  2.2604
32300SOL    HW299439   7.399   9.532   8.141 -2.1496 -0.1336 -1.2808
32301SOL     OW99440   6.417   4.848   6.413  0.2241  0.5290 -0.3515
32301SOL    HW199441   6.425   4.843   6.317  2.1606  0.0457 -0.1985
32301SOL    HW299442   6.415   4.756   6.441  1.3021  0.6547  0.1713
32302SOL     OW99443   3.261   8.692   8.172  0.0227  0.2079  0.4103
32302SOL    HW199444   3.214   8.775   8.167  0.6021  0.6006  1.2939
32302SOL    HW299445   3.333   8.701   8.109  1.7208  1.4652  2.4597
32303SOL     OW99446   6.135   8.572   4.733 -0.6498 -0.0475  0.1100
32303SOL    HW199447   6.080   8.624   4.674  0.6005  1.3006  0.1137
32303SOL    HW299448   6.221   8.613   4.729  0.5258 -2.4312 -0.2551
32304SOL     OW99449   2.571   0.937   9.944  0.3041  0.7246 -0.2396
32304SOL    HW199450   2.510   1.003   9.912  0.9863  2.0848  1.1779
32304SOL    HW299451   2.533   0.907  10.026  1.7813  1.9956  0.9458
32305SOL     OW99452   1.233   9.509   7.092  0.1651  0.0151  0.7608
32305SOL    HW199453   1.171   9.554   7.034 -0.0196 -0.6122  0.4704
32305SOL    HW299454   1.179   9.445   7.139  0.8225 -1.4127 -0.4130
32306SOL     OW99455   9.425   6.738   9.055 -0.1090 -0.4009  0.1351
32306SOL    HW199456   9.476   6.657   9.061 -0.2734 -0.4688  0.6247
32306SOL    HW299457   9.443   6.784   9.137 -0.0144  0.0651 -0.1400
32307SOL     OW99458   7.265   6.228   9.801  0.2997  0.1871 -0.7487
32307SOL    HW199459   7.341   6.275   9.834  0.5754 -1.3986  1.0084
32307SOL    HW299460   7.208   6.296   9.766  1.2524  1.6870  0.5437
32308SOL     OW99461   9.518   1.211   3.678  0.1453  0.8585  0.2020
32308SOL    HW199462   9.569   1.156   3.737  0.1044  0.2385 -0.3279
32308SOL    HW299463   9.430   1.172   3.679  0.2473  0.6030 -0.5712
32309SOL     OW99464   4.225   1.637   2.516 -0.3583  0.4382 -0.3150
32309SOL    HW199465   4.201   1.677   2.433  2.9102 -0.5572 -1.8288
32309SOL    HW299466   4.258   1.709   2.569 -1.5386  0.9127 -0.1954
32310SOL     OW99467   6.284   6.304   7.415 -0.3572 -0.3453 -0.0921
32310SOL    HW199468   6.365   6.259   7.438 -0.9077 -1.3824 -0.1270
32310SOL    HW299469   6.253   6.260   7.336 -1.5668 -0.7723  0.5957
32311SOL     OW99470   3.497   3.947   7.854 -0.3412  0.1547 -0.2717
32311SOL    HW199471   3.501   3.854   7.828  1.7890  0.1588 -0.0300
32311SOL    HW299472   3.588   3.977   7.848 -0.8250  1.8886  0.9295
32312SOL     OW99473   7.826   0.904   7.587 -0.6083 -1.4694 -0.7160
32312SOL    HW199474   7.836   0.911   7.681  1.1422 -2.5477 -0.8112
32312SOL    HW299475   7.756   0.966   7.566 -0.1934 -0.3501  1.1137
32313SOL     OW99476   0.253   2.843   4.782  0.4102 -0.4742 -0.2417
32313SOL    HW199477   0.344   2.832   4.809 -0.1781 -1.5263  1.4385
32313SOL    HW299478   0.244   2.936   4.761  1.2900  0.0833  1.7914
32314SOL     OW99479   7.559   3.501   0.242 -0.1377 -0.2465  0.1888
32314SOL    HW199480   7.479   3.483   0.291  0.1144 -1.8417  0.0231
32314SOL    HW299481   7.629   3.478   0.302  0.2338  1.9469  0.6383
32315SOL     OW99482   1.456   5.432   9.781 -0.1819  1.0324  0.1944
32315SOL    HW199483   1.446   5.380   9.861 -1.7487  1.3973  0.2669
32315SOL    HW299484   1.475   5.521   9.813  0.3842  0.9302  0.1352
32316SOL     OW99485   2.056   8.967   7.910  0.1668  0.1329 -0.1648
32316SOL    HW199486   1.961   8.963   7.907  0.0944  1.5520 -0.4223
32316SOL    HW299487   2.085   8.884   7.874 -0.9741 -0.1213 -0.5247
32317SOL     OW99488   8.373   9.452   5.304  0.1902 -0.2481 -0.0623
32317SOL    HW199489   8.321   9.426   5.381  0.2690  2.2738  0.8774
32317SOL    HW299490   8.462   9.461   5.337  0.2345  0.7919 -0.4393
32318SOL     OW99491   6.287   2.365   6.476  0.1159 -0.4330  0.2060
32318SOL    HW199492   6.249   2.355   6.389 -0.4749 -0.9911  0.5185
32318SOL    HW299493   6.229   2.314   6.533  0.7437 -0.4323  0.8544
32319SOL     OW99494   6.873   3.157   5.847 -0.3694  0.1647  0.7299
32319SOL    HW199495   6.949   3.211   5.870  0.7202 -1.2141  0.4375
32319SOL    HW299496   6.799   3.201   5.889  0.7881  0.7666  2.1967
32320SOL     OW99497   4.834   2.381   4.003  0.2510 -0.6599 -0.8817
32320SOL    HW199498   4.913   2.329   4.016  1.1217  1.0114  0.7606
32320SOL    HW299499   4.810   2.410   4.091  0.0532  2.0667 -1.7835
32321SOL     OW99500   5.192   7.488   5.270 -0.0476  0.3107 -0.4923
32321SOL    HW199501   5.104   7.456   5.251 -0.3841  0.4680  0.8181
32321SOL    HW299502   5.186   7.583   5.259  0.4627  0.1668 -2.3598
32322SOL     OW99503   3.669   0.363   7.988 -0.9526 -0.0919 -0.2196
32322SOL    HW199504   3.628   0.444   7.959  0.3779  0.6992  0.0642
32322SOL    HW299505   3.695   0.318   7.907 -0.5025  0.4037 -0.3541
32323SOL     OW99506   9.262   6.444   6.808 -0.4988 -0.0923  0.0074
32323SOL    HW199507   9.271   6.386   6.883 -3.3609  2.2605  2.3012
32323SOL    HW299508   9.184   6.414   6.762 -0.6070  0.4485 -0.1725
32324SOL     OW99509   2.459   9.072   9.412  0.2324 -0.0499  0.2726
32324SOL    HW199510   2.384   9.128   9.394  0.6582  0.8403  1.2285
32324SOL    HW299511   2.498   9.055   9.326  0.1328  1.1592 -0.0154
32325SOL     OW99512   6.330  10.127   0.239 -0.3736 -0.0920 -0.3196
32325SOL    HW199513   6.419  10.147   0.212  0.1672 -2.0768 -0.0961
32325SOL    HW299514   6.274  10.169   0.174  0.7291  0.8876 -0.6357
32326SOL     OW99515   1.437   4.689   5.567  0.1905  0.2262 -0.1653
32326SOL    HW199516   1.347   4.714   5.548 -0.2534 -0.0827  1.4542
32326SOL    HW299517   1.490   4.760   5.529 -0.9149  2.2482  1.9106
32327SOL     OW99518   8.182   5.783   6.316  0.2832 -0.3648 -0.5475
32327SOL    HW199519   8.107   5.819   6.363  0.9783 -1.1940  1.2229
32327SOL    HW299520   8.142   5.733   6.245 -0.7837  0.6753 -0.7138
32328SOL     OW99521   8.803  10.087   1.718 -0.0182 -0.1900 -0.1182
32328SOL    HW199522   8.868  10.050   1.659 -0.5090 -2.0271  0.4801
32328SOL    HW299523   8.790  10.020   1.785  0.4100  1.7709  2.0040
32329SOL     OW99524   7.398   8.647   2.738  0.2926 -0.2328 -0.5172
32329SOL    HW199525   7.366   8.560   2.762 -0.5241 -0.0254 -0.8615
32329SOL    HW299526   7.333   8.682   2.677  0.7343  0.5302 -0.5695
32330SOL     OW99527   7.511   7.780   2.393 -0.6432 -0.2459  0.3153
32330SOL    HW199528   7.503   7.874   2.375 -1.3496  0.0181  1.9490
32330SOL    HW299529   7.473   7.738   2.316  0.2234  0.7849 -0.7051
32331SOL     OW99530   0.293   1.173   1.261  0.0011  0.0092  0.1543
32331SOL    HW199531   0.219   1.231   1.279 -1.5652 -1.9041  0.0708
32331SOL    HW299532   0.265   1.120   1.186  0.4355 -2.4624  1.6821
32332SOL     OW99533   5.483   6.857   4.519  0.2631  0.5099 -0.4653
32332SOL    HW199534   5.468   6.797   4.446 -2.7059  0.1716  0.3739
32332SOL    HW299535   5.424   6.930   4.502 -1.4685 -0.1898  2.2434
32333SOL     OW99536   8.571   2.385   5.858 -0.3605  0.5185 -0.1888
32333SOL    HW199537   8.598   2.303   5.901  0.2056  1.3392  1.0590
32333SOL    HW299538   8.510   2.357   5.790  3.2626 -1.3617 -2.8304
32334SOL     OW99539   8.320   5.330   7.707 -0.3772 -0.1886  0.4886
32334SOL    HW199540   8.279   5.304   7.790 -0.4782 -1.1310  0.1590
32334SOL    HW299541   8.411   5.301   7.716 -0.4289 -0.4335  0.2055
32335SOL     OW99542   3.922   6.720   4.460 -0.1324  0.2050  0.2192
32335SOL    HW199543   3.919   6.644   4.402 -1.4611  0.1033  0.3990
32335SOL    HW299544   3.874   6.693   4.538  2.0496  0.1902  1.5859
32336SOL     OW99545   8.476   7.993   9.969  0.0527  0.4531 -0.1594
32336SOL    HW199546   8.433   7.933   9.907 -1.8648 -0.1495  1.7228
32336SOL    HW299547   8.489   7.940  10.048 -1.0087  2.3143  1.2819
32337SOL     OW99548   6.174   4.291   1.383  0.1112  0.1968  0.3361
32337SOL    HW199549   6.239   4.245   1.331 -0.4974  0.4496 -0.6597
32337SOL    HW299550   6.144   4.363   1.327 -0.6610  0.3880  0.9719
32338SOL     OW99551   9.309   0.582   7.113  0.0922 -0.0232  0.0618
32338SOL    HW199552   9.367   0.640   7.162  1.0984 -1.8860  1.0925
32338SOL    HW299553   9.348   0.577   7.026 -0.0732  0.9156 -0.0774
32339SOL     OW99554   6.776   6.264   3.881 -0.4896  0.0595  0.2759
32339SOL    HW199555   6.766   6.312   3.963 -1.9312  0.6640 -0.2440
32339SOL    HW299556   6.687   6.257   3.846  0.3081  1.5351 -2.2013
32340SOL     OW99557   9.653   2.290   7.280  0.3557  0.0061 -0.4271
32340SOL    HW199558   9.609   2.264   7.362 -0.8744  0.0534 -1.0579
32340SOL    HW299559   9.744   2.264   7.293  0.3798  0.8487  1.3341
32341SOL     OW99560   0.424   6.375   9.126  0.4056  0.5375  0.2481
32341SOL    HW199561   0.398   6.464   9.101 -0.9267 -0.2029 -1.0633
32341SOL    HW299562   0.516   6.370   9.102  0.1180  1.1010 -1.0009
32342SOL     OW99563   7.407   4.599   3.415 -0.2672 -0.8508  0.9117
32342SOL    HW199564   7.480   4.543   3.389 -0.7045 -1.0036 -0.0271
32342SOL    HW299565   7.345   4.539   3.457 -1.6821 -1.5247 -1.9565
32343SOL     OW99566   5.302   8.354   0.837  0.1994 -0.2180  0.7314
32343SOL    HW199567   5.215   8.334   0.871  0.1349 -1.6211 -0.2121
32343SOL    HW299568   5.324   8.278   0.782  1.6143  0.5549  0.2150
32344SOL     OW99569   9.713  10.105   4.507 -0.1699  0.0724 -0.2113
32344SOL    HW199570   9.789  10.112   4.450 -1.3064 -1.0488 -1.9196
32344SOL    HW299571   9.639  10.133   4.452 -1.3079 -1.1753  0.6432
32345SOL     OW99572   0.542   6.658   7.882 -0.2608 -0.2913 -0.1876
32345SOL    HW199573   0.618   6.632   7.831 -0.4490 -1.4764  0.1199
32345SOL    HW299574   0.476   6.591   7.863 -1.0636  0.4409 -0.0586
32346SOL     OW99575   2.663  10.152   2.737  0.0717 -0.2282  0.5138
32346SOL    HW199576   2.626  10.136   2.650  0.7387 -0.2858  0.2395
32346SOL    HW299577   2.755  10.173   2.720  0.3096 -0.6857  1.2439
32347SOL     OW99578   7.118   8.415   5.168  0.0539  0.5242 -0.4598
32347SOL    HW199579   7.029   8.430   5.136 -0.3910 -0.7444  0.1643
32347SOL    HW299580   7.174   8.438   5.094 -0.9136 -1.5672 -1.8921
32348SOL     OW99581   1.080   0.466   6.652 -0.3545  0.0852  0.1658
32348SOL    HW199582   1.115   0.389   6.697  0.6609  1.1660  1.2897
32348SOL    HW299583   1.062   0.528   6.723 -0.8284  1.0042 -0.7543
32349SOL     OW99584   7.497   5.530   8.723 -0.0654 -0.0667  0.6232
32349SOL    HW199585   7.571   5.572   8.680  1.1568 -0.9645  1.7923
32349SOL    HW299586   7.434   5.513   8.653  0.7138  0.9358 -0.3384
32350SOL     OW99587   8.433   8.899   8.162 -0.0938  0.4272  0.4215
32350SOL    HW199588   8.526   8.918   8.148 -0.0325 -0.2085 -0.0998
32350SOL    HW299589   8.389   8.942   8.089  0.0793 -1.6733 -0.9732
32351SOL     OW99590   6.920   4.956   6.759 -0.7007 -0.1904  0.0051
32351SOL    HW199591   6.972   4.891   6.712 -0.0840  0.3125 -0.0295
32351SOL    HW299592   6.877   5.006   6.689 -0.1390  0.2700 -0.0174
32352SOL     OW99593   7.477   1.560   5.034 -0.2306 -0.1114 -0.3384
32352SOL    HW199594   7.557   1.527   5.076  0.1697  0.6656 -0.4657
32352SOL    HW299595   7.449   1.489   4.975  1.0757  0.0870 -1.2318
32353SOL     OW99596   4.066   0.570   5.245 -0.1955  0.3630  0.4321
32353SOL    HW199597   4.020   0.575   5.329 -0.3390 -0.4089  0.4075
32353SOL    HW299598   4.157   0.591   5.267 -0.3284  0.6747  0.6920
32354SOL     OW99599   9.198   1.575   0.412  0.0153 -0.1418  0.5836
32354SOL    HW199600   9.245   1.586   0.329 -0.3042 -2.3057  0.0846
32354SOL    HW299601   9.111   1.544   0.385 -0.4002  0.0522  1.6878
32355SOL     OW99602   5.540   7.594   8.139 -0.2060 -0.1597  0.0143
32355SOL    HW199603   5.597   7.584   8.062  1.7142  2.6931  0.9823
32355SOL    HW299604   5.487   7.514   8.140 -0.2036 -0.3193 -4.1934
32356SOL     OW99605   3.261   1.313   1.596 -0.3005  0.0110  0.5899
32356SOL    HW199606   3.328   1.286   1.533 -0.4957 -1.0616  0.8334
32356SOL    HW299607   3.187   1.338   1.542  0.0473  0.5167  0.3418
32357SOL     OW99608   9.941   7.932   4.318 -0.4533  0.0446  0.1271
32357SOL    HW199609   9.890   7.871   4.264  0.9989  0.0930 -1.3655
32357SOL    HW299610   9.922   8.018   4.281 -0.1351  0.1724  0.2648
32358SOL     OW99611   4.595   2.122   4.889 -0.2992  0.5718 -0.1616
32358SOL    HW199612   4.577   2.212   4.865  1.8574  0.6421 -1.6754
32358SOL    HW299613   4.661   2.128   4.958 -0.0484  0.1553 -0.3627
32359SOL     OW99614   9.420  10.040   7.580  0.1457  0.3046 -0.4451
32359SOL    HW199615   9.515  10.030   7.575  0.1847  0.0668  0.7053
32359SOL    HW299616   9.385   9.959   7.544  0.3972 -0.3765  0.8192
32360SOL     OW99617   5.751   1.554   3.644 -0.1396 -0.5542 -0.1484
32360SOL    HW199618   5.798   1.605   3.578 -1.3078  2.6085  1.3425
32360SOL    HW299619   5.662   1.548   3.610  0.2861 -2.8236 -0.9382
32361SOL     OW99620   7.496   7.034   1.200 -0.0139 -0.2331 -0.6165
32361SOL    HW199621   7.484   7.083   1.119  0.0466 -0.7860 -0.9608
32361SOL    HW299622   7.408   7.005   1.224 -0.6470  3.3191  1.6775
32362SOL     OW99623   8.574   4.809   1.791 -0.3311 -0.3330 -0.2400
32362SOL    HW199624   8.617   4.734   1.832 -0.9164  0.4916  1.9388
32362SOL    HW299625   8.614   4.814   1.704  0.0399 -2.8808 -0.2592
32363SOL     OW99626   9.588   0.645   4.491 -0.2077  0.0826 -0.5432
32363SOL    HW199627   9.551   0.648   4.403 -1.9516  1.1993  0.2051
32363SOL    HW299628   9.523   0.598   4.543  1.5424 -1.9762 -0.1709
32364SOL     OW99629   0.944   5.709   9.860 -0.1070  0.7805  0.3427
32364SOL    HW199630   0.956   5.616   9.879  2.0892  1.3100  1.8221
32364SOL    HW299631   0.874   5.712   9.795  0.1234 -1.9291 -0.0879
32365SOL     OW99632   5.546   4.776   5.141  0.4625 -0.5690  0.2770
32365SOL    HW199633   5.635   4.803   5.120 -0.1463 -0.3871 -2.3203
32365SOL    HW299634   5.543   4.683   5.117 -0.1314 -0.4866  0.0155
32366SOL     OW99635   9.660   3.065   3.756 -0.3183 -0.2809  0.5582
32366SOL    HW199636   9.742   3.051   3.804 -1.0381 -1.5145  1.4457
32366SOL    HW299637   9.673   3.017   3.674 -1.2941 -3.0931  1.9816
32367SOL     OW99638   4.928   8.472   0.077 -0.0514 -0.3066 -0.0151
32367SOL    HW199639   4.872   8.534   0.123  0.1596  0.1497 -0.3723
32367SOL    HW299640   4.948   8.404   0.142 -1.0933 -0.5194  0.0802
32368SOL     OW99641   9.357   1.397   9.134  0.5160 -0.2383 -0.4472
32368SOL    HW199642   9.299   1.420   9.060 -0.8374 -1.6093  0.1688
32368SOL    HW299643   9.437   1.365   9.092 -0.2242 -0.9710 -1.3391
32369SOL     OW99644   2.085   1.920   1.808 -0.6639  0.0715  0.5212
32369SOL    HW199645   2.144   1.994   1.792 -0.5400 -0.4222 -1.4274
32369SOL    HW299646   2.143   1.847   1.830 -0.5068 -0.4990 -1.7267
32370SOL     OW99647   7.732   8.748   1.542 -0.0935  0.3040  0.2863
32370SOL    HW199648   7.743   8.688   1.469 -0.7963  0.6416 -0.0981
32370SOL    HW299649   7.797   8.817   1.527  1.5486 -0.9703  1.3686
32371SOL     OW99650   0.470   0.066   8.442 -0.3208  0.2405  0.0329
32371SOL    HW199651   0.508   0.004   8.504 -0.3280 -0.0391 -0.2410
32371SOL    HW299652   0.428   0.133   8.497 -0.3925 -0.0458  0.3266
32372SOL     OW99653   8.056   6.625   7.355 -0.0836 -0.0930 -0.3526
32372SOL    HW199654   8.018   6.559   7.297  1.3516 -1.1998 -0.0930
32372SOL    HW299655   7.996   6.630   7.429 -0.7351 -0.3640 -0.8570
32373SOL     OW99656   2.353   6.448   7.924 -0.7278 -0.1956  0.5611
32373SOL    HW199657   2.441   6.412   7.938 -0.4382  0.6737  1.0270
32373SOL    HW299658   2.300   6.372   7.900  0.2357 -0.6740 -0.1284
32374SOL     OW99659   9.948   9.699   8.526  0.3225  0.0968 -0.7029
32374SOL    HW199660   9.932   9.714   8.619 -0.7969  0.5360 -0.9597
32374SOL    HW299661  10.039   9.669   8.522  0.4775  0.3751  0.4973
32375SOL     OW99662   6.586   7.996   5.000  0.5495 -0.3832  0.2230
32375SOL    HW199663   6.652   7.980   4.932  0.3144 -1.4109  0.2274
32375SOL    HW299664   6.607   7.932   5.068  0.2411  0.0543  0.7260
32376SOL     OW99665   3.804   2.588   6.875  0.6364 -0.1862 -0.1346
32376SOL    HW199666   3.882   2.533   6.880 -0.5948 -1.9634 -0.2579
32376SOL    HW299667   3.815   2.637   6.793  1.0637 -1.2590 -0.7206
32377SOL     OW99668   4.724   9.522   5.481 -0.0964  0.6228  0.1719
32377SOL    HW199669   4.819   9.532   5.488  0.0082 -1.3389  1.8770
32377SOL    HW299670   4.711   9.484   5.394  0.8180 -0.4587  0.4908
32378SOL     OW99671   5.625   8.329   4.321 -0.1781  0.7267  0.0677
32378SOL    HW199672   5.657   8.410   4.281  0.8133  0.7073  0.7988
32378SOL    HW299673   5.675   8.260   4.279 -1.6126  0.3981 -1.1574
32379SOL     OW99674   7.967   7.256   6.811  0.1114  0.3362  0.0282
32379SOL    HW199675   8.020   7.229   6.887 -0.5818  2.1244  1.1972
32379SOL    HW299676   7.894   7.194   6.810  1.0522 -0.7819 -0.2482
32380SOL     OW99677   3.263   8.307   8.120 -0.2753 -0.0307 -0.9460
32380SOL    HW199678   3.289   8.241   8.055  4.0451 -0.8401  1.3777
32380SOL    HW299679   3.250   8.258   8.201 -0.0095  1.5663  0.1031
32381SOL     OW99680   1.577   8.638   4.687  0.1057 -0.0259  0.5762
32381SOL    HW199681   1.523   8.598   4.754 -1.1987  1.1920  0.2794
32381SOL    HW299682   1.515   8.682   4.628  1.3647  0.9091 -0.0963
32382SOL     OW99683   2.971   7.426   4.984  0.6613  0.3765 -0.4334
32382SOL    HW199684   2.998   7.359   5.047  1.5098  1.4207  0.3284
32382SOL    HW299685   2.985   7.385   4.898  0.3816 -0.7155  0.0286
32383SOL     OW99686   8.443   1.804   0.225  0.7739 -0.2658 -0.6097
32383SOL    HW199687   8.484   1.724   0.192  0.6863 -0.6556  0.2234
32383SOL    HW299688   8.352   1.780   0.243  0.7440  0.0198 -0.3673
32384SOL     OW99689   6.721   9.640   7.781  0.0355  0.3554  0.3585
32384SOL    HW199690   6.687   9.573   7.840 -2.5931  1.1033 -0.2398
32384SOL    HW299691   6.689   9.723   7.817 -1.0221  0.8794 -1.7034
32385SOL     OW99692   9.299   9.717   4.823  0.0620 -0.4860  0.0954
32385SOL    HW199693   9.298   9.681   4.912  0.9350 -0.5149  0.1026
32385SOL    HW299694   9.210   9.706   4.791 -0.0322 -1.3082  0.6326
32386SOL     OW99695   4.490   0.710   4.710 -0.2603  0.2145  0.0689
32386SOL    HW199696   4.551   0.660   4.764 -0.2015 -0.8826 -0.9925
32386SOL    HW299697   4.411   0.718   4.764  0.3544  0.5220  0.9308
32387SOL     OW99698  10.054   0.433   6.485 -0.0145  0.1051 -0.1604
32387SOL    HW199699  10.114   0.372   6.443  1.6523 -0.1764  2.5315
32387SOL    HW299700   9.977   0.379   6.507 -0.3429 -0.0349 -1.5981
32388SOL     OW99701   5.537   6.885   5.981 -0.4789  0.2576  0.4054
32388SOL    HW199702   5.592   6.905   5.905 -0.2846  2.3452  1.0724
32388SOL    HW299703   5.541   6.790   5.988  1.5026  0.2150 -0.7175
32389SOL     OW99704   8.776   8.999   5.531 -0.6742  0.0582  0.4724
32389SOL    HW199705   8.789   8.945   5.452  0.5147 -0.5443  1.0688
32389SOL    HW299706   8.681   9.012   5.535 -0.6779  0.9380 -1.6215
32390SOL     OW99707   1.767   7.566   7.944  0.0034 -0.1466 -0.0154
32390SOL    HW199708   1.682   7.602   7.970  1.0480  1.8119  0.7878
32390SOL    HW299709   1.831   7.620   7.991  1.7106 -1.3647 -0.8949
32391SOL     OW99710   9.273   9.717   3.131  0.4229  0.0166  0.3531
32391SOL    HW199711   9.338   9.776   3.168 -0.7427  1.1635  0.6284
32391SOL    HW299712   9.274   9.736   3.037  1.1755 -0.6678  0.2205
32392SOL     OW99713   8.325   6.308   8.353 -0.5102 -1.0926 -0.1731
32392SOL    HW199714   8.331   6.271   8.441  2.5500 -0.0231  0.1543
32392SOL    HW299715   8.366   6.242   8.297 -1.5805 -1.3479 -0.6572
32393SOL     OW99716   3.752   0.024   1.092 -0.0646  0.2309  0.4991
32393SOL    HW199717   3.801   0.032   1.174 -2.8290 -0.2938  2.2644
32393SOL    HW299718   3.732  -0.070   1.086  2.2241 -0.1452 -2.0817
32394SOL     OW99719   8.643   2.770   5.979 -0.1885  0.3627  0.3828
32394SOL    HW199720   8.706   2.772   6.051 -0.6699 -0.7196  0.8449
32394SOL    HW299721   8.574   2.710   6.009  0.6477 -1.8173 -1.8382
32395SOL     OW99722   0.845   7.682   4.157  0.4530  0.6631 -0.1294
32395SOL    HW199723   0.810   7.661   4.070 -1.3017  2.3783  0.1422
32395SOL    HW299724   0.826   7.775   4.168  0.9889  0.5354  1.9637
32396SOL     OW99725   9.876   5.309   7.518 -0.4933  0.2868 -0.3347
32396SOL    HW199726   9.806   5.255   7.482 -0.4224  0.7721 -1.2194
32396SOL    HW299727   9.931   5.248   7.568 -0.9385 -0.2803 -0.5380
32397SOL     OW99728   2.059   6.966   8.594 -0.4744 -0.5398  0.4853
32397SOL    HW199729   2.052   7.023   8.671 -1.0422 -0.1046  0.1215
32397SOL    HW299730   2.106   6.889   8.626  1.0206  0.4702  0.7881
32398SOL     OW99731   4.843   9.422   6.071  0.7779  0.3991 -0.0675
32398SOL    HW199732   4.759   9.467   6.073 -0.2258 -1.3791 -1.7516
32398SOL    HW299733   4.873   9.431   5.980  3.0739  2.1612  0.7844
32399SOL     OW99734   2.995   7.474   2.460 -0.8085  0.0404  0.6124
32399SOL    HW199735   2.916   7.420   2.452 -0.4065 -0.7783  2.0434
32399SOL    HW299736   2.968   7.549   2.512 -0.9123  0.3336  0.1435
32400SOL     OW99737   8.469   6.232   2.464 -0.0801 -0.4201  0.1128
32400SOL    HW199738   8.419   6.286   2.526 -0.3189 -0.1704 -0.2954
32400SOL    HW299739   8.472   6.285   2.384 -1.1898 -1.4361 -0.6198
32401SOL     OW99740   0.110   0.386   7.622 -0.2178 -0.0316  0.3241
32401SOL    HW199741   0.103   0.473   7.662  0.6820  1.1761 -2.0218
32401SOL    HW299742   0.198   0.384   7.584 -1.0307 -1.1058 -1.5646
32402SOL     OW99743   2.625   2.955   8.684 -0.4306 -0.3207 -0.2243
32402SOL    HW199744   2.705   2.928   8.639 -0.5821 -0.6283 -0.3072
32402SOL    HW299745   2.642   2.933   8.776  0.6211  2.0027  0.1696
32403SOL     OW99746   6.040   3.739   2.867 -0.0207 -0.4735 -0.1472
32403SOL    HW199747   6.048   3.704   2.779  0.4204 -0.3522 -0.1554
32403SOL    HW299748   6.097   3.684   2.920  2.5015  1.6625 -0.5659
32404SOL     OW99749   2.328   5.648   8.077  0.2448 -0.0159 -0.4954
32404SOL    HW199750   2.399   5.587   8.055  2.4539  2.7220 -1.2782
32404SOL    HW299751   2.354   5.685   8.161 -1.0661 -0.1216 -0.0362
32405SOL     OW99752   4.883   8.279   7.607  0.1328  0.3898  0.2087
32405SOL    HW199753   4.917   8.321   7.685  1.0745  0.4423 -0.2301
32405SOL    HW299754   4.960   8.250   7.559 -0.3529  2.0491 -1.6429
32406SOL     OW99755   3.947   7.456   1.329 -0.0362 -0.1737 -0.2216
32406SOL    HW199756   3.923   7.545   1.304 -1.9060 -0.6691 -0.3131
32406SOL    HW299757   4.033   7.465   1.369 -1.0230  1.9988  1.5850
32407SOL     OW99758   7.949   6.110   8.615 -0.0226 -0.1170  0.6723
32407SOL    HW199759   7.865   6.064   8.620  0.0022 -0.2827 -0.3619
32407SOL    HW299760   7.946   6.174   8.687 -1.6447  0.9067 -0.2898
32408SOL     OW99761   3.422   8.365   4.907 -0.0231  0.6646 -0.2744
32408SOL    HW199762   3.508   8.406   4.912 -0.0988  0.8415 -0.4139
32408SOL    HW299763   3.368   8.429   4.860 -0.6363  1.2302  1.1633
32409SOL     OW99764   1.737   1.496   0.757 -0.0024 -0.2074  0.3140
32409SOL    HW199765   1.709   1.579   0.794  1.5471 -0.0994  1.2571
32409SOL    HW299766   1.797   1.459   0.821  1.5786 -0.6984 -1.4067
32410SOL     OW99767   6.260   1.166   9.581 -0.1997 -0.2942  0.0330
32410SOL    HW199768   6.341   1.117   9.588  0.7377  1.3503  0.9997
32410SOL    HW299769   6.271   1.221   9.504 -0.8603 -0.8834 -0.4914
32411SOL     OW99770   2.463   9.622   7.097  0.9010  0.3510  0.2170
32411SOL    HW199771   2.501   9.674   7.167  1.1731 -0.7865  0.9262
32411SOL    HW299772   2.368   9.633   7.107  0.9453  0.3151  0.6635
32412SOL     OW99773   5.679   9.627   2.875  0.1934 -0.1272  0.0966
32412SOL    HW199774   5.640   9.712   2.894  0.2083 -0.0969 -0.0063
32412SOL    HW299775   5.737   9.610   2.949 -0.5546 -0.5010  0.6003
32413SOL     OW99776   4.196   5.141   6.293  0.0894  0.0714  0.3697
32413SOL    HW199777   4.269   5.180   6.246 -0.9551  1.0677 -0.4416
32413SOL    HW299778   4.144   5.215   6.324 -0.8492 -0.6255  0.5084
32414SOL     OW99779   2.597   4.551   2.592  0.3718 -0.2108 -0.6701
32414SOL    HW199780   2.526   4.587   2.539  0.7102  1.0593 -0.2748
32414SOL    HW299781   2.599   4.459   2.569 -0.2154  0.1070 -2.0484
32415SOL     OW99782   1.494   3.845   6.953  0.5218 -0.3764 -0.1801
32415SOL    HW199783   1.544   3.881   6.880  0.5899 -0.4248 -0.1573
32415SOL    HW299784   1.403   3.870   6.934  0.5457 -0.3440 -0.2541
32416SOL     OW99785   6.540   4.668   6.898  0.7061  0.3196  0.0723
32416SOL    HW199786   6.578   4.679   6.986  0.1646  0.3821  0.2996
32416SOL    HW299787   6.614   4.681   6.839  1.7464 -2.8062  0.5950
32417SOL     OW99788   5.117   9.803   2.427 -0.0194 -0.5275 -0.4713
32417SOL    HW199789   5.186   9.793   2.493 -0.6066  1.0685  0.3895
32417SOL    HW299790   5.036   9.794   2.476 -0.4535  0.1502 -1.0595
32418SOL     OW99791   8.652   8.800   9.059 -0.2235  0.8957  0.4857
32418SOL    HW199792   8.724   8.784   8.998  0.5466  2.8173  0.8661
32418SOL    HW299793   8.574   8.767   9.014  0.6534  0.3132 -0.6193
32419SOL     OW99794   2.643   6.529   2.808 -0.0444  0.0044 -0.0121
32419SOL    HW199795   2.647   6.495   2.719  1.6238 -0.4594  0.2144
32419SOL    HW299796   2.630   6.451   2.863  1.3910 -0.0119  0.3255
32420SOL     OW99797   1.792   1.652   7.111  0.1147  0.2095 -0.3470
32420SOL    HW199798   1.750   1.722   7.061  2.1571  1.7042 -0.0067
32420SOL    HW299799   1.863   1.621   7.055 -0.3111 -1.1025 -0.1823
32421SOL     OW99800   6.893   6.161   2.386  0.4825 -0.2186 -0.3040
32421SOL    HW199801   6.974   6.171   2.436  0.5941 -0.1416 -0.4998
32421SOL    HW299802   6.868   6.070   2.399  1.5224 -0.7177 -1.6306
32422SOL     OW99803   8.881   7.860   7.933  0.7043 -0.7259  0.7234
32422SOL    HW199804   8.890   7.911   7.852 -0.7934  0.2617  1.1738
32422SOL    HW299805   8.888   7.769   7.904 -2.5404 -0.5270 -0.9651
32423SOL     OW99806   2.884   8.304   0.150  0.6813  0.3037 -0.8802
32423SOL    HW199807   2.794   8.306   0.181  0.4919  1.9734 -1.4841
32423SOL    HW299808   2.935   8.275   0.225 -0.1572  0.9573 -0.0534
32424SOL     OW99809   0.571   6.072   8.716 -0.2591  0.3013  0.0646
32424SOL    HW199810   0.651   6.036   8.680 -0.2321  0.4476 -0.0216
32424SOL    HW299811   0.501   6.034   8.662 -0.1631  1.2284 -0.7260
32425SOL     OW99812   2.623   7.667   8.607  0.0769  0.1984  0.8586
32425SOL    HW199813   2.573   7.729   8.554  1.5217  0.5202 -0.1392
32425SOL    HW299814   2.592   7.581   8.579 -0.2934  0.4080  0.6262
32426SOL     OW99815   9.454   4.670   3.457 -0.6617  0.0179  0.1872
32426SOL    HW199816   9.396   4.629   3.393 -0.2674 -0.3257  0.0530
32426SOL    HW299817   9.468   4.759   3.423 -0.1769 -0.2754 -0.3745
32427SOL     OW99818   1.368   1.070   9.452  0.1357  0.5542  0.1172
32427SOL    HW199819   1.295   1.090   9.510  0.1292  1.5439 -0.2265
32427SOL    HW299820   1.330   1.013   9.385 -0.3648  1.1995 -0.1559
32428SOL     OW99821   6.386   7.064   9.737  0.9902  0.1446  0.3337
32428SOL    HW199822   6.323   7.126   9.699 -0.5975  0.6940  3.6488
32428SOL    HW299823   6.461   7.119   9.761  0.5445  0.3960  1.1633
32429SOL     OW99824   2.527   1.372   2.988 -0.0078 -0.7789  0.2529
32429SOL    HW199825   2.619   1.362   2.965 -0.9100 -1.7227 -3.3187
32429SOL    HW299826   2.503   1.288   3.027  0.6809 -0.4514  1.3939
32430SOL     OW99827   2.770   5.486   5.606 -0.2234  0.1992 -0.3604
32430SOL    HW199828   2.858   5.521   5.620  0.3800 -0.9909 -1.0572
32430SOL    HW299829   2.713   5.542   5.658  1.2699 -0.6190  2.2668
32431SOL     OW99830   3.927   6.026   9.218  0.9313 -0.1220  0.0057
32431SOL    HW199831   3.920   5.937   9.185 -1.6812 -0.5351  1.5429
32431SOL    HW299832   4.008   6.027   9.269  3.1635 -0.4114 -3.3616
32432SOL     OW99833   9.177   4.721   7.659 -0.4219 -0.2094 -0.1488
32432SOL    HW199834   9.103   4.758   7.612  0.4378 -0.0597 -1.4022
32432SOL    HW299835   9.137   4.673   7.732 -1.7922 -0.7258 -1.2104
32433SOL     OW99836   9.500   1.334   1.643 -0.4562 -0.2875  0.2771
32433SOL    HW199837   9.543   1.344   1.558 -1.0068  0.4859  0.0831
32433SOL    HW299838   9.570   1.347   1.707 -0.0278 -0.9397 -0.0612
32434SOL     OW99839   1.457   1.961   1.908  0.3465  0.5180  0.5690
32434SOL    HW199840   1.411   1.941   1.989 -1.0449  0.9106 -0.1144
32434SOL    HW299841   1.431   2.051   1.887 -1.0952 -0.3444 -1.4965
32435SOL     OW99842   5.643   3.240   1.618 -0.1940  0.7529 -0.1808
32435SOL    HW199843   5.646   3.330   1.585 -0.5179  0.9664  0.3576
32435SOL    HW299844   5.701   3.191   1.560 -0.3081  1.2359 -0.7104
32436SOL     OW99845   1.626   5.749   9.723  0.4702  0.2042  0.2689
32436SOL    HW199846   1.532   5.755   9.705  0.3485  0.4447  0.9899
32436SOL    HW299847   1.668   5.778   9.642 -0.0718 -0.8536 -0.4029
32437SOL     OW99848   8.625   3.527   8.102 -0.5195 -0.4454 -0.0888
32437SOL    HW199849   8.578   3.546   8.021 -0.6129  1.4757  0.3819
32437SOL    HW299850   8.642   3.433   8.098 -4.4494 -1.2448 -0.2323
32438SOL     OW99851   2.466   6.981   6.660 -0.3468  0.3588  0.2871
32438SOL    HW199852   2.482   6.887   6.660  3.0800  0.8847  0.5030
32438SOL    HW299853   2.407   6.995   6.735 -1.2482 -1.6204 -0.0092
32439SOL     OW99854   5.838   6.307   6.895  0.0050 -0.1517 -0.3818
32439SOL    HW199855   5.926   6.319   6.858  0.4661 -1.4020  0.2648
32439SOL    HW299856   5.846   6.338   6.985 -0.2315 -0.1748 -0.3539
32440SOL     OW99857   6.386   1.880   4.925 -0.3064 -0.5157  0.1460
32440SOL    HW199858   6.291   1.867   4.918 -0.5408  0.4467  1.4681
32440SOL    HW299859   6.404   1.873   5.019  0.5070  2.1617  0.2124
32441SOL     OW99860   6.724   3.652   8.616 -0.2277 -0.6934  0.5992
32441SOL    HW199861   6.776   3.616   8.687 -0.4370 -1.5748  0.3192
32441SOL    HW299862   6.641   3.604   8.619 -0.5208 -0.2297  0.2202
32442SOL     OW99863   3.648   9.235   1.169 -0.2958  0.2445  0.0804
32442SOL    HW199864   3.702   9.261   1.244  0.1266 -0.8566  0.1641
32442SOL    HW299865   3.692   9.273   1.093 -0.2441  0.6301  0.3012
32443SOL     OW99866   9.871   4.565   4.665 -0.2846 -0.2598  0.2042
32443SOL    HW199867   9.780   4.541   4.685 -0.2479 -1.4692 -1.0146
32443SOL    HW299868   9.890   4.520   4.582  1.6687 -0.6588  0.8389
32444SOL     OW99869   5.418   8.492   1.050 -0.0865  0.4821 -0.3427
32444SOL    HW199870   5.331   8.497   1.088 -0.0648 -0.7624 -0.1104
32444SOL    HW299871   5.406   8.443   0.969  0.5808 -0.8078  0.3159
32445SOL     OW99872   6.385   9.363   0.434  0.0654  0.0517 -0.2040
32445SOL    HW199873   6.311   9.410   0.396 -0.2241  0.4696  0.8638
32445SOL    HW299874   6.448   9.356   0.363 -0.9973 -0.3115 -1.1298
32446SOL     OW99875   0.763   0.472   2.675 -0.3135 -0.0520  0.1404
32446SOL    HW199876   0.738   0.469   2.767  0.7060 -1.7260  0.3706
32446SOL    HW299877   0.832   0.406   2.666  0.8503  1.3234 -1.4404
32447SOL     OW99878   6.805   3.967   8.441 -0.6672 -0.0675  0.2667
32447SOL    HW199879   6.768   3.895   8.389  2.2238 -0.0291 -1.9646
32447SOL    HW299880   6.807   4.041   8.381 -1.0017  1.1241  1.7034
32448SOL     OW99881   2.563   8.407   3.768 -0.0695  0.6839 -0.0621
32448SOL    HW199882   2.649   8.370   3.749  0.6041  1.8531  0.5901
32448SOL    HW299883   2.581   8.474   3.835 -1.4002  1.3306 -0.3410
32449SOL     OW99884   7.441   3.071   7.463 -0.8114  0.0265 -0.4330
32449SOL    HW199885   7.414   3.162   7.457 -1.0089 -0.0600 -0.8988
32449SOL    HW299886   7.527   3.074   7.505 -0.3034  0.5166 -1.4948
32450SOL     OW99887   8.741   1.688   3.019  0.1024 -0.2048 -0.0908
32450SOL    HW199888   8.694   1.751   2.965  2.2556  0.6470 -1.0213
32450SOL    HW299889   8.777   1.624   2.958 -1.5131 -1.9824  0.7919
32451SOL     OW99890   9.458   9.681   1.183  0.1684 -0.2057  0.4593
32451SOL    HW199891   9.410   9.668   1.101 -1.1388 -0.3947  1.2353
32451SOL    HW299892   9.542   9.718   1.157  0.5942 -2.2106 -1.1411
32452SOL     OW99893   5.220   1.318   6.107 -0.8919  0.2162 -0.1686
32452SOL    HW199894   5.313   1.331   6.092 -0.5854 -2.1951 -0.4254
32452SOL    HW299895   5.210   1.327   6.202  0.2366 -3.1594  0.3225
32453SOL     OW99896   4.506   0.317   1.306  0.0758 -0.4687 -0.0803
32453SOL    HW199897   4.465   0.266   1.375  0.4085 -0.6574 -0.0194
32453SOL    HW299898   4.572   0.370   1.351 -1.2190  1.0576  0.0560
32454SOL     OW99899   0.613   3.127   3.726 -0.0453  0.4764  0.0618
32454SOL    HW199900   0.617   3.163   3.637 -0.1030  0.9285  0.2443
32454SOL    HW299901   0.692   3.159   3.768  0.8094 -1.0833 -0.3371
32455SOL     OW99902   2.678   6.760   8.742 -0.0965 -0.2622  0.0671
32455SOL    HW199903   2.765   6.784   8.712  0.4838 -0.3213  1.6285
32455SOL    HW299904   2.685   6.668   8.766  0.2019  0.4040  2.7852
32456SOL     OW99905   0.233   0.592   7.832 -0.4827  0.1033  0.4889
32456SOL    HW199906   0.266   0.512   7.874 -0.0806  0.2407  0.4348
32456SOL    HW299907   0.312   0.637   7.802 -0.8584 -1.0470 -2.3596
32457SOL     OW99908   5.109   0.290   2.961 -0.0493 -0.2003 -0.2135
32457SOL    HW199909   5.073   0.229   2.898  1.2294 -1.5916  0.3850
32457SOL    HW299910   5.193   0.253   2.986  0.2858  1.2666  0.9348
32458SOL     OW99911   3.620   3.627   3.463  0.0575  0.3208  0.6434
32458SOL    HW199912   3.596   3.570   3.536  1.3775 -1.7819 -0.5229
32458SOL    HW299913   3.697   3.675   3.495  0.5618 -0.5103  0.7003
32459SOL     OW99914   8.119   2.674   5.108 -0.4252  0.3757  0.0356
32459SOL    HW199915   8.192   2.731   5.132 -2.0463  3.0268 -1.0842
32459SOL    HW299916   8.157   2.587   5.103  2.6353  1.6870 -0.4148
32460SOL     OW99917   9.251   7.102   3.941 -0.1725 -0.2058  0.4471
32460SOL    HW199918   9.334   7.083   3.897 -0.8774  0.8723 -1.3982
32460SOL    HW299919   9.192   7.033   3.912 -0.6772  0.5768 -0.4020
32461SOL     OW99920   4.960   2.556   3.212 -0.4343  0.4090  0.2551
32461SOL    HW199921   4.920   2.587   3.293  0.6418 -0.1188  1.0000
32461SOL    HW299922   5.047   2.527   3.238 -0.6657 -1.3046 -0.7719
32462SOL     OW99923   3.069   4.792   0.843  0.3924 -0.7599 -0.3227
32462SOL    HW199924   3.034   4.875   0.875  0.1009 -2.0950  3.0836
32462SOL    HW299925   3.004   4.762   0.780 -1.4356 -0.1608  1.2076
32463SOL     OW99926   6.490   4.204   3.323  0.0095 -0.8457  0.0038
32463SOL    HW199927   6.396   4.191   3.312 -0.1076 -1.6600  1.8523
32463SOL    HW299928   6.498   4.263   3.399  0.9764 -0.4836 -0.3644
32464SOL     OW99929   2.072   7.434   3.387 -0.0696 -0.3646 -0.3625
32464SOL    HW199930   2.106   7.453   3.475 -0.1765  2.9929 -0.9725
32464SOL    HW299931   2.098   7.344   3.370  2.2315 -0.2228  2.0626
32465SOL     OW99932   4.064   7.855   9.462 -0.0974  0.0039 -0.7310
32465SOL    HW199933   4.048   7.869   9.368  0.8096 -0.1912 -0.9149
32465SOL    HW299934   4.018   7.774   9.481  0.9036 -0.7127 -1.3299
32466SOL     OW99935   9.577   1.463   2.242  0.3279 -0.6992  0.3995
32466SOL    HW199936   9.664   1.426   2.255 -0.0618 -1.9597 -0.5117
32466SOL    HW299937   9.587   1.524   2.169  0.8286  0.5017  1.4674
32467SOL     OW99938  10.068   0.170   5.301  0.4275  0.4125  0.2074
32467SOL    HW199939  10.156   0.164   5.265  0.3590  0.4576  0.0264
32467SOL    HW299940  10.064   0.102   5.368  0.7613  0.7340  0.5561
32468SOL     OW99941   9.365   2.941   1.390  0.5690 -0.2122 -0.0070
32468SOL    HW199942   9.449   2.954   1.435 -0.1612 -1.8078  1.9274
32468SOL    HW299943   9.373   2.853   1.352 -0.5985 -0.8457  1.1480
32469SOL     OW99944   9.758   1.701   9.547  0.4594 -0.4939 -0.0655
32469SOL    HW199945   9.762   1.758   9.470  0.7142 -0.9603 -0.3996
32469SOL    HW299946   9.684   1.734   9.597  1.0753  0.6064  0.1239
32470SOL     OW99947   2.657   2.130   1.735  0.3888  0.1072  0.3031
32470SOL    HW199948   2.654   2.085   1.650  0.1903  0.5703  0.0633
32470SOL    HW299949   2.622   2.217   1.717 -0.5044 -0.0983  1.0655
32471SOL     OW99950   4.475   3.858   7.399 -0.1619  0.1871 -0.1910
32471SOL    HW199951   4.473   3.933   7.340  0.5286 -0.3809 -0.9564
32471SOL    HW299952   4.566   3.827   7.395  0.1592  0.7801  2.0020
32472SOL     OW99953   0.376   1.199   5.961  0.2670 -0.4513 -0.5293
32472SOL    HW199954   0.332   1.278   5.932 -0.9838 -1.0445 -0.2967
32472SOL    HW299955   0.349   1.132   5.898  0.1936 -0.9958  0.0744
32473SOL     OW99956   1.856   6.225   5.034 -0.3097 -0.0696 -0.2530
32473SOL    HW199957   1.939   6.196   4.995  0.0396  0.6409 -0.0430
32473SOL    HW299958   1.880   6.255   5.122 -0.9924 -1.0592  0.2875
32474SOL     OW99959   3.748   6.133   6.307 -0.3061  0.4331  0.2110
32474SOL    HW199960   3.666   6.137   6.357 -0.6501  1.1680 -0.3948
32474SOL    HW299961   3.807   6.192   6.353 -1.3425  2.9015 -1.5017
32475SOL     OW99962   7.763   8.272   2.269 -0.6432  0.0828  0.1445
32475SOL    HW199963   7.718   8.356   2.280 -0.1902  0.4636 -0.8568
32475SOL    HW299964   7.694   8.206   2.279 -1.0262  0.5781  0.8099
32476SOL     OW99965   9.322   7.745   9.353  0.4072 -0.1004  0.3004
32476SOL    HW199966   9.262   7.699   9.411 -0.8267  1.0555 -0.0213
32476SOL    HW299967   9.368   7.676   9.306  0.0624 -1.0184  1.2898
32477SOL     OW99968   8.636   0.118   2.338 -0.7315  0.8976  0.0633
32477SOL    HW199969   8.580   0.143   2.264 -1.3476  1.8304  0.8260
32477SOL    HW299970   8.671   0.201   2.370  2.2271  0.2093 -1.2620
32478SOL     OW99971   6.216   9.830   1.726 -0.4120 -0.6418 -0.4938
32478SOL    HW199972   6.128   9.864   1.712 -0.4433  0.6035  2.2830
32478SOL    HW299973   6.273   9.889   1.677 -0.9459 -0.0621 -0.4157
32479SOL     OW99974   3.083   6.202   0.221  0.0976  0.2771 -0.1115
32479SOL    HW199975   3.014   6.171   0.279  0.2244 -0.3653 -0.2928
32479SOL    HW299976   3.037   6.231   0.142  0.0077  0.1109 -0.1214
32480SOL     OW99977   6.535   6.562   8.795 -0.2132  0.4723 -0.1491
32480SOL    HW199978   6.585   6.642   8.780  0.7472  0.0918  0.9070
32480SOL    HW299979   6.553   6.507   8.719  0.5452  0.5562 -0.0293
32481SOL     OW99980   6.953   1.369   0.963 -0.0958 -0.4970  0.0701
32481SOL    HW199981   7.037   1.398   0.927 -0.3615  0.4417  0.2028
32481SOL    HW299982   6.959   1.274   0.963  0.5780 -0.4597 -0.8594
32482SOL     OW99983   4.500   5.831   2.130  0.1211  0.1239  0.5463
32482SOL    HW199984   4.470   5.911   2.173 -0.8846 -0.6204  1.2500
32482SOL    HW299985   4.579   5.857   2.083 -0.7657  1.7501 -0.0635
32483SOL     OW99986   9.964   2.161   1.505  0.3012  0.3556  0.7924
32483SOL    HW199987   9.993   2.249   1.530  0.5149  0.3245  0.6554
32483SOL    HW299988   9.888   2.144   1.561 -0.3554  1.0317  0.1273
32484SOL     OW99989   7.187   3.150   0.828 -0.5705 -0.0225  0.1151
32484SOL    HW199990   7.225   3.079   0.879  0.3302  0.1610 -0.3061
32484SOL    HW299991   7.145   3.207   0.893 -1.8126 -1.2459  0.4005
32485SOL     OW99992   3.315   6.094   9.156  0.7307  0.1044 -0.0111
32485SOL    HW199993   3.323   6.069   9.248  0.1787 -2.5814 -0.6503
32485SOL    HW299994   3.401   6.075   9.119  0.5482 -0.1382 -0.3190
32486SOL     OW99995   4.531   7.184   8.190  0.1976 -0.0490 -0.1888
32486SOL    HW199996   4.523   7.213   8.099 -1.3202  1.1165  0.2862
32486SOL    HW299997   4.458   7.122   8.201 -0.4261  0.7989  0.5742
32487SOL     OW99998   3.161   0.189   5.410 -0.3174 -0.4862  0.1270
32487SOL    HW199999   3.190   0.271   5.450 -3.3609  0.8561 -0.2257
32487SOL    HW2    0   3.148   0.129   5.484 -0.5008  0.1893  0.6492
32488SOL     OW    1   5.907   7.612   2.082  0.9186  0.3298 -0.0433
32488SOL    HW1    2   5.940   7.526   2.109  2.2839  0.9214  0.2216
32488SOL    HW2    3   5.836   7.631   2.143  1.3181 -0.1433  0.5724
32489SOL     OW    4   1.515   7.819   9.549 -0.0192  0.6177  0.2075
32489SOL    HW1    5   1.547   7.856   9.466  0.2910  0.0862  0.0874
32489SOL    HW2    6   1.484   7.895   9.598  1.7734  1.1999  0.4749
32490SOL     OW    7   6.098   6.987   7.763  0.1591 -0.0102  0.1074
32490SOL    HW1    8   6.116   6.960   7.673  0.5957  0.2445  0.1127
32490SOL    HW2    9   6.007   6.962   7.779  0.2194 -0.4668 -0.2535
32491SOL     OW   10   8.910   7.108   3.456  0.3826  0.0240  0.3417
32491SOL    HW1   11   8.860   7.120   3.537  1.2368  0.3606  0.8263
32491SOL    HW2   12   9.002   7.118   3.483  0.5860  2.0641 -0.9815
32492SOL     OW   13   9.659   0.937   7.448 -0.1949  0.1978 -0.2852
32492SOL    HW1   14   9.570   0.906   7.461  0.4438 -1.9057 -0.7124
32492SOL    HW2   15   9.653   0.999   7.375 -1.2717 -0.1191 -0.4657
32493SOL     OW   16   0.739   1.357   7.658 -0.3157 -0.6747  0.0661
32493SOL    HW1   17   0.802   1.412   7.611 -1.8304  0.1985 -0.9584
32493SOL    HW2   18   0.750   1.381   7.749  0.3881 -0.0712 -0.1705
32494SOL     OW   19   8.071   9.217   6.532 -0.5723  0.0330  0.5539
32494SOL    HW1   20   8.046   9.201   6.441 -0.7717 -1.5830  0.8787
32494SOL    HW2   21   8.143   9.279   6.526 -2.9537  2.7952 -0.5003
32495SOL     OW   22   7.841   8.039   4.102  0.3522 -0.1858  0.7804
32495SOL    HW1   23   7.803   8.047   4.189 -1.5998 -0.9380  0.0369
32495SOL    HW2   24   7.787   8.095   4.047 -0.0421 -1.6765 -0.4021
32496SOL     OW   25   5.455   2.000   4.909 -0.1046 -0.3780  0.1470
32496SOL    HW1   26   5.474   1.942   4.836 -0.3327  0.4478 -0.5699
32496SOL    HW2   27   5.477   1.948   4.987 -1.1248 -1.7462 -0.4469
32497SOL     OW   28   9.043   5.624   1.245  0.2717 -0.1589 -0.1725
32497SOL    HW1   29   9.072   5.715   1.246 -2.8960  0.8906 -1.1009
32497SOL    HW2   30   8.979   5.619   1.174 -2.1088 -2.2720  2.0176
32498SOL     OW   31   0.018   5.821   5.074 -0.5014  0.6670  0.0655
32498SOL    HW1   32  -0.004   5.733   5.044  2.0227 -0.0827  0.3348
32498SOL    HW2   33   0.068   5.807   5.155  1.7998  2.2353 -1.0409
32499SOL     OW   34   7.247   3.842   8.959 -0.4718  0.1799  0.3664
32499SOL    HW1   35   7.320   3.903   8.961 -1.9464  1.9463  1.1456
32499SOL    HW2   36   7.195   3.868   8.883 -0.0421 -1.3915 -0.4899
32500SOL     OW   37   1.470   0.791   8.143 -0.0134  0.0462 -0.2892
32500SOL    HW1   38   1.432   0.717   8.097 -0.3409  0.3268 -0.4738
32500SOL    HW2   39   1.406   0.861   8.133 -0.3207 -0.0316  1.0122
32501SOL     OW   40   8.109   0.775   5.856 -0.7235  0.1501  0.6857
32501SOL    HW1   41   8.118   0.840   5.787  2.0229 -1.5038 -0.6067
32501SOL    HW2   42   8.181   0.794   5.916  0.6388 -2.1868 -0.1613
32502SOL     OW   43   5.932   2.870   8.585  0.2800  0.3750  0.3000
32502SOL    HW1   44   5.964   2.842   8.671  2.8240 -1.7043 -1.2439
32502SOL    HW2   45   6.007   2.858   8.526 -1.4258  1.6540 -2.2461
32503SOL     OW   46   1.180   4.869   4.655  0.4063  0.2436  0.3385
32503SOL    HW1   47   1.175   4.784   4.699  2.3113 -0.2609 -0.4132
32503SOL    HW2   48   1.090   4.885   4.625  0.0599 -1.5862  0.3304
32504SOL     OW   49   3.925   8.624   1.263 -0.2164 -0.2163 -0.4497
32504SOL    HW1   50   3.855   8.561   1.280  0.3742 -1.6904 -3.1500
32504SOL    HW2   51   3.879   8.706   1.246 -1.1737 -0.6337  0.0466
32505SOL     OW   52   9.887   5.405   2.233  0.4593 -0.1048  0.1771
32505SOL    HW1   53   9.923   5.416   2.321 -1.1020  1.6434  0.6257
32505SOL    HW2   54   9.879   5.310   2.222  1.5660 -0.3684  1.5323
32506SOL     OW   55   8.000   9.152   7.843 -0.2882  0.9762 -0.2024
32506SOL    HW1   56   7.954   9.094   7.782  1.8517 -0.5905 -0.3999
32506SOL    HW2   57   7.963   9.131   7.929 -0.1890 -0.0348 -0.3959
32507SOL     OW   58   7.824   2.079   1.558  0.0031 -0.1901 -0.2249
32507SOL    HW1   59   7.784   2.165   1.569  0.3261 -0.0078 -0.4825
32507SOL    HW2   60   7.867   2.082   1.473 -0.4629 -0.8033 -0.4880
32508SOL     OW   61   3.842   5.795   8.644  0.0452 -0.1817 -0.2005
32508SOL    HW1   62   3.802   5.851   8.576  1.3270 -0.0290 -0.8375
32508SOL    HW2   63   3.878   5.721   8.595  0.7057 -0.2241  0.3597
32509SOL     OW   64   3.544   8.196   7.034 -0.6957  0.1747 -0.3644
32509SOL    HW1   65   3.597   8.137   7.087 -1.1574  1.4770  1.6006
32509SOL    HW2   66   3.547   8.279   7.081 -1.2611  1.3343 -2.3103
32510SOL     OW   67   9.565   9.547   5.223 -0.2317 -0.1438 -0.0994
32510SOL    HW1   68   9.613   9.551   5.306  0.9233  1.6899 -0.8293
32510SOL    HW2   69   9.584   9.460   5.188  1.1055 -0.0931  0.4929
32511SOL     OW   70   7.829   3.995   8.275 -0.0784 -0.4683 -0.1675
32511SOL    HW1   71   7.876   4.065   8.230 -1.2202 -0.8317 -1.9486
32511SOL    HW2   72   7.876   3.915   8.252 -0.6408 -0.6526 -0.6657
32512SOL     OW   73   0.623   0.021   3.673 -0.4367 -0.2548 -0.0262
32512SOL    HW1   74   0.593   0.062   3.754  0.3758 -0.9728  0.6501
32512SOL    HW2   75   0.708  -0.018   3.696 -0.7433 -1.4668 -0.9051
32513SOL     OW   76   5.404   0.451   3.575 -0.2606 -0.2591 -0.0824
32513SOL    HW1   77   5.375   0.516   3.638  1.8274  0.1496  0.5029
32513SOL    HW2   78   5.456   0.389   3.626  2.6040  0.8176 -1.5757
32514SOL     OW   79   0.019   8.867   0.385  0.0694 -0.3373  0.3360
32514SOL    HW1   80   0.082   8.915   0.439  0.6417 -0.2290 -0.4090
32514SOL    HW2   81   0.071   8.835   0.311 -0.8935  0.3655 -0.6635
32515SOL     OW   82   6.248   3.162   2.677 -0.1215  0.0867  0.1921
32515SOL    HW1   83   6.234   3.102   2.604 -2.9883 -0.0325  0.8072
32515SOL    HW2   84   6.332   3.204   2.657  0.2914 -1.6664 -1.9419
32516SOL     OW   85   3.518   9.025   3.284  0.2117  0.4034 -0.5766
32516SOL    HW1   86   3.485   9.093   3.343  0.8463  0.2827 -0.0700
32516SOL    HW2   87   3.559   9.073   3.212  2.9542  0.6292  1.0456
32517SOL     OW   88   5.786   3.091   9.315  0.6270  0.2487 -0.4706
32517SOL    HW1   89   5.857   3.144   9.279 -1.3710  0.8769 -3.7780
32517SOL    HW2   90   5.708   3.146   9.305 -0.9879 -2.0310 -0.9785
32518SOL     OW   91   7.779   2.226   6.624  0.0658  0.2781  0.8327
32518SOL    HW1   92   7.765   2.236   6.718 -0.2084 -0.2624  0.8502
32518SOL    HW2   93   7.692   2.230   6.586 -0.1966 -2.8428  0.9176
32519SOL     OW   94   5.945   4.268   3.886  0.0446  0.2373 -0.2427
32519SOL    HW1   95   5.877   4.203   3.901  0.0560  0.3369  0.2732
32519SOL    HW2   96   5.970   4.257   3.794 -0.5606  0.1045 -0.3883
32520SOL     OW   97   3.475   0.185   8.168  0.4310 -0.2747 -0.0593
32520SOL    HW1   98   3.504   0.094   8.169  1.0312 -0.1071 -1.6025
32520SOL    HW2   99   3.531   0.228   8.103 -0.9452  0.8192 -0.5516
32521SOL     OW  100   2.623   8.118   4.470  0.3388 -0.4505 -0.3042
32521SOL    HW1  101   2.689   8.068   4.422  2.5798  2.2903 -0.1845
32521SOL    HW2  102   2.589   8.181   4.406  0.5524  0.6322  0.6340
32522SOL     OW  103   4.200   3.570   4.693  0.5158  0.2990 -0.3176
32522SOL    HW1  104   4.140   3.532   4.629  0.6010  0.6564 -0.6143
32522SOL    HW2  105   4.169   3.538   4.777  0.2082  0.0843 -0.5107
32523SOL     OW  106   6.102   5.917   4.732 -0.1971 -0.3683 -0.3621
32523SOL    HW1  107   6.014   5.953   4.716 -0.7204 -0.2028  2.5194
32523SOL    HW2  108   6.155   5.993   4.755  0.2897 -0.6743 -0.4734
32524SOL     OW  109   2.988   3.263   2.335 -0.3901 -0.2642  0.0486
32524SOL    HW1  110   3.074   3.245   2.374 -0.7296 -0.1625  0.8429
32524SOL    HW2  111   2.928   3.268   2.410 -0.7788  1.4347 -0.3739
32525SOL     OW  112   0.180   1.222   5.541  0.1212 -0.3973  0.0447
32525SOL    HW1  113   0.186   1.208   5.446  0.8702  0.5043 -0.0387
32525SOL    HW2  114   0.123   1.298   5.550 -0.9432 -1.2147  0.3757
32526SOL     OW  115   0.750   9.728   0.539  0.2632  0.3112  0.0068
32526SOL    HW1  116   0.764   9.753   0.630  0.6651  0.5489 -0.1145
32526SOL    HW2  117   0.660   9.696   0.535  1.3617 -3.1487  1.2417
32527SOL     OW  118   4.958   0.645   1.490 -0.0227 -0.2102  0.2752
32527SOL    HW1  119   4.971   0.728   1.444 -1.0536 -0.4268 -0.4305
32527SOL    HW2  120   5.035   0.636   1.546  0.1132  1.2013  0.3236
32528SOL     OW  121   4.500   4.149   0.734 -0.0950  0.2804 -0.3760
32528SOL    HW1  122   4.572   4.086   0.724  0.3241  0.2606  2.2695
32528SOL    HW2  123   4.509   4.208   0.659  0.1464 -2.1617 -2.3256
32529SOL     OW  124   9.551   1.788   5.248  0.3059 -0.3544  0.4213
32529SOL    HW1  125   9.619   1.830   5.301  1.0743  0.3428 -1.1036
32529SOL    HW2  126   9.519   1.857   5.190  0.9174 -1.5901 -1.4447
32530SOL     OW  127   0.124   6.618  10.084 -0.3967  0.6509  0.1626
32530SOL    HW1  128   0.150   6.659  10.167  0.5897 -2.2612  1.3489
32530SOL    HW2  129   0.203   6.620  10.031  0.1586 -1.1893  0.8711
32531SOL     OW  130   0.321   2.391   5.722 -0.7343  0.2590 -0.1226
32531SOL    HW1  131   0.376   2.326   5.677  1.2528  1.1543  0.9606
32531SOL    HW2  132   0.311   2.462   5.658 -1.4215 -0.3338 -0.6689
32532SOL     OW  133   7.388   9.686   3.298 -0.2634 -0.0251  0.4159
32532SOL    HW1  134   7.386   9.781   3.284 -0.1694 -0.3905 -2.2839
32532SOL    HW2  135   7.301   9.665   3.331 -0.1577  1.0396  1.4168
32533SOL     OW  136   5.212   4.701   5.987 -0.2680 -0.0300 -0.0012
32533SOL    HW1  137   5.166   4.618   6.001 -0.4046 -0.0466 -0.5577
32533SOL    HW2  138   5.176   4.736   5.906 -1.2363  1.2787  0.9723
32534SOL     OW  139   8.746   5.408   0.139 -0.2966  0.3795  0.4914
32534SOL    HW1  140   8.807   5.481   0.154  0.3356 -0.1228  0.3700
32534SOL    HW2  141   8.720   5.417   0.047 -1.9798  1.7822  1.0587
32535SOL     OW  142   7.508   1.170   1.313  0.5910  0.2806  0.1209
32535SOL    HW1  143   7.597   1.134   1.303  0.4593 -0.4420  1.4395
32535SOL    HW2  144   7.451   1.103   1.276  0.5273  0.2582  0.2578
32536SOL     OW  145   2.710   8.642   0.360  0.7143  0.6317  0.4836
32536SOL    HW1  146   2.733   8.694   0.437  0.3856  0.1367  0.9185
32536SOL    HW2  147   2.754   8.686   0.287  1.5346  0.7497  1.0418
32537SOL     OW  148   3.074   8.374   9.042 -0.5352 -0.0554  0.1426
32537SOL    HW1  149   3.086   8.336   8.955  1.8077 -1.8024  1.1911
32537SOL    HW2  150   3.003   8.323   9.081 -1.0695  0.2309 -0.4411
32538SOL     OW  151   2.526   1.000   5.284  0.1852  0.0150  0.7596
32538SOL    HW1  152   2.447   0.965   5.325 -0.2377  1.1056  0.9008
32538SOL    HW2  153   2.537   1.087   5.323  0.3626  0.6419 -0.6383
32539SOL     OW  154   3.316   0.472   5.997 -0.4768 -0.5054 -0.0830
32539SOL    HW1  155   3.313   0.380   5.968  0.6265 -0.1652 -1.3509
32539SOL    HW2  156   3.316   0.522   5.916  2.0277  0.5056  0.4991
32540SOL     OW  157   1.789   4.949   2.470 -0.1156 -0.1707  0.0937
32540SOL    HW1  158   1.775   4.955   2.376 -2.0030 -0.2587  0.3466
32540SOL    HW2  159   1.883   4.961   2.481  0.1235 -0.1560 -1.7955
32541SOL     OW  160   9.176   3.654   8.145  0.1395 -1.1491  0.0537
32541SOL    HW1  161   9.202   3.739   8.180  1.7277 -1.7902  0.4572
32541SOL    HW2  162   9.106   3.624   8.203  0.8794 -0.9677  1.0498
32542SOL     OW  163   4.328   8.661   4.102  0.2121  0.1781  0.0595
32542SOL    HW1  164   4.381   8.733   4.136  0.9429 -0.9550  1.3722
32542SOL    HW2  165   4.301   8.612   4.179 -2.3390  0.4252 -0.6301
32543SOL     OW  166   8.789   5.862   1.937 -0.1649  0.9498  0.3443
32543SOL    HW1  167   8.711   5.897   1.893  0.6462  0.5726 -1.4432
32543SOL    HW2  168   8.779   5.889   2.028 -1.2966  2.7970 -0.2962
32544SOL     OW  169   3.719   4.623   4.721 -0.0569  0.0041 -0.0107
32544SOL    HW1  170   3.732   4.537   4.680 -0.6835 -0.5854  1.0392
32544SOL    HW2  171   3.755   4.614   4.809 -3.4013 -0.2936  1.3997
32545SOL     OW  172   6.679   5.792   2.199  0.3723  0.0145 -0.6032
32545SOL    HW1  173   6.588   5.772   2.176  0.2017 -1.1208  0.9932
32545SOL    HW2  174   6.673   5.842   2.280  1.2152 -1.1166  0.1689
32546SOL     OW  175   5.590   7.399   9.552 -0.6806 -0.1723 -0.4707
32546SOL    HW1  176   5.658   7.424   9.615 -0.9528 -0.2966 -0.1227
32546SOL    HW2  177   5.567   7.309   9.577 -0.3900 -0.4274 -1.1022
32547SOL     OW  178   0.113   1.356   8.688  0.2574 -0.6147  0.2851
32547SOL    HW1  179   0.046   1.418   8.718  0.9180  0.5887 -0.6835
32547SOL    HW2  180   0.093   1.275   8.735 -1.8312 -0.2516  0.0642
32548SOL     OW  181   5.867   9.597   5.928 -0.5611 -0.3789 -0.2057
32548SOL    HW1  182   5.843   9.685   5.957  0.7485 -0.0058 -0.2268
32548SOL    HW2  183   5.786   9.546   5.936 -0.5411  0.0041  2.8754
32549SOL     OW  184   9.808   8.634   0.102 -0.3467  0.0261 -0.0300
32549SOL    HW1  185   9.829   8.686   0.024  1.4241  0.5209  0.7406
32549SOL    HW2  186   9.874   8.661   0.167 -0.8865 -1.4506  1.1553
32550SOL     OW  187   3.050   8.729  10.158 -0.7865  0.5341  0.6741
32550SOL    HW1  188   3.077   8.816  10.190  1.3908 -0.3397  1.3144
32550SOL    HW2  189   3.118   8.670  10.190 -1.0190 -1.0785 -1.6841
32551SOL     OW  190   9.713   1.592   8.053 -0.2038  0.3892  0.2107
32551SOL    HW1  191   9.735   1.586   8.146 -1.1712  0.8199  0.4722
32551SOL    HW2  192   9.730   1.504   8.018  0.4832  0.3182  0.7160
32552SOL     OW  193   4.044   8.834   6.115 -0.1896 -0.8128 -0.0233
32552SOL    HW1  194   3.976   8.788   6.066  0.7705 -0.4658 -1.7237
32552SOL    HW2  195   4.117   8.840   6.053  0.7445  0.3830  1.1850
32553SOL     OW  196   0.787   6.317   2.630  0.0311 -0.0631  0.7171
32553SOL    HW1  197   0.861   6.270   2.592 -1.8940 -1.7327 -1.0305
32553SOL    HW2  198   0.776   6.278   2.717 -0.9651 -2.2414 -0.3612
32554SOL     OW  199   0.343   2.763   0.238 -0.1782 -0.2633  0.2004
32554SOL    HW1  200   0.345   2.813   0.156  1.4351 -0.2256  0.2344
32554SOL    HW2  201   0.293   2.684   0.217 -0.7210  0.2736 -0.5164
32555SOL     OW  202   9.594   0.964   6.231 -0.0933  0.1560 -0.2209
32555SOL    HW1  203   9.615   1.026   6.161  0.9392 -2.6721 -2.4975
32555SOL    HW2  204   9.524   0.909   6.195  0.2062 -1.1126  1.0798
32556SOL     OW  205  10.010   8.729   0.245 -0.3754 -0.0414  0.0989
32556SOL    HW1  206  10.100   8.757   0.261 -0.1490  0.5759 -2.1596
32556SOL    HW2  207   9.991   8.667   0.316  1.3653  0.8040  1.3378
32557SOL     OW  208   8.673   3.113   2.685  0.5531 -0.0449  0.2832
32557SOL    HW1  209   8.709   3.201   2.686  1.0651 -0.2510  0.0548
32557SOL    HW2  210   8.642   3.101   2.595 -2.1451  0.9567  1.0300
32558SOL     OW  211   1.418   9.839   8.823 -0.5683 -0.1172 -0.5478
32558SOL    HW1  212   1.511   9.821   8.814  0.0533  2.6082 -0.0757
32558SOL    HW2  213   1.395   9.804   8.909  1.0791  2.9418  1.2480
32559SOL     OW  214   9.079   3.884   9.325 -0.2827 -0.4605  0.0380
32559SOL    HW1  215   9.140   3.956   9.343 -0.2651 -0.3470 -0.4805
32559SOL    HW2  216   8.997   3.927   9.304 -0.2649 -0.5899 -0.2985
32560SOL     OW  217   2.304   8.360   3.108 -0.1569  0.1424 -0.1213
32560SOL    HW1  218   2.279   8.271   3.134 -1.2627  0.7595  0.9925
32560SOL    HW2  219   2.224   8.398   3.073  0.2344  0.7926 -0.3085
32561SOL     OW  220   4.953   9.764   3.480 -0.0216 -0.0604  0.0529
32561SOL    HW1  221   4.873   9.749   3.530 -0.0375  0.3728  0.1581
32561SOL    HW2  222   4.962   9.686   3.426 -1.0891  0.3354 -0.7327
32562SOL     OW  223   3.731   1.786   2.784 -0.3293 -0.3203 -0.0591
32562SOL    HW1  224   3.663   1.827   2.838  0.3806  0.2293  0.4267
32562SOL    HW2  225   3.736   1.696   2.816 -0.8022 -0.3517 -0.0735
32563SOL     OW  226   9.400   2.020   8.899 -0.2454 -0.4660  0.3391
32563SOL    HW1  227   9.401   2.107   8.859  0.4811 -0.3600  0.5729
32563SOL    HW2  228   9.320   1.979   8.867 -0.2440  0.0402 -0.3159
32564SOL     OW  229   7.253   8.009   2.453 -0.2705  0.3972  0.5935
32564SOL    HW1  230   7.336   8.018   2.407  0.2385  1.9317  1.7709
32564SOL    HW2  231   7.186   8.022   2.386  0.4193 -1.1380 -0.4130
32565SOL     OW  232   8.837   3.000   9.005 -0.5995 -0.3380 -0.3002
32565SOL    HW1  233   8.748   2.992   9.038  0.0835 -1.7272  1.3014
32565SOL    HW2  234   8.865   3.087   9.034 -1.4482  0.1302 -0.8732
32566SOL     OW  235   3.125   0.519   1.720 -0.0971 -0.2673 -0.2088
32566SOL    HW1  236   3.082   0.471   1.790 -0.2878 -0.1513 -0.2480
32566SOL    HW2  237   3.192   0.459   1.688 -0.0915 -0.3686 -0.0117
32567SOL     OW  238   5.168   1.652   0.851  0.2014  0.2484 -0.1228
32567SOL    HW1  239   5.175   1.736   0.805 -0.1387 -0.9141 -2.3743
32567SOL    HW2  240   5.156   1.588   0.781 -0.7843 -1.5394  1.6514
32568SOL     OW  241   6.806   0.786   0.249  0.2243 -0.0455 -0.7886
32568SOL    HW1  242   6.838   0.854   0.308  0.0495 -1.0244  0.4605
32568SOL    HW2  243   6.775   0.833   0.172  2.8220  1.0672 -1.1986
32569SOL     OW  244   3.699   9.974   9.354 -0.1648  0.1409 -0.0089
32569SOL    HW1  245   3.784   9.934   9.372  0.0683 -0.4965 -2.3149
32569SOL    HW2  246   3.717  10.068   9.354  0.7301 -0.0194 -1.2890
32570SOL     OW  247   4.181   7.956   0.349 -0.1045 -0.0685 -0.1982
32570SOL    HW1  248   4.095   7.931   0.314 -0.4008  1.6212 -0.7297
32570SOL    HW2  249   4.163   8.033   0.403  1.0036 -0.0581  0.1645
32571SOL     OW  250   9.309   5.032   1.024  0.4944  0.0307  0.2951
32571SOL    HW1  251   9.246   5.104   1.015  0.8460  0.3023 -0.0145
32571SOL    HW2  252   9.342   5.018   0.935  0.4928 -0.4511  0.3735
32572SOL     OW  253   9.802   9.685   8.766 -0.3259  0.2968  0.0794
32572SOL    HW1  254   9.737   9.736   8.717 -0.1926 -0.4931 -0.9298
32572SOL    HW2  255   9.857   9.751   8.809 -0.2523  1.0002 -1.0841
32573SOL     OW  256   5.831   6.565   8.777  0.1488  0.0683 -0.0144
32573SOL    HW1  257   5.905   6.551   8.835  0.3521  0.2386 -0.2323
32573SOL    HW2  258   5.856   6.640   8.723  0.5320 -0.9083 -1.2321
32574SOL     OW  259   7.792   8.928   3.220  0.4286 -0.2960  0.0479
32574SOL    HW1  260   7.818   8.879   3.298  2.1929  1.6402  0.7165
32574SOL    HW2  261   7.726   8.990   3.251  2.1477  1.4386  0.3291
32575SOL     OW  262   3.456   7.577   3.452  0.6632  0.3785 -0.3466
32575SOL    HW1  263   3.426   7.492   3.420  0.8619  0.7264 -1.4875
32575SOL    HW2  264   3.546   7.563   3.479  0.4867  0.0740  0.0853
32576SOL     OW  265   8.102   6.822   4.839  0.5014  0.2233  0.0707
32576SOL    HW1  266   8.159   6.844   4.765 -0.8811  0.7648 -0.8648
32576SOL    HW2  267   8.125   6.732   4.861  1.8889  0.5217 -0.1211
32577SOL     OW  268   7.646   5.929   7.470  0.1751 -0.2259 -0.3111
32577SOL    HW1  269   7.729   5.962   7.505 -0.4273 -1.1245  2.0549
32577SOL    HW2  270   7.634   5.845   7.513 -2.0606 -0.0080 -0.4542
32578SOL     OW  271   3.312   8.719   1.236 -0.3739  0.2501  0.0517
32578SOL    HW1  272   3.330   8.628   1.258 -1.1852 -0.0818 -0.6318
32578SOL    HW2  273   3.234   8.716   1.181  0.4410  1.2167 -1.2083
32579SOL     OW  274   6.964   0.962   4.644 -0.3078  0.6095 -0.0465
32579SOL    HW1  275   6.903   0.997   4.709 -0.4688  1.8589 -0.8606
32579SOL    HW2  276   6.910   0.947   4.566 -0.0618 -0.6278  0.0070
32580SOL     OW  277   3.369   3.872   5.532 -0.6143 -0.5550  0.0465
32580SOL    HW1  278   3.349   3.814   5.458 -1.1119 -2.1998  1.4327
32580SOL    HW2  279   3.431   3.935   5.496  0.5473 -2.4117 -1.3534
32581SOL     OW  280   5.433   5.302   4.846  0.0422  0.0275  0.0045
32581SOL    HW1  281   5.462   5.302   4.755 -0.0423  1.8500 -0.0535
32581SOL    HW2  282   5.367   5.232   4.850 -1.6922  1.4631 -1.9418
32582SOL     OW  283   9.166   5.905   3.435 -0.1869  0.1390  0.2909
32582SOL    HW1  284   9.254   5.937   3.452 -0.2699 -0.1376  1.3096
32582SOL    HW2  285   9.152   5.838   3.502 -1.6607  1.1018  0.9670
32583SOL     OW  286   8.306   3.119   4.561 -0.1835  0.5124 -0.7368
32583SOL    HW1  287   8.350   3.162   4.635 -1.0368  0.8432 -0.4103
32583SOL    HW2  288   8.231   3.176   4.542 -1.3415 -0.8308 -0.2950
32584SOL     OW  289   9.391   6.053   0.532  0.2868  0.1057 -0.2633
32584SOL    HW1  290   9.373   6.069   0.624 -0.6711 -0.0006 -0.4220
32584SOL    HW2  291   9.374   6.137   0.489  1.0260  0.2381 -0.3087
32585SOL     OW  292   0.896   2.295   3.375  0.0482  0.1483  0.3745
32585SOL    HW1  293   0.827   2.293   3.309 -1.7078  0.7592  2.1086
32585SOL    HW2  294   0.891   2.384   3.412  0.3298 -0.4769  1.9712
32586SOL     OW  295   7.420   4.212   0.376  0.3394 -0.5447  0.3665
32586SOL    HW1  296   7.440   4.141   0.437 -0.1792 -1.5449 -0.6111
32586SOL    HW2  297   7.505   4.247   0.351  0.6032 -0.8539  0.8164
32587SOL     OW  298  10.003   9.601   2.377  0.9773 -0.3449  0.5718
32587SOL    HW1  299  10.022   9.589   2.470  0.3962 -1.3137  0.5729
32587SOL    HW2  300  10.018   9.515   2.338 -0.3051 -0.3458  0.0425
32588SOL     OW  301   6.982   8.224   4.971  0.7276 -0.1950 -0.6690
32588SOL    HW1  302   6.994   8.174   5.051  2.2906 -1.4118 -1.6202
32588SOL    HW2  303   7.070   8.251   4.946 -0.0804  3.1563 -0.1436
32589SOL     OW  304   4.126   0.064   6.326 -0.0765 -0.1446 -0.1808
32589SOL    HW1  305   4.190   0.076   6.255 -0.4375  0.9107 -0.3473
32589SOL    HW2  306   4.146   0.135   6.387  0.5413 -1.3313  1.0300
32590SOL     OW  307   9.902   7.152   1.055 -0.4866 -0.4098 -0.2191
32590SOL    HW1  308   9.831   7.124   0.997  0.4442 -3.2531 -0.0653
32590SOL    HW2  309   9.980   7.107   1.022  0.3302 -1.0085  2.3770
32591SOL     OW  310   1.313   7.564   9.281 -0.0892  0.2135  0.4555
32591SOL    HW1  311   1.241   7.589   9.223  0.3066 -0.1252 -0.1885
32591SOL    HW2  312   1.275   7.568   9.369 -1.6215 -2.3374 -0.0341
32592SOL     OW  313   5.844   2.998   2.433  0.3641 -0.2785  0.4239
32592SOL    HW1  314   5.791   2.941   2.377 -1.2129 -0.7490  2.3241
32592SOL    HW2  315   5.824   3.087   2.403  2.2291 -0.6644 -2.0347
32593SOL     OW  316   1.851   3.286   7.487  0.2425 -0.4846 -0.4461
32593SOL    HW1  317   1.770   3.269   7.536  0.3035  0.2465 -0.0792
32593SOL    HW2  318   1.825   3.282   7.395  0.3334 -2.8845 -0.3818
32594SOL     OW  319   3.655   1.911   1.448 -0.0414 -0.1937 -0.2164
32594SOL    HW1  320   3.731   1.894   1.504 -0.0252 -0.0807 -0.2035
32594SOL    HW2  321   3.689   1.905   1.359  0.1202  0.4834 -0.2035
32595SOL     OW  322   6.585   8.195   9.010  0.2325  0.6423  0.2580
32595SOL    HW1  323   6.652   8.213   9.075  0.4907 -0.3445  0.2650
32595SOL    HW2  324   6.532   8.125   9.048  0.3021  0.1554 -0.5370
32596SOL     OW  325   0.381   7.488   0.149 -0.3768  0.3563  0.0976
32596SOL    HW1  326   0.356   7.536   0.228 -0.2887 -0.6170  0.7297
32596SOL    HW2  327   0.356   7.397   0.167 -0.3250  0.1153 -0.9807
32597SOL     OW  328   6.068   2.556   6.464  0.1967  0.2507 -0.2418
32597SOL    HW1  329   6.070   2.582   6.556  0.5815 -1.6455  0.3208
32597SOL    HW2  330   6.009   2.619   6.422 -0.0446  1.0889  1.3159
32598SOL     OW  331   4.890   8.975   4.799 -0.5752  0.3451  0.2876
32598SOL    HW1  332   4.973   9.020   4.810 -0.5673  0.4248 -0.0904
32598SOL    HW2  333   4.905   8.913   4.728 -0.6428 -0.1153  0.6778
32599SOL     OW  334   9.983   1.158   4.074  0.2264 -0.0120  0.0087
32599SOL    HW1  335  10.058   1.196   4.120 -0.3891  0.8809  0.2920
32599SOL    HW2  336  10.017   1.078   4.035  1.2192  0.1576  0.5031
32600SOL     OW  337   2.380   4.736   6.562  0.0088 -0.4681  0.3138
32600SOL    HW1  338   2.475   4.731   6.561  0.0093 -1.2573  1.8921
32600SOL    HW2  339   2.359   4.787   6.640 -0.8364  0.4871 -0.5317
32601SOL     OW  340   7.556   0.159   0.561 -0.6251 -0.0826 -0.4856
32601SOL    HW1  341   7.499   0.114   0.623 -1.7143  2.1831  0.2452
32601SOL    HW2  342   7.620   0.204   0.616  0.7806 -1.1374 -1.2176
32602SOL     OW  343   0.793   1.740   5.872 -0.7644  0.2212  0.4152
32602SOL    HW1  344   0.763   1.720   5.784 -0.9614  1.8876  0.0893
32602SOL    HW2  345   0.883   1.708   5.876 -1.1072 -0.7969 -0.0471
32603SOL     OW  346   7.343   9.085   9.995 -0.4936  0.0806 -0.1067
32603SOL    HW1  347   7.298   9.072   9.911 -1.3257 -0.6178  0.4379
32603SOL    HW2  348   7.383   9.172   9.987 -1.6343  0.5626 -0.7575
32604SOL     OW  349   7.842   2.203   9.122 -0.5715  0.7486  0.3893
32604SOL    HW1  350   7.901   2.137   9.158 -0.3936  0.9012  0.3791
32604SOL    HW2  351   7.872   2.286   9.159  1.9952  1.4504 -2.9843
32605SOL     OW  352   3.629   9.787   0.226  0.1116  0.1004  0.5324
32605SOL    HW1  353   3.681   9.711   0.199 -1.3269 -0.6365 -0.2734
32605SOL    HW2  354   3.626   9.782   0.322  0.3867 -0.6159  0.5033
32606SOL     OW  355   2.329   9.820   6.519 -0.1753 -0.0737 -0.1963
32606SOL    HW1  356   2.384   9.898   6.512  0.3808 -0.5655 -1.5179
32606SOL    HW2  357   2.244   9.852   6.550 -0.4708  1.2791 -2.3271
32607SOL     OW  358   5.159   6.786   3.803 -0.6419 -0.3152  0.0395
32607SOL    HW1  359   5.147   6.859   3.864 -0.1346 -0.5351  0.4042
32607SOL    HW2  360   5.173   6.828   3.718  2.2002  0.0914  0.6643
32608SOL     OW  361   3.433   3.843   3.933  0.7376  0.2975 -0.2820
32608SOL    HW1  362   3.391   3.915   3.885  3.0133  0.7568 -1.6252
32608SOL    HW2  363   3.509   3.883   3.974  1.9732 -1.3207 -0.9462
32609SOL     OW  364   6.794   4.753   8.155 -0.8113 -0.3657 -0.0263
32609SOL    HW1  365   6.851   4.730   8.229 -1.6795 -0.3748  0.6449
32609SOL    HW2  366   6.808   4.683   8.092 -0.2390 -0.4819  0.2184
32610SOL     OW  367   6.565   3.074   2.635 -0.3559  0.5489 -0.5096
32610SOL    HW1  368   6.625   3.067   2.709 -1.5517  0.5872  0.4810
32610SOL    HW2  369   6.552   3.168   2.624 -1.0361  0.5132 -0.0531
32611SOL     OW  370   6.620   3.166   1.735 -0.1084  0.0087  0.0767
32611SOL    HW1  371   6.642   3.208   1.652  0.2864 -0.6384 -0.1478
32611SOL    HW2  372   6.702   3.124   1.764 -0.2583  0.1787  0.7585
32612SOL     OW  373   8.165   2.474   6.662  0.6018 -0.1416  0.2389
32612SOL    HW1  374   8.134   2.403   6.606 -0.3257  0.2201  0.2768
32612SOL    HW2  375   8.152   2.442   6.751  3.9434 -1.5259  0.3157
32613SOL     OW  376   5.310   5.575   0.510 -0.1995 -0.0238 -0.0657
32613SOL    HW1  377   5.286   5.527   0.431 -2.2128  0.5315  0.1774
32613SOL    HW2  378   5.350   5.510   0.567 -2.8098 -1.4324  0.2236
32614SOL     OW  379   9.779   3.915   3.746  0.0585  0.2667 -0.7461
32614SOL    HW1  380   9.864   3.875   3.726 -0.4324 -0.2819 -1.7856
32614SOL    HW2  381   9.777   3.996   3.695  0.5720  1.0463  0.4554
32615SOL     OW  382   4.574   7.887   2.848 -0.5533 -0.2999 -0.3066
32615SOL    HW1  383   4.534   7.875   2.934 -0.2197  1.2312  0.0712
32615SOL    HW2  384   4.606   7.799   2.824 -1.2617 -0.8726  0.8099
32616SOL     OW  385   6.185   5.339   1.866 -0.6641  0.7375  0.1938
32616SOL    HW1  386   6.240   5.304   1.796 -0.2115  0.3012  0.7685
32616SOL    HW2  387   6.120   5.393   1.820 -0.1374  0.7628 -0.5322
32617SOL     OW  388   6.184   7.982   3.434  0.0107 -0.1839  0.0768
32617SOL    HW1  389   6.168   7.890   3.412  0.0818 -0.0936 -0.3717
32617SOL    HW2  390   6.110   8.029   3.394 -1.3135 -0.2768  2.3228
32618SOL     OW  391   1.339   2.692   8.372  0.0672  0.0468 -0.2354
32618SOL    HW1  392   1.405   2.738   8.423  1.8171 -0.7763 -1.6759
32618SOL    HW2  393   1.327   2.746   8.294 -1.1095  0.2794  0.1009
32619SOL     OW  394   7.407   1.744   0.151 -0.3215  0.5042 -0.3596
32619SOL    HW1  395   7.388   1.750   0.057 -0.2388 -0.7699 -0.4607
32619SOL    HW2  396   7.425   1.834   0.177  1.3254  0.6649 -1.9319
32620SOL     OW  397   5.833   9.077   2.974 -0.1710 -0.2958  0.3985
32620SOL    HW1  398   5.741   9.053   2.975 -0.3871  0.5108  0.7453
32620SOL    HW2  399   5.860   9.066   2.883 -0.5313 -0.8189  0.3542
32621SOL     OW  400   8.014   0.829   1.082  0.5159 -0.0691 -0.0537
32621SOL    HW1  401   7.930   0.840   1.126 -0.7353 -0.7672 -2.1633
32621SOL    HW2  402   8.033   0.735   1.090  0.6982 -0.0519 -0.2778
32622SOL     OW  403   8.483  10.144   8.700 -0.0706  0.3120 -0.1347
32622SOL    HW1  404   8.437  10.217   8.742  0.5504  1.3646 -1.2925
32622SOL    HW2  405   8.428  10.121   8.625 -0.9843 -1.3354  0.9909
32623SOL     OW  406   7.906   3.509   5.738 -0.7157 -0.2570 -0.1962
32623SOL    HW1  407   7.890   3.603   5.748  0.0009 -0.1544 -0.0330
32623SOL    HW2  408   8.000   3.499   5.748 -1.1126 -1.3960  3.0631
32624SOL     OW  409   8.632   5.803   7.608 -0.3583  0.3991 -0.2368
32624SOL    HW1  410   8.647   5.846   7.524  1.5517  1.4368  0.6128
32624SOL    HW2  411   8.608   5.874   7.668  0.5234 -0.0129  0.6257
32625SOL     OW  412   9.626   0.041   0.940 -0.4514  0.0780  0.7569
32625SOL    HW1  413   9.625   0.137   0.932  2.1746  0.1450  0.9815
32625SOL    HW2  414   9.623   0.010   0.850 -0.6169  0.3716  0.6585
32626SOL     OW  415   7.312   5.061   5.413  0.2097  0.0692 -0.3301
32626SOL    HW1  416   7.305   5.088   5.322  1.2358  4.1028  0.6938
32626SOL    HW2  417   7.401   5.027   5.421  0.4829  0.7183 -0.5898
32627SOL     OW  418   5.500   7.529   2.415 -0.2965 -0.1016 -0.0466
32627SOL    HW1  419   5.587   7.491   2.415 -1.3347 -2.6240 -1.0693
32627SOL    HW2  420   5.463   7.506   2.500 -0.9278 -1.4810 -0.6694
32628SOL     OW  421   8.517   6.416   5.259  0.5886 -0.3395  0.4174
32628SOL    HW1  422   8.522   6.321   5.251 -0.7958 -0.4346  0.5790
32628SOL    HW2  423   8.601   6.447   5.224  1.0116 -1.6078  0.2748
32629SOL     OW  424   5.940   8.005   1.638 -0.1451  0.5295 -0.7847
32629SOL    HW1  425   5.858   8.029   1.682 -0.1191  1.2785 -1.1335
32629SOL    HW2  426   5.965   7.921   1.677  0.4138  1.6640  1.3574
32630SOL     OW  427   3.619   2.007   7.014  0.0498  0.1309 -0.0386
32630SOL    HW1  428   3.707   2.043   7.015  0.2156 -0.2729  1.1350
32630SOL    HW2  429   3.570   2.062   7.076 -0.1762 -0.4891  0.3367
32631SOL     OW  430   1.654   7.333   0.167 -0.0045  0.5270  0.9498
32631SOL    HW1  431   1.714   7.396   0.208 -0.5493  0.8453  1.2771
32631SOL    HW2  432   1.709   7.260   0.140  0.7761  1.5430 -0.2514
32632SOL     OW  433   3.700   7.177   4.440 -0.2002  0.2350  0.4560
32632SOL    HW1  434   3.699   7.105   4.503 -0.2930  0.2985  0.5282
32632SOL    HW2  435   3.608   7.202   4.431 -0.3222 -0.5905 -0.6510
32633SOL     OW  436   6.665   1.043   9.976  0.1496  0.2755  0.1852
32633SOL    HW1  437   6.664   1.017   9.884  0.7024  0.8643  0.0126
32633SOL    HW2  438   6.743   1.098   9.985  1.0811 -1.2052  1.4131
32634SOL     OW  439   5.921   0.392   5.539 -0.0627 -0.4791  0.3799
32634SOL    HW1  440   5.874   0.322   5.494 -0.7258  0.4966 -0.4745
32634SOL    HW2  441   5.856   0.431   5.598 -0.1833  0.4953 -0.3802
32635SOL     OW  442   3.479   8.375   8.886  0.7050  0.4651 -0.0387
32635SOL    HW1  443   3.419   8.302   8.870 -1.3826  2.2807 -0.7588
32635SOL    HW2  444   3.437   8.426   8.955  0.7093  2.4772 -1.4574
32636SOL     OW  445   4.331   3.503   1.645  0.3263  0.0229  0.0735
32636SOL    HW1  446   4.422   3.527   1.658  0.0252  0.3622  1.7963
32636SOL    HW2  447   4.285   3.586   1.634  0.1259 -0.0987 -0.0158
32637SOL     OW  448   3.703   0.616   7.627 -0.6096  0.3691 -0.2120
32637SOL    HW1  449   3.778   0.614   7.686 -0.4617  0.5078 -0.3926
32637SOL    HW2  450   3.654   0.694   7.653 -0.2540  0.7333 -0.6241
32638SOL     OW  451   9.959   8.975   9.118  0.0791  0.1291 -0.3721
32638SOL    HW1  452  10.021   9.040   9.150  1.4918 -1.5053  0.3016
32638SOL    HW2  453   9.936   8.923   9.195  0.0303 -1.0198 -1.1392
32639SOL     OW  454   9.140   0.160   6.016 -0.6108  0.2321 -0.1371
32639SOL    HW1  455   9.082   0.145   6.091  1.5808 -1.0025  1.4026
32639SOL    HW2  456   9.228   0.157   6.054  0.6483 -2.0647 -3.0076
32640SOL     OW  457   4.488  10.161   9.105  0.3279 -0.5579 -0.4044
32640SOL    HW1  458   4.416  10.188   9.049 -0.3294  1.1133  1.1959
32640SOL    HW2  459   4.513  10.075   9.072 -0.7216 -0.0664 -2.5741
32641SOL     OW  460   8.233   2.597   9.050  0.1789 -0.4515 -0.1131
32641SOL    HW1  461   8.155   2.605   8.994 -0.4278 -0.5919  0.7049
32641SOL    HW2  462   8.216   2.521   9.105  0.6355 -0.1391  0.4695
32642SOL     OW  463   0.266   8.513   7.493 -0.4444  0.2160  0.2758
32642SOL    HW1  464   0.320   8.455   7.547 -0.9314 -0.3103  0.1983
32642SOL    HW2  465   0.231   8.577   7.554 -1.7143 -0.9036  0.7555
32643SOL     OW  466   3.993   9.847   9.374 -0.1608 -0.3380 -0.0382
32643SOL    HW1  467   3.984   9.805   9.288 -1.0739  0.9475 -0.5889
32643SOL    HW2  468   4.086   9.863   9.383 -0.2587  1.3694 -1.7152
32644SOL     OW  469   9.714   2.699   3.543 -0.0035 -0.0850 -1.3328
32644SOL    HW1  470   9.686   2.644   3.470 -0.1206 -2.4124  0.3956
32644SOL    HW2  471   9.650   2.681   3.612  0.9131  0.9731 -0.1833
32645SOL     OW  472   3.047   2.008   5.273  0.2193 -0.1163  0.1090
32645SOL    HW1  473   3.002   2.054   5.201 -0.5117 -0.0171  0.6277
32645SOL    HW2  474   2.981   2.000   5.341  0.5381 -1.3452  0.2888
32646SOL     OW  475   9.635   9.043   6.572  0.0855 -0.3045  0.0836
32646SOL    HW1  476   9.722   9.035   6.532  0.5541 -0.1348  1.0316
32646SOL    HW2  477   9.653   9.076   6.660 -0.7676 -2.3099  1.0548
32647SOL     OW  478   5.287   9.355   6.841 -0.8345  0.1855 -0.3582
32647SOL    HW1  479   5.244   9.335   6.758 -0.8857  0.5235 -0.4122
32647SOL    HW2  480   5.216   9.361   6.904 -0.6205 -2.5363  0.2137
32648SOL     OW  481   0.718   7.321   1.291 -0.1947  0.1926 -0.5768
32648SOL    HW1  482   0.771   7.400   1.293 -1.7771  1.2422  0.6596
32648SOL    HW2  483   0.779   7.251   1.314  1.0062  1.1591 -0.7337
32649SOL     OW  484   4.004   3.474   1.777  0.3304 -0.1922  0.1615
32649SOL    HW1  485   3.973   3.534   1.709 -0.2586 -1.0926 -0.3827
32649SOL    HW2  486   3.959   3.502   1.857 -0.0845 -0.0289 -0.1293
32650SOL     OW  487   3.277   4.861   7.736  0.8518  0.3357  0.1025
32650SOL    HW1  488   3.199   4.841   7.788  1.3458 -0.2923  0.6016
32650SOL    HW2  489   3.350   4.850   7.796  1.3927  0.0997 -0.5941
32651SOL     OW  490   9.366   2.025   2.499  0.3260 -0.7137  0.0894
32651SOL    HW1  491   9.312   1.962   2.450 -0.9896 -0.3821  1.0669
32651SOL    HW2  492   9.431   1.971   2.543 -0.4559 -1.3437  0.4957
32652SOL     OW  493   8.737   0.492   7.324 -0.0926  0.4091  0.3193
32652SOL    HW1  494   8.685   0.466   7.247  0.7752 -0.0470 -0.1194
32652SOL    HW2  495   8.806   0.547   7.287  2.5213 -2.7692  0.2689
32653SOL     OW  496   2.775   5.758   7.009  0.9195  0.1082  0.0405
32653SOL    HW1  497   2.871   5.751   7.015  0.8327 -0.5756  0.6485
32653SOL    HW2  498   2.749   5.689   6.948  0.7674 -0.0204  0.2517
32654SOL     OW  499   0.206   0.750   5.890  0.2841  0.2673 -0.3016
32654SOL    HW1  500   0.188   0.763   5.983  1.0965 -0.8180  0.0124
32654SOL    HW2  501   0.200   0.655   5.877  3.1794  0.1014 -0.6988
32655SOL     OW  502   8.664   6.005   6.417  1.0707  0.0776 -0.5763
32655SOL    HW1  503   8.729   5.966   6.359 -0.0013 -0.7488 -1.2460
32655SOL    HW2  504   8.582   5.959   6.396  0.4637  0.4475  0.9083
32656SOL     OW  505   0.174   0.381   1.999 -0.7553 -0.0339  0.5979
32656SOL    HW1  506   0.109   0.359   1.932 -0.8631  1.2012  0.2830
32656SOL    HW2  507   0.159   0.318   2.069 -0.5667 -1.4199 -0.5794
32657SOL     OW  508   0.253  10.066   1.455 -0.3232 -0.3053 -0.2913
32657SOL    HW1  509   0.265  10.015   1.376 -1.6993 -2.6235  0.9520
32657SOL    HW2  510   0.159  10.069   1.469 -0.1190  0.2697  1.1200
32658SOL     OW  511   0.608   5.421   5.039  0.5823  0.0951 -0.2712
32658SOL    HW1  512   0.634   5.341   5.086  0.0935 -0.4837 -0.9871
32658SOL    HW2  513   0.546   5.391   4.973 -2.5842  1.5363  1.8885
32659SOL     OW  514   6.672   1.684   8.600 -0.3285  0.5013  0.1007
32659SOL    HW1  515   6.618   1.668   8.677 -1.6061  1.8484 -0.4870
32659SOL    HW2  516   6.710   1.599   8.579 -0.8093 -0.0909  1.5780
32660SOL     OW  517   6.345   0.843   0.634  0.2147 -0.2137  0.0418
32660SOL    HW1  518   6.291   0.776   0.675  0.1001  1.4856  2.8303
32660SOL    HW2  519   6.289   0.921   0.632  0.5470 -0.0130 -2.5684
32661SOL     OW  520   2.825  10.153   7.733 -0.0152 -0.8883 -0.6476
32661SOL    HW1  521   2.803  10.068   7.695 -0.7529 -1.0597  0.1539
32661SOL    HW2  522   2.920  10.154   7.736  0.0373 -1.1872 -1.7825
32662SOL     OW  523   8.375   3.322   4.249  0.0986 -0.3481 -0.0998
32662SOL    HW1  524   8.466   3.350   4.236 -0.2175  0.8071  0.1972
32662SOL    HW2  525   8.342   3.379   4.318 -0.3282 -1.9302  1.0312
32663SOL     OW  526   2.714   7.883  10.174 -0.6124 -0.2855 -0.2337
32663SOL    HW1  527   2.641   7.887  10.234 -0.5814  0.4209 -0.2440
32663SOL    HW2  528   2.711   7.794  10.139  1.0319 -1.6464  2.8851
32664SOL     OW  529   9.141   1.442   6.876  0.0861  0.4488 -0.6243
32664SOL    HW1  530   9.144   1.426   6.781 -0.8143 -0.6222 -0.4915
32664SOL    HW2  531   9.079   1.376   6.909  0.7115  0.5388  0.7637
32665SOL     OW  532   1.743   8.264   2.612 -0.3927 -0.1621 -0.0069
32665SOL    HW1  533   1.719   8.237   2.701  0.8135  0.2973  0.4748
32665SOL    HW2  534   1.773   8.354   2.621 -0.3679 -0.0746 -0.8998
32666SOL     OW  535   5.270   7.465   3.522 -0.1466  0.1637 -0.1013
32666SOL    HW1  536   5.344   7.460   3.461  0.2999 -2.0206  0.5516
32666SOL    HW2  537   5.279   7.386   3.575 -1.1978  1.4449  2.0192
32667SOL     OW  538   2.712   0.510   5.496  0.3670 -0.4604 -0.0711
32667SOL    HW1  539   2.709   0.600   5.465 -0.3290  0.0812  1.5251
32667SOL    HW2  540   2.773   0.466   5.436 -0.6326  0.6339 -1.9288
32668SOL     OW  541   3.573   9.289   3.420  0.0696 -0.1851 -0.6660
32668SOL    HW1  542   3.616   9.215   3.463 -0.2263  0.0739  0.0857
32668SOL    HW2  543   3.611   9.366   3.462  1.9011  0.1642 -2.8904
32669SOL     OW  544   3.008   4.578   9.485  0.0111 -0.2259 -0.0935
32669SOL    HW1  545   3.092   4.587   9.440 -0.5534 -0.2960 -1.1689
32669SOL    HW2  546   3.014   4.493   9.530  0.3896 -0.3876 -0.4440
32670SOL     OW  547   3.741   7.957   1.488  0.2651  0.3820 -0.9465
32670SOL    HW1  548   3.708   7.898   1.420 -0.0733 -1.1213  0.4769
32670SOL    HW2  549   3.697   7.929   1.568  1.1641  1.6694  0.0348
32671SOL     OW  550   9.621   0.041   0.131  0.0678 -0.1914  0.5131
32671SOL    HW1  551   9.705  -0.002   0.139 -0.2999 -0.6507  2.0980
32671SOL    HW2  552   9.571  -0.013   0.069  1.1994  0.5326 -1.0553
32672SOL     OW  553   9.505   4.331   3.552  0.6447 -0.2534 -0.7336
32672SOL    HW1  554   9.424   4.333   3.501  1.9567  0.6040 -2.8369
32672SOL    HW2  555   9.497   4.405   3.613 -0.1655 -0.1925 -0.9153
32673SOL     OW  556   8.085   2.107   9.274  0.0482  0.5913  0.4878
32673SOL    HW1  557   8.175   2.093   9.245  0.0722  2.8679 -0.5978
32673SOL    HW2  558   8.093   2.146   9.361  0.0779 -0.1818  0.8380
32674SOL     OW  559   5.467   3.323   2.694  0.2558 -0.6291  0.2664
32674SOL    HW1  560   5.377   3.304   2.721 -0.0351 -0.3624 -0.4863
32674SOL    HW2  561   5.480   3.415   2.717  0.1638 -0.5306 -0.0642
32675SOL     OW  562   5.752   6.413   5.104 -0.0636  0.7350 -0.1954
32675SOL    HW1  563   5.807   6.342   5.071  0.1336  0.3453  0.9542
32675SOL    HW2  564   5.717   6.454   5.025 -0.7087 -1.0527 -0.8582
32676SOL     OW  565   4.895   4.716   5.772 -0.2477 -0.0565 -0.2625
32676SOL    HW1  566   4.896   4.722   5.868  0.6642  0.9274 -0.3171
32676SOL    HW2  567   4.987   4.710   5.748 -0.4344  0.4686 -1.1196
32677SOL     OW  568   9.355   5.509   7.341 -0.4082  0.3223 -0.0510
32677SOL    HW1  569   9.423   5.555   7.293 -0.3727 -0.5534 -0.8477
32677SOL    HW2  570   9.369   5.416   7.320 -1.5984  0.1018  0.0945
32678SOL     OW  571   2.712   4.847   1.387 -0.0026  0.3956  0.7216
32678SOL    HW1  572   2.719   4.768   1.333 -0.5481  1.2188 -0.5949
32678SOL    HW2  573   2.674   4.912   1.328  0.0333  1.5167  1.9215
32679SOL     OW  574   1.770   7.273   7.264  0.1638 -0.4104 -0.0473
32679SOL    HW1  575   1.824   7.300   7.338  0.5713 -0.0763 -0.4647
32679SOL    HW2  576   1.809   7.316   7.188 -0.0865 -0.9695 -0.4996
32680SOL     OW  577   0.783   8.583   3.075  0.5291 -0.4301  0.3052
32680SOL    HW1  578   0.771   8.674   3.105  0.0393 -0.5708  0.5349
32680SOL    HW2  579   0.867   8.557   3.113  0.8262  0.0341 -0.0273
32681SOL     OW  580   3.253   6.023   1.683 -0.0368 -0.7821  0.0395
32681SOL    HW1  581   3.328   5.971   1.654  0.4441  0.3529 -0.8372
32681SOL    HW2  582   3.177   5.980   1.644  0.3137 -1.0746 -0.3279
32682SOL     OW  583  10.146   8.809   4.898  0.0493  0.1651 -0.1957
32682SOL    HW1  584  10.132   8.748   4.970 -1.5890  0.1417 -0.5123
32682SOL    HW2  585  10.159   8.754   4.822 -0.2013  0.1975 -0.2629
32683SOL     OW  586   9.199   4.198   2.524  0.1564 -0.3346 -0.2510
32683SOL    HW1  587   9.117   4.168   2.563 -0.2420 -1.1311 -1.6496
32683SOL    HW2  588   9.172   4.262   2.458  0.5446 -1.3662 -1.4471
32684SOL     OW  589   9.116   2.628   7.571 -0.1122  0.2102  0.2204
32684SOL    HW1  590   9.117   2.544   7.616  0.2428 -0.2549 -0.6520
32684SOL    HW2  591   9.031   2.666   7.594 -0.0906 -0.1918  0.9711
32685SOL     OW  592   7.147   9.743   1.783  0.2236 -0.3536  0.1649
32685SOL    HW1  593   7.210   9.807   1.748 -0.2645 -0.1245 -0.3018
32685SOL    HW2  594   7.078   9.797   1.823 -1.0666 -0.5328 -1.7432
32686SOL     OW  595   6.524   8.860   1.111 -0.4296  0.1585  0.3408
32686SOL    HW1  596   6.481   8.938   1.077 -0.7140  0.3514  1.1323
32686SOL    HW2  597   6.564   8.889   1.194  0.8922 -0.1067 -0.1852
32687SOL     OW  598   4.817   8.771   0.271  0.0450 -0.2170 -0.4876
32687SOL    HW1  599   4.863   8.738   0.348  0.7088  0.3277 -0.6430
32687SOL    HW2  600   4.784   8.857   0.299 -0.0062 -0.1676 -0.7037
32688SOL     OW  601   7.083   5.164   4.823  0.3564  0.2630 -0.4325
32688SOL    HW1  602   7.137   5.143   4.746 -0.1734 -0.5960 -0.5822
32688SOL    HW2  603   7.135   5.228   4.871  1.3705 -0.2945 -0.7465
32689SOL     OW  604   7.874   5.964   2.896 -0.0232  0.3969 -0.5065
32689SOL    HW1  605   7.961   5.995   2.871  0.8394 -0.9703  0.7334
32689SOL    HW2  606   7.870   5.980   2.990 -1.2700  0.7847 -0.6186
32690SOL     OW  607   3.879   3.846   3.334  0.4952  0.6502 -0.0802
32690SOL    HW1  608   3.888   3.821   3.426 -1.2230  1.1768  0.2493
32690SOL    HW2  609   3.915   3.772   3.285 -1.3451 -0.9806  0.9619
32691SOL     OW  610   9.200   2.579   6.426  0.0811 -0.1545  0.0785
32691SOL    HW1  611   9.274   2.597   6.484 -0.0302  1.2653 -0.1915
32691SOL    HW2  612   9.207   2.485   6.406  2.3526  0.1281 -0.6720
32692SOL     OW  613  10.088   0.635   1.329  0.6774 -0.8225  0.3782
32692SOL    HW1  614  10.129   0.653   1.413 -1.7933 -1.6389  1.8083
32692SOL    HW2  615  10.029   0.562   1.346  1.1586 -1.9115 -2.3933
32693SOL     OW  616   9.970   7.426   2.318  0.3036 -0.0343  0.2938
32693SOL    HW1  617  10.006   7.501   2.365  0.2830  0.3046 -0.2242
32693SOL    HW2  618   9.970   7.355   2.382  0.7497  0.2882  0.6559
32694SOL     OW  619   4.368   0.354   6.802 -0.3386  0.4396 -0.2420
32694SOL    HW1  620   4.377   0.426   6.739 -0.3169  0.6387 -0.0125
32694SOL    HW2  621   4.341   0.397   6.883  1.7284  0.4247  0.4777
32695SOL     OW  622   6.459   9.264   8.489 -0.7587  0.1527  0.7662
32695SOL    HW1  623   6.422   9.338   8.440  1.0807  0.1295 -0.7249
32695SOL    HW2  624   6.419   9.270   8.576 -2.0314  1.8015  0.0932
32696SOL     OW  625   1.619   7.024   3.654  0.1605 -0.3598  0.3307
32696SOL    HW1  626   1.531   7.009   3.689 -0.7564  0.6637 -1.4139
32696SOL    HW2  627   1.645   6.940   3.617 -0.8403 -0.2325 -0.7013
32697SOL     OW  628  10.122   2.887   4.004  0.0140  0.3449 -0.6377
32697SOL    HW1  629  10.046   2.884   3.946  0.9454 -0.7586 -1.8574
32697SOL    HW2  630  10.087   2.907   4.090 -1.5957  0.3496 -1.2860
32698SOL     OW  631   8.650   5.456   4.837  0.0498  0.2281  0.2389
32698SOL    HW1  632   8.691   5.387   4.888 -0.1941 -0.6989 -0.7889
32698SOL    HW2  633   8.577   5.413   4.793  1.3627  0.5299 -2.3595
32699SOL     OW  634   2.886   2.570   3.971 -0.0358 -0.2268  0.0918
32699SOL    HW1  635   2.810   2.618   4.005  0.0145 -0.4738  0.5551
32699SOL    HW2  636   2.883   2.585   3.876 -0.5365 -0.0550  0.1312
32700SOL     OW  637   2.707   4.161   6.435  0.7516  0.0925 -0.0316
32700SOL    HW1  638   2.690   4.241   6.485  0.1596 -0.8406  1.2633
32700SOL    HW2  639   2.802   4.156   6.428  0.8477  0.0715  1.2554
32701SOL     OW  640   5.818   0.066   0.565  0.2001 -0.4333  0.5249
32701SOL    HW1  641   5.808   0.120   0.644 -2.0033  1.0470 -0.7137
32701SOL    HW2  642   5.764  -0.011   0.583  1.9800 -1.4696  1.5923
32702SOL     OW  643   3.840   6.347   3.453 -0.5341  0.0327 -0.1059
32702SOL    HW1  644   3.780   6.307   3.517 -0.2482 -1.4933 -0.7816
32702SOL    HW2  645   3.850   6.437   3.484 -2.1642 -0.0541  0.7453
32703SOL     OW  646   3.567   7.403   7.924  0.4953 -0.2749 -0.2765
32703SOL    HW1  647   3.567   7.311   7.950 -0.4623 -0.5940 -1.3643
32703SOL    HW2  648   3.584   7.402   7.830  0.9501  0.6950 -0.2219
32704SOL     OW  649   4.178   0.445   4.422 -0.4070 -0.6387 -0.3655
32704SOL    HW1  650   4.195   0.376   4.486 -1.9746 -0.1396  0.6032
32704SOL    HW2  651   4.260   0.452   4.373  0.4419 -1.8083  0.8396
32705SOL     OW  652   4.562   8.157   0.006 -0.0867  0.6597 -0.4538
32705SOL    HW1  653   4.640   8.120   0.046  0.2323  0.3570 -1.3408
32705SOL    HW2  654   4.591   8.239  -0.034  0.0606 -0.0415 -1.8328
32706SOL     OW  655   7.451   2.998   4.775  0.0416 -0.7606  0.0535
32706SOL    HW1  656   7.485   3.019   4.689 -0.4955 -2.2599 -0.5354
32706SOL    HW2  657   7.524   2.957   4.821  1.0808  2.1679  1.1913
32707SOL     OW  658   0.680   5.277   0.231 -0.0034 -0.9090 -0.2258
32707SOL    HW1  659   0.679   5.373   0.222 -0.8863 -0.6115  2.3977
32707SOL    HW2  660   0.603   5.248   0.182 -0.0560 -0.2248 -0.5598
32708SOL     OW  661   2.848   2.383  10.204 -0.0330  0.1893  0.1541
32708SOL    HW1  662   2.937   2.391  10.169 -0.5382 -0.2201 -1.2633
32708SOL    HW2  663   2.860   2.381  10.299  1.5569 -0.8017 -0.0428
32709SOL     OW  664   5.070   8.833   7.333 -0.7250 -0.0190  0.1033
32709SOL    HW1  665   5.053   8.919   7.372  0.0501  1.0262 -1.8001
32709SOL    HW2  666   5.105   8.781   7.406 -0.1259  1.6159  1.0230
32710SOL     OW  667   2.147   7.004  10.122 -0.1260 -0.1295  0.0258
32710SOL    HW1  668   2.171   7.015  10.214 -0.6836  0.4589  0.1067
32710SOL    HW2  669   2.051   7.003  10.122 -0.1269 -0.4667 -0.5107
32711SOL     OW  670   3.314   4.420   3.982  0.9023  0.1386 -0.0768
32711SOL    HW1  671   3.273   4.441   3.898  3.7569  0.8428 -1.3639
32711SOL    HW2  672   3.293   4.328   3.997 -2.8263  0.9534  0.3702
32712SOL     OW  673   4.554   9.201   5.114  0.3292  0.1869 -0.1262
32712SOL    HW1  674   4.520   9.143   5.182 -1.9367 -0.4264 -1.7150
32712SOL    HW2  675   4.582   9.142   5.043 -0.8674  0.9597 -1.2608
32713SOL     OW  676   3.609   0.546   2.840 -0.1222 -0.4841  0.3406
32713SOL    HW1  677   3.676   0.549   2.772  1.2355 -1.9474  1.5725
32713SOL    HW2  678   3.640   0.479   2.902 -1.2938  0.8245  2.4223
32714SOL     OW  679   0.755   4.460   3.952 -0.1944  0.2296 -0.1548
32714SOL    HW1  680   0.757   4.482   4.045  0.5720  2.1467 -0.5888
32714SOL    HW2  681   0.830   4.402   3.940  0.8171  1.4583  0.0950
32715SOL     OW  682   7.357   1.469   1.597 -0.2265 -0.5640 -0.0665
32715SOL    HW1  683   7.365   1.386   1.643  1.1666 -0.2572  0.2678
32715SOL    HW2  684   7.369   1.535   1.666 -2.0832 -0.0774 -0.1871
32716SOL     OW  685   5.030   7.935   3.770  0.1867  0.2832 -0.1198
32716SOL    HW1  686   5.091   7.887   3.827  0.5314 -0.1360 -0.8315
32716SOL    HW2  687   4.994   8.004   3.826  0.1161 -0.4513  0.7605
32717SOL     OW  688   9.233   9.206   0.805 -0.3703  0.0151  0.4981
32717SOL    HW1  689   9.209   9.117   0.828  0.4167 -0.8446 -1.8354
32717SOL    HW2  690   9.328   9.205   0.798 -0.2729  1.2922  1.3860
32718SOL     OW  691   5.221   7.764   5.227 -0.4056  0.4234  0.0807
32718SOL    HW1  692   5.246   7.728   5.141  0.8173  0.3837  0.4532
32718SOL    HW2  693   5.285   7.833   5.244 -0.1515 -0.1148  1.3356
32719SOL     OW  694   5.123   0.731   4.919  0.0317 -0.3681 -0.3873
32719SOL    HW1  695   5.094   0.801   4.861 -0.8577 -0.4754 -0.0813
32719SOL    HW2  696   5.217   0.746   4.930 -0.0158  0.3401 -0.9105
32720SOL     OW  697   8.954   7.262   6.467  0.2844  0.4149 -0.5229
32720SOL    HW1  698   8.957   7.284   6.560  0.1439 -0.4452 -0.3156
32720SOL    HW2  699   8.919   7.173   6.464 -2.0641  1.3259 -1.5229
32721SOL     OW  700   5.099   9.782   8.334 -0.0857 -0.9151 -0.1234
32721SOL    HW1  701   5.073   9.705   8.285 -1.8362 -0.8698  0.6849
32721SOL    HW2  702   5.031   9.847   8.316  0.0491 -0.3913  1.1369
32722SOL     OW  703   6.676   7.286   3.109  0.4276 -0.8278  0.2646
32722SOL    HW1  704   6.678   7.349   3.180 -0.4298 -0.4495 -0.0310
32722SOL    HW2  705   6.764   7.287   3.072 -0.0488  1.5282 -0.8852
32723SOL     OW  706   2.658   9.421   7.374 -0.0293 -0.6893  0.4357
32723SOL    HW1  707   2.625   9.370   7.300  1.4196 -0.2812 -0.5166
32723SOL    HW2  708   2.597   9.494   7.382  0.6104  0.0657 -1.3084
32724SOL     OW  709   2.784   8.813   7.333  0.4180 -0.2446  0.1498
32724SOL    HW1  710   2.865   8.774   7.299  0.1318 -0.8947  0.1961
32724SOL    HW2  711   2.743   8.742   7.384  0.3773  0.4322  1.0610
32725SOL     OW  712   2.101   4.121   0.371 -0.5276  0.4942 -0.3643
32725SOL    HW1  713   2.069   4.208   0.397 -0.3455  0.6494 -0.6592
32725SOL    HW2  714   2.050   4.098   0.294 -1.1645 -0.0295  0.2073
32726SOL     OW  715   7.469   3.416   5.910  0.4773 -0.2773 -0.1234
32726SOL    HW1  716   7.561   3.413   5.935  0.5038  0.1671 -0.1583
32726SOL    HW2  717   7.423   3.371   5.981  0.6067  0.5547  0.5028
32727SOL     OW  718   7.411   5.474   2.833  0.6497  0.2365  0.0622
32727SOL    HW1  719   7.318   5.488   2.811  0.3719 -1.0854  0.3480
32727SOL    HW2  720   7.437   5.400   2.779  1.9384  1.4785 -1.0355
32728SOL     OW  721   3.715   9.744   3.757  0.0320  0.2026 -0.0258
32728SOL    HW1  722   3.646   9.678   3.764 -0.7040  0.8141 -1.5195
32728SOL    HW2  723   3.768   9.715   3.682  1.7341 -0.5513  1.4150
32729SOL     OW  724   3.723   9.292   6.403 -0.1990 -0.1297 -0.5999
32729SOL    HW1  725   3.711   9.289   6.498  0.0472  0.3679 -0.5484
32729SOL    HW2  726   3.817   9.306   6.391 -0.0166 -1.5656 -0.9475
32730SOL     OW  727   6.860   8.098   4.302  0.5229 -0.4866 -0.2687
32730SOL    HW1  728   6.787   8.040   4.284  0.7559 -0.9489  0.2875
32730SOL    HW2  729   6.823   8.169   4.354  1.0553 -2.2462  2.5773
32731SOL     OW  730  10.201   5.257   4.155  0.0025  0.1481 -0.1958
32731SOL    HW1  731  10.219   5.252   4.249  0.4692  0.6296 -0.2578
32731SOL    HW2  732  10.287   5.244   4.114 -0.2451 -0.3282 -0.5588
32732SOL     OW  733  10.030   1.524   1.570 -0.4245  0.4073  0.0334
32732SOL    HW1  734  10.120   1.556   1.562  0.0138  0.6228  4.5506
32732SOL    HW2  735  10.039   1.435   1.604 -1.9174  0.6846  1.2100
32733SOL     OW  736   4.831   5.775   8.357 -0.0753  0.5583  0.3699
32733SOL    HW1  737   4.880   5.782   8.438  0.4629  1.8952 -0.0629
32733SOL    HW2  738   4.889   5.727   8.298 -0.4372 -0.3463  0.7471
32734SOL     OW  739   6.681   0.636   3.341 -0.3137 -0.2605 -0.1907
32734SOL    HW1  740   6.614   0.631   3.409  0.3144  5.0759  1.0348
32734SOL    HW2  741   6.763   0.643   3.388  0.4528  0.1856 -1.5598
32735SOL     OW  742   9.672   1.541   9.315 -0.1131 -0.2879 -0.6088
32735SOL    HW1  743   9.630   1.615   9.359 -1.0998 -1.4201  0.3817
32735SOL    HW2  744   9.628   1.535   9.230 -0.5785 -0.2489 -0.3696
32736SOL     OW  745   7.408   7.206   1.807 -0.7452  0.1589  0.9761
32736SOL    HW1  746   7.420   7.116   1.839 -0.5963 -0.4846 -0.8184
32736SOL    HW2  747   7.319   7.208   1.773 -0.2212  0.1940 -0.4473
32737SOL     OW  748   0.648   6.064   8.968  0.2860  0.2252  0.1255
32737SOL    HW1  749   0.728   6.115   8.955  0.4837 -0.0747  0.1689
32737SOL    HW2  750   0.604   6.067   8.883 -0.1596  1.2444  0.3814
32738SOL     OW  751   9.308   4.202   2.115 -0.3837 -0.0135 -0.1874
32738SOL    HW1  752   9.238   4.144   2.144  1.2249 -1.3717  1.0885
32738SOL    HW2  753   9.287   4.287   2.155 -1.0510 -0.5257  0.5571
32739SOL     OW  754   5.237   4.486   4.850  0.2716 -0.6750 -0.0997
32739SOL    HW1  755   5.202   4.519   4.767  0.0667 -0.1325  0.2056
32739SOL    HW2  756   5.326   4.457   4.828 -0.5188 -2.5005 -0.9794
32740SOL     OW  757   6.242   8.161   7.044  0.2968 -0.1861  0.6398
32740SOL    HW1  758   6.282   8.232   7.095 -1.6869  1.0936  0.4562
32740SOL    HW2  759   6.228   8.200   6.958  0.9513 -1.4315 -0.0421
32741SOL     OW  760   8.067   6.792   2.690 -0.2515  0.0297 -0.1326
32741SOL    HW1  761   8.028   6.816   2.606  0.0147  0.7834 -0.0509
32741SOL    HW2  762   8.097   6.876   2.727 -0.7735 -0.2281  0.9174
32742SOL     OW  763   7.785   5.187   6.157 -0.0848  0.0650  0.1771
32742SOL    HW1  764   7.775   5.113   6.098  0.7665  1.2311 -1.4343
32742SOL    HW2  765   7.875   5.216   6.146 -0.7051  2.0069 -0.0073
32743SOL     OW  766   5.492   3.199   9.895 -0.0452  0.8820  0.0819
32743SOL    HW1  767   5.431   3.257   9.941  0.5558  0.0006  2.0699
32743SOL    HW2  768   5.445   3.171   9.817 -1.3058  2.0341  0.4137
32744SOL     OW  769   4.740   3.790   2.049 -0.0223  0.4456 -0.2504
32744SOL    HW1  770   4.823   3.825   2.017 -0.6324  2.3354  0.1985
32744SOL    HW2  771   4.763   3.707   2.091  1.2936 -0.2164 -2.2382
32745SOL     OW  772   9.056   7.200  10.188  0.1905  0.0533 -0.6828
32745SOL    HW1  773   9.031   7.108  10.180 -1.1944  0.5516 -2.4081
32745SOL    HW2  774   9.095   7.221  10.103  3.8201  0.1149  0.9437
32746SOL     OW  775   8.379   6.251   6.473 -0.2927  0.3166  0.1811
32746SOL    HW1  776   8.373   6.323   6.410 -0.4154  0.2170  0.0786
32746SOL    HW2  777   8.466   6.258   6.510 -0.6235  1.0735  0.8298
32747SOL     OW  778   2.407   3.850   9.127  0.4753 -0.1907  0.0342
32747SOL    HW1  779   2.341   3.784   9.106  0.0602  0.1922  0.1152
32747SOL    HW2  780   2.361   3.911   9.185  1.1334 -0.3574  0.7339
32748SOL     OW  781  10.143   6.521   6.188  0.5230  0.3131  0.3240
32748SOL    HW1  782  10.090   6.513   6.267  0.7393 -1.4674  0.3146
32748SOL    HW2  783  10.205   6.591   6.207  0.0321  0.4647  1.4043
32749SOL     OW  784   9.303   2.265   1.304  0.0038 -0.2002 -0.4286
32749SOL    HW1  785   9.274   2.355   1.317 -2.0955 -0.9810  0.4335
32749SOL    HW2  786   9.396   2.273   1.280 -0.4594  2.2440 -1.5593
32750SOL     OW  787   1.570   7.275   0.480  0.2311  0.4188 -0.3024
32750SOL    HW1  788   1.486   7.240   0.510  0.5216  1.0530  1.3125
32750SOL    HW2  789   1.555   7.299   0.389 -0.6001 -1.8505 -0.7743
32751SOL     OW  790   9.220   6.277   2.328  0.1317  0.3684  0.3845
32751SOL    HW1  791   9.270   6.196   2.318  1.3291  1.2300 -0.9581
32751SOL    HW2  792   9.130   6.252   2.309  0.5043 -0.6343 -0.1450
32752SOL     OW  793   5.678   1.662   1.173  0.2530  0.2659  0.2758
32752SOL    HW1  794   5.647   1.572   1.164  2.1787 -0.2515 -2.0339
32752SOL    HW2  795   5.617   1.713   1.120 -1.6753  0.5755  2.7189
32753SOL     OW  796   0.352   4.713   9.652 -0.2026 -0.6110 -0.4207
32753SOL    HW1  797   0.355   4.627   9.693  0.1770  1.7965  5.0549
32753SOL    HW2  798   0.259   4.728   9.633 -0.5327 -1.3677  0.5869
32754SOL     OW  799   9.505   5.653   5.868  0.4361 -0.2378  0.1706
32754SOL    HW1  800   9.539   5.693   5.788 -0.4443 -0.5207 -0.3582
32754SOL    HW2  801   9.523   5.560   5.858  0.0621 -0.3105  0.1707
32755SOL     OW  802   1.575   2.227   0.766  0.1242 -0.2320  0.1497
32755SOL    HW1  803   1.560   2.273   0.683  0.7442 -1.2042 -0.5115
32755SOL    HW2  804   1.611   2.142   0.740  1.2301 -0.1824  1.4547
32756SOL     OW  805   5.412   7.799   0.528  0.3934 -0.4294  0.0293
32756SOL    HW1  806   5.454   7.792   0.614  0.1310  3.3595  0.5557
32756SOL    HW2  807   5.484   7.809   0.467  0.5029  1.1695  0.3742
32757SOL     OW  808   7.522   6.141   4.420  0.1446 -0.0978 -0.3311
32757SOL    HW1  809   7.586   6.198   4.378  2.0375 -3.4902 -2.2486
32757SOL    HW2  810   7.566   6.107   4.497 -0.3934 -0.2092 -0.0679
32758SOL     OW  811   5.767   5.527   5.402  0.1027 -0.0166  0.2492
32758SOL    HW1  812   5.751   5.621   5.395  0.8078  0.0943 -0.0045
32758SOL    HW2  813   5.829   5.518   5.475  1.8289 -0.0543 -1.1980
32759SOL     OW  814   7.505   6.366   3.130  0.6597  0.4584 -0.4778
32759SOL    HW1  815   7.596   6.341   3.117  0.6893  1.9192 -3.3050
32759SOL    HW2  816   7.461   6.341   3.049 -1.4228  0.0875  0.7185
32760SOL     OW  817   9.282   4.472   6.640 -0.1515  0.2913  0.9215
32760SOL    HW1  818   9.226   4.427   6.577  1.3792 -0.0936 -0.1807
32760SOL    HW2  819   9.231   4.550   6.664 -2.2145 -1.2955  1.8224
32761SOL     OW  820   8.474   1.200   0.050 -0.2216  0.4583  0.7038
32761SOL    HW1  821   8.566   1.228   0.051 -0.4596  1.2769  0.1600
32761SOL    HW2  822   8.455   1.182  -0.042 -0.4207 -0.3418  0.9005
32762SOL     OW  823   8.925   2.330   3.567  0.3096 -0.4870  0.0690
32762SOL    HW1  824   8.924   2.252   3.512  0.8437 -0.2575 -0.2711
32762SOL    HW2  825   8.906   2.297   3.655  0.0592 -0.9349 -0.1506
32763SOL     OW  826   1.339   7.478   7.758 -0.3288 -0.3999 -0.1545
32763SOL    HW1  827   1.407   7.445   7.699 -1.2265  0.2167 -1.5570
32763SOL    HW2  828   1.327   7.569   7.732 -0.7338 -0.1222  0.9912
32764SOL     OW  829   6.890   2.496   2.084 -0.0209  0.0211 -0.0132
32764SOL    HW1  830   6.853   2.506   2.171  1.2995  1.4000  0.4072
32764SOL    HW2  831   6.816   2.511   2.024 -0.8539 -0.6229  0.8447
32765SOL     OW  832   2.874   8.018   4.393 -0.6073  0.4168 -0.6642
32765SOL    HW1  833   2.833   7.957   4.454  1.2018 -1.2660 -1.0741
32765SOL    HW2  834   2.964   7.986   4.384 -0.4762  1.3730 -3.2258
32766SOL     OW  835   9.330   6.707   6.476 -0.2628 -0.3276 -0.4614
32766SOL    HW1  836   9.375   6.788   6.498  0.0665 -0.5842 -0.1894
32766SOL    HW2  837   9.354   6.646   6.545 -0.6106 -0.6233 -0.5969
32767SOL     OW  838   7.290   0.055   3.753  0.8341 -0.0206  0.0732
32767SOL    HW1  839   7.229   0.007   3.809 -0.0722  0.1435 -0.7612
32767SOL    HW2  840   7.239   0.129   3.720  1.1301 -0.5241 -1.5583
32768SOL     OW  841   4.974   7.927   6.173  0.3613  0.2066  0.2258
32768SOL    HW1  842   4.928   7.981   6.109 -0.1498  0.1476  0.5426
32768SOL    HW2  843   4.973   7.839   6.135  0.0259  0.1641  0.3306
32769SOL     OW  844   8.767   5.979   7.872  0.0917 -0.7843 -0.0791
32769SOL    HW1  845   8.838   6.034   7.837 -0.7369  0.6087  0.3756
32769SOL    HW2  846   8.810   5.922   7.935  0.7313  0.4919  0.6725
32770SOL     OW  847   5.644   0.642   5.492  0.5816  0.0841  0.4642
32770SOL    HW1  848   5.672   0.730   5.516 -0.5373  0.5634  0.0276
32770SOL    HW2  849   5.682   0.628   5.405 -0.4099  0.6928 -0.0807
32771SOL     OW  850   3.400   6.775   4.808  0.4237  0.6655 -0.8016
32771SOL    HW1  851   3.358   6.789   4.724  1.3326 -1.0054 -1.5464
32771SOL    HW2  852   3.455   6.698   4.796  1.1024  0.8058  1.1192
32772SOL     OW  853   0.859   7.500   2.080  0.0920  0.0345 -0.5739
32772SOL    HW1  854   0.817   7.417   2.103  0.0884  0.0690 -0.4531
32772SOL    HW2  855   0.931   7.508   2.142  0.2192  0.0211 -0.7210
32773SOL     OW  856   4.615   4.402   0.852 -0.0204 -0.1926 -0.3380
32773SOL    HW1  857   4.608   4.478   0.910 -0.9578 -0.4457 -0.1198
32773SOL    HW2  858   4.529   4.395   0.811  0.2831 -0.7200 -0.8795
32774SOL     OW  859   0.313   7.389   1.549 -0.3627 -0.5817 -0.8494
32774SOL    HW1  860   0.290   7.454   1.483 -0.4778  0.1690 -0.0803
32774SOL    HW2  861   0.231   7.342   1.567 -0.6513  0.1376 -0.2427
32775SOL     OW  862   9.112   8.182   0.071  0.0688 -0.8010 -0.3833
32775SOL    HW1  863   9.193   8.142   0.104  0.3891  0.8656  0.9023
32775SOL    HW2  864   9.050   8.109   0.066  0.9861 -1.6828  0.8031
32776SOL     OW  865   9.469   7.052   5.994 -0.0490 -0.0637 -0.1715
32776SOL    HW1  866   9.543   7.106   6.022  0.3078 -0.3353 -0.5918
32776SOL    HW2  867   9.494   7.019   5.908 -0.5176 -0.4253 -0.1716
32777SOL     OW  868   0.484   9.513   7.641  0.4750  0.0834 -0.6078
32777SOL    HW1  869   0.562   9.556   7.607  1.9980 -0.7878  1.6464
32777SOL    HW2  870   0.478   9.431   7.592  1.0137  0.1301 -0.7496
32778SOL     OW  871   1.516   2.837   4.454 -0.0985  0.2928 -0.0975
32778SOL    HW1  872   1.490   2.899   4.385 -1.8421  1.0981  1.2345
32778SOL    HW2  873   1.495   2.882   4.536  1.7381 -0.7420  0.9663
32779SOL     OW  874   2.907   1.611   4.413 -0.0779 -0.0151 -0.0216
32779SOL    HW1  875   2.918   1.595   4.507  0.2718 -0.0184 -0.0629
32779SOL    HW2  876   2.996   1.625   4.381 -0.4641  3.4458  0.2468
32780SOL     OW  877   8.710   5.828   4.505  0.1930  0.3965 -0.2874
32780SOL    HW1  878   8.643   5.867   4.561  0.7796  1.6542 -0.4384
32780SOL    HW2  879   8.716   5.887   4.430 -1.2265 -1.7522 -2.1601
32781SOL     OW  880   1.149   8.670   4.701  0.0473 -0.4420  0.1013
32781SOL    HW1  881   1.133   8.600   4.639 -1.3049  0.2934 -0.4043
32781SOL    HW2  882   1.230   8.711   4.670 -1.3008  0.7448 -1.9765
32782SOL     OW  883   9.707   4.190   5.048  0.0371  0.1833 -0.2136
32782SOL    HW1  884   9.775   4.257   5.046 -1.4048  1.6964  0.2567
32782SOL    HW2  885   9.647   4.218   5.117  0.3299 -2.5398  1.2326
32783SOL     OW  886   8.429   3.304   0.318  0.4882 -0.0400 -0.7874
32783SOL    HW1  887   8.404   3.391   0.348  2.7682  0.9247 -1.5827
32783SOL    HW2  888   8.415   3.248   0.394 -0.9852  1.0018 -0.2607
32784SOL     OW  889   3.344   8.697   1.817  0.0770  0.0799  0.5798
32784SOL    HW1  890   3.439   8.688   1.813  0.5798  4.2214  0.6985
32784SOL    HW2  891   3.320   8.664   1.903  1.6742  0.7526  1.2997
32785SOL     OW  892   9.188   5.971   4.895 -0.1162  0.2640 -0.6133
32785SOL    HW1  893   9.232   5.919   4.963 -3.1131  0.0602  1.3149
32785SOL    HW2  894   9.153   5.906   4.834  0.8512  0.3435 -1.2628
32786SOL     OW  895   7.903   6.225   9.276 -0.5756 -0.2306  0.2865
32786SOL    HW1  896   7.947   6.209   9.360 -2.6369 -1.6346  1.1524
32786SOL    HW2  897   7.866   6.313   9.285  1.1000  0.5276 -0.0371
32787SOL     OW  898   3.152   6.644   2.609  0.6483  0.4610 -0.0301
32787SOL    HW1  899   3.206   6.571   2.640  1.0659  0.7164 -0.1567
32787SOL    HW2  900   3.211   6.719   2.608  0.2932  0.7404 -0.1817
32788SOL     OW  901   8.638   5.711   0.918  0.4352  0.9248  0.0361
32788SOL    HW1  902   8.664   5.764   0.844 -1.2713  1.0815 -0.4867
32788SOL    HW2  903   8.573   5.764   0.964 -0.4829 -0.2476  0.1247
32789SOL     OW  904   9.860   0.454   7.385 -0.3994 -0.4586  0.2261
32789SOL    HW1  905   9.807   0.524   7.348 -1.1318 -1.5350 -0.8000
32789SOL    HW2  906   9.801   0.379   7.390  0.5263 -1.1666  0.7857
32790SOL     OW  907   6.625   0.201   8.556  0.3534  0.6972  0.1537
32790SOL    HW1  908   6.637   0.217   8.649  0.6260  0.8166  0.1014
32790SOL    HW2  909   6.593   0.284   8.521  1.2596  0.9743 -0.0322
32791SOL     OW  910   4.918   9.942   3.994  0.0580  0.0915 -0.6864
32791SOL    HW1  911   4.947  10.031   4.016  0.7833 -0.2474 -0.2624
32791SOL    HW2  912   4.823   9.951   3.982 -0.0178  0.7553  0.2828
32792SOL     OW  913   4.138   6.262   7.650  0.8258  0.4750  0.0465
32792SOL    HW1  914   4.186   6.224   7.576  0.3715  2.0207 -1.0767
32792SOL    HW2  915   4.049   6.229   7.640  0.3349  2.0731 -1.1596
32793SOL     OW  916   4.520   4.736   4.000 -0.1844  0.1442 -0.4156
32793SOL    HW1  917   4.491   4.789   3.926  0.2558  2.2703  0.8858
32793SOL    HW2  918   4.613   4.757   4.010  0.1688 -1.4107 -0.2939
32794SOL     OW  919   1.051   0.255   0.729 -0.5130  0.2041 -0.0329
32794SOL    HW1  920   1.057   0.191   0.658 -0.5783 -0.1846  0.3097
32794SOL    HW2  921   0.986   0.318   0.698  0.6764  0.9718 -1.0390
32795SOL     OW  922   5.835   1.739   0.111  0.1873 -0.9873 -0.4325
32795SOL    HW1  923   5.852   1.815   0.167  0.1594 -2.1377  1.1557
32795SOL    HW2  924   5.847   1.772   0.022  0.8188  0.7157  0.2631
32796SOL     OW  925   2.089   3.364   0.564  0.5545  0.4472 -0.2301
32796SOL    HW1  926   2.137   3.443   0.541  2.3444 -0.5501  0.0076
32796SOL    HW2  927   2.139   3.325   0.636 -0.8508 -0.3911  0.3262
32797SOL     OW  928   8.102   8.338   7.153 -0.2148  0.0713 -0.6471
32797SOL    HW1  929   8.108   8.271   7.222 -0.5389  0.2413 -0.4486
32797SOL    HW2  930   8.030   8.394   7.182  0.4547  0.8621 -0.5049
32798SOL     OW  931   8.763   4.254   0.905 -0.0809  0.0227 -0.4979
32798SOL    HW1  932   8.850   4.275   0.871  0.0856 -1.2431 -0.8736
32798SOL    HW2  933   8.760   4.158   0.907 -1.6220  0.0472 -0.8809
32799SOL     OW  934   5.466   4.245   2.309 -0.1914 -0.2658 -0.0276
32799SOL    HW1  935   5.461   4.232   2.214 -0.2858 -0.2000 -0.0326
32799SOL    HW2  936   5.399   4.311   2.327 -1.3597 -1.5107  0.3147
32800SOL     OW  937   3.927   6.823   0.495  0.2008  0.2401  0.6876
32800SOL    HW1  938   3.897   6.914   0.488  0.6613  0.3114 -0.5343
32800SOL    HW2  939   3.924   6.804   0.589  1.5003  1.9800  1.1026
32801SOL     OW  940   2.675   1.112   2.813 -0.3733  0.3400 -0.5438
32801SOL    HW1  941   2.604   1.102   2.877 -0.3326  0.0717 -0.5390
32801SOL    HW2  942   2.666   1.036   2.756 -1.0674  1.1403 -1.5128
32802SOL     OW  943   8.634   1.615   4.242  0.4085 -0.0448  0.0805
32802SOL    HW1  944   8.548   1.579   4.222 -0.2669 -0.7303  3.7227
32802SOL    HW2  945   8.691   1.539   4.249  1.0720  0.3280 -1.3055
32803SOL     OW  946   8.397   3.258   9.216 -0.0316  0.6721 -0.4354
32803SOL    HW1  947   8.410   3.291   9.127 -0.1822  2.1588  0.0766
32803SOL    HW2  948   8.465   3.301   9.267 -0.1937  0.1207  0.2393
32804SOL     OW  949   2.577   0.845   8.220  0.6076  0.1144 -0.0390
32804SOL    HW1  950   2.513   0.880   8.283 -0.7731 -0.6604 -0.9870
32804SOL    HW2  951   2.539   0.864   8.134  1.4733 -0.6914 -0.6046
32805SOL     OW  952   8.519   8.531   7.998 -0.2636 -0.0131  0.1336
32805SOL    HW1  953   8.544   8.468   8.065 -0.4684 -0.0098  0.2146
32805SOL    HW2  954   8.466   8.482   7.936 -0.4456  0.0845  0.2107
32806SOL     OW  955   1.450   6.510   1.775 -0.1898 -0.3364  0.1729
32806SOL    HW1  956   1.382   6.543   1.834  0.2062  0.1849  0.3342
32806SOL    HW2  957   1.461   6.579   1.710 -1.2997 -1.2956 -1.0886
32807SOL     OW  958   0.030   6.442   2.373 -0.0644 -0.4783  0.0260
32807SOL    HW1  959   0.100   6.389   2.411 -0.1653 -0.7364 -0.1469
32807SOL    HW2  960  -0.024   6.379   2.324 -0.4483 -0.2894  0.2059
32808SOL     OW  961   2.966   3.901   9.407  0.0300 -0.0316 -0.0477
32808SOL    HW1  962   3.057   3.880   9.382  0.2439  0.1452  0.5774
32808SOL    HW2  963   2.954   3.991   9.380  0.4673  0.3651  1.0292
32809SOL     OW  964   2.865   8.033   9.363  0.1839  0.1982  0.4358
32809SOL    HW1  965   2.933   7.968   9.379  2.0397  1.6364 -1.2671
32809SOL    HW2  966   2.862   8.084   9.445  1.2567  0.1881  0.5007
32810SOL     OW  967   1.229   0.116   8.443  0.5547  0.0367 -0.9450
32810SOL    HW1  968   1.179   0.174   8.385  1.2734 -0.6776 -2.2903
32810SOL    HW2  969   1.256   0.172   8.515  0.1042  1.0633 -1.5614
32811SOL     OW  970   3.778   9.439   7.345  0.5514  0.1446 -0.0718
32811SOL    HW1  971   3.702   9.417   7.291  1.2816 -2.2149 -0.2012
32811SOL    HW2  972   3.740   9.466   7.429 -0.4717  0.8006 -0.7290
32812SOL     OW  973   9.653   2.132   7.720  0.0717  0.0872 -0.0697
32812SOL    HW1  974   9.661   2.207   7.662  1.3245  0.5809  0.7113
32812SOL    HW2  975   9.743   2.114   7.748 -0.2577 -1.5081 -0.0081
32813SOL     OW  976   6.953   4.711   0.567 -0.4625 -0.0757  0.0539
32813SOL    HW1  977   6.922   4.697   0.478 -0.2166  0.9383 -0.1931
32813SOL    HW2  978   6.875   4.742   0.614 -0.4701 -0.1310  0.0794
32814SOL     OW  979   3.269   0.927   8.650 -0.7549  0.2917  0.2487
32814SOL    HW1  980   3.267   1.005   8.596 -0.1066 -1.3760 -2.2762
32814SOL    HW2  981   3.181   0.890   8.643  0.0750 -1.3849 -1.9618
32815SOL     OW  982   0.441   6.918   3.842 -0.0774  0.1167 -0.0515
32815SOL    HW1  983   0.399   6.861   3.778 -0.2852  0.7024 -0.4481
32815SOL    HW2  984   0.434   7.006   3.803 -1.3325  0.6563  1.3719
32816SOL     OW  985   6.838   5.527   7.272 -0.3977  0.2442  0.4714
32816SOL    HW1  986   6.815   5.439   7.242 -3.4684  1.1970 -0.1810
32816SOL    HW2  987   6.922   5.546   7.230  1.2375 -3.0284  2.0855
32817SOL     OW  988   8.349   5.177   4.145 -0.4392 -0.0756 -0.2213
32817SOL    HW1  989   8.297   5.146   4.070  0.6269 -0.0316 -0.9979
32817SOL    HW2  990   8.378   5.096   4.188  1.4409 -0.1938 -1.6189
32818SOL     OW  991   8.680   0.602   9.437 -0.2581 -0.0864  0.3674
32818SOL    HW1  992   8.733   0.567   9.366  0.9837  1.2904  0.5987
32818SOL    HW2  993   8.615   0.658   9.394  0.9438  1.3111  0.3644
32819SOL     OW  994   7.784   5.884   2.664 -0.7530  0.6280  0.2672
32819SOL    HW1  995   7.689   5.877   2.673 -0.6045  0.2072  1.6333
32819SOL    HW2  996   7.814   5.915   2.750  0.3119  1.0182 -0.2414
32820SOL     OW  997   3.890   2.243   2.613  0.2885  0.5543  0.4176
32820SOL    HW1  998   3.951   2.279   2.548  0.9532  0.7537  1.1362
32820SOL    HW2  999   3.899   2.302   2.688 -0.7343  0.5296  0.5538
32821SOL     OW 1000   7.530   5.490   0.405 -0.1478  0.6431 -0.0236
32821SOL    HW1 1001   7.521   5.581   0.433 -1.0677  0.5840 -0.0807
32821SOL    HW2 1002   7.469   5.442   0.462  2.7860 -0.4547  2.3257
32822SOL     OW 1003   7.039   2.493   0.701  0.1245 -0.0635 -0.2399
32822SOL    HW1 1004   6.950   2.463   0.684 -0.0935  0.1754  0.4660
32822SOL    HW2 1005   7.050   2.570   0.646 -0.0277 -0.2254 -0.4975
32823SOL     OW 1006   8.533   0.793   2.206 -0.2528 -0.1585  0.2775
32823SOL    HW1 1007   8.544   0.838   2.289  0.9053  1.5326 -0.7499
32823SOL    HW2 1008   8.497   0.707   2.229 -1.3032  0.8108  2.3829
32824SOL     OW 1009   5.137   5.470   5.438 -0.9023  0.4179 -0.1291
32824SOL    HW1 1010   5.116   5.515   5.520  0.9573  0.2694  0.4359
32824SOL    HW2 1011   5.157   5.541   5.376 -0.7638  0.4677 -0.0258
32825SOL     OW 1012   4.772   6.365   2.133 -0.1192  0.4827 -0.0643
32825SOL    HW1 1013   4.736   6.453   2.118 -2.1594 -0.1915  0.7333
32825SOL    HW2 1014   4.741   6.314   2.058  0.6030  0.3079 -0.2403
32826SOL     OW 1015   2.319   0.063   3.700 -0.2565  0.3100 -0.1954
32826SOL    HW1 1016   2.348   0.124   3.767 -1.5539  0.8961 -0.1440
32826SOL    HW2 1017   2.396   0.048   3.645  0.2863  1.3430  0.2773
32827SOL     OW 1018   5.491   3.947   1.362 -0.4502 -0.2349 -0.2424
32827SOL    HW1 1019   5.493   3.978   1.453 -0.7793  1.8259 -0.9186
32827SOL    HW2 1020   5.561   3.882   1.357  1.1269  1.3255  0.8961
32828SOL     OW 1021   4.596   8.295   2.175  0.6781 -0.2063  0.6188
32828SOL    HW1 1022   4.647   8.253   2.106  0.4502  0.1375  0.2412
32828SOL    HW2 1023   4.662   8.340   2.228  0.8958 -0.8403  0.8847
32829SOL     OW 1024   9.376   6.316   8.544  0.3919  0.7157 -0.2397
32829SOL    HW1 1025   9.285   6.345   8.544  0.6221  1.4630  0.7703
32829SOL    HW2 1026   9.381   6.252   8.615  0.4640  0.0431 -0.8452
32830SOL     OW 1027   0.440   1.297   6.653  0.5224  0.8574 -0.0138
32830SOL    HW1 1028   0.387   1.233   6.606  2.2345 -0.4073 -0.2559
32830SOL    HW2 1029   0.378   1.367   6.675 -1.0017 -0.0602 -1.2482
32831SOL     OW 1030   0.531   0.257   7.714  0.2402  0.2071 -0.1164
32831SOL    HW1 1031   0.450   0.211   7.735 -0.7975  1.8326 -0.4490
32831SOL    HW2 1032   0.585   0.248   7.792 -0.5308 -0.3284  0.3586
32832SOL     OW 1033   6.814   4.050   5.637 -0.2821 -0.2480 -0.4183
32832SOL    HW1 1034   6.873   4.124   5.640 -1.8188  0.9737  1.0709
32832SOL    HW2 1035   6.844   3.992   5.707 -0.3033 -0.0508 -0.2460
32833SOL     OW 1036   5.000   4.815   0.490  0.0319  0.3541 -0.9038
32833SOL    HW1 1037   4.993   4.887   0.553  0.3298  0.9353 -1.5329
32833SOL    HW2 1038   5.060   4.752   0.532 -0.8232  0.1118 -0.0223
32834SOL     OW 1039   1.707   7.095   1.000 -0.1781 -0.2510  0.2295
32834SOL    HW1 1040   1.768   7.077   1.072 -1.3889 -1.9456  0.8731
32834SOL    HW2 1041   1.763   7.126   0.928  1.4806 -1.8947  0.7561
32835SOL     OW 1042   5.781   4.880   4.564 -0.3619  0.0239 -0.3539
32835SOL    HW1 1043   5.789   4.974   4.552  0.4364 -0.1853 -1.5413
32835SOL    HW2 1044   5.787   4.844   4.476  1.1391 -1.2578  0.2358
32836SOL     OW 1045   2.646   2.098   5.526 -0.6029 -0.9041 -0.6880
32836SOL    HW1 1046   2.579   2.157   5.560  3.5134  1.6240  3.7966
32836SOL    HW2 1047   2.612   2.010   5.542 -2.8396  0.3067  1.4567
32837SOL     OW 1048   9.908   6.242   0.398  0.0860  0.2046  0.7193
32837SOL    HW1 1049   9.836   6.202   0.447  0.4752 -0.6132  0.6361
32837SOL    HW2 1050   9.978   6.253   0.463 -0.1824  1.1799  0.8445
32838SOL     OW 1051   3.159   1.100   1.794  0.3612  0.0005 -0.2322
32838SOL    HW1 1052   3.119   1.185   1.779 -1.5814 -0.5421  1.5934
32838SOL    HW2 1053   3.231   1.095   1.731 -0.0613  2.6025 -0.9507
32839SOL     OW 1054   6.568   5.096   8.997  0.1052 -1.0805  0.4055
32839SOL    HW1 1055   6.664   5.087   8.999 -0.0153 -2.3843  1.1614
32839SOL    HW2 1056   6.538   5.019   8.949 -0.4310  0.7633 -2.3227
32840SOL     OW 1057   4.632   3.320   4.743  0.1753 -0.5372  0.0193
32840SOL    HW1 1058   4.647   3.240   4.692 -0.6937  1.1255 -2.9570
32840SOL    HW2 1059   4.546   3.351   4.714  0.3793  1.3309  1.3212
32841SOL     OW 1060   9.762   6.860   6.667  0.0937 -0.0036  0.2576
32841SOL    HW1 1061   9.858   6.856   6.672  0.1052 -0.2383 -0.1126
32841SOL    HW2 1062   9.743   6.953   6.654  0.3752 -0.1548 -1.4757
32842SOL     OW 1063   0.245   4.715   5.331 -0.4391  0.8126 -0.1022
32842SOL    HW1 1064   0.217   4.721   5.422  1.1185  0.6069  0.3915
32842SOL    HW2 1065   0.312   4.647   5.330 -1.2451  0.0107 -1.6030
32843SOL     OW 1066   5.382   4.990   1.289  0.3836  0.5655  0.0538
32843SOL    HW1 1067   5.477   4.995   1.296  0.3739 -1.0194  1.5772
32843SOL    HW2 1068   5.363   4.898   1.274 -0.9885  0.5824  1.4770
32844SOL     OW 1069   0.294   7.962   5.118  0.2606  0.2334 -0.0438
32844SOL    HW1 1070   0.307   8.036   5.058  1.3687  0.1367  0.0577
32844SOL    HW2 1071   0.316   7.997   5.204 -3.3398  0.9542  0.6565
32845SOL     OW 1072   5.186  10.054   8.244  0.3632  0.1520  0.1209
32845SOL    HW1 1073   5.188   9.992   8.317 -0.5909  1.6097  1.4068
32845SOL    HW2 1074   5.272  10.096   8.245  0.3724  0.1261  0.3606
32846SOL     OW 1075   2.794   0.608   2.575 -0.6381 -0.2549 -0.3456
32846SOL    HW1 1076   2.790   0.697   2.541 -1.2771 -0.0700  0.2038
32846SOL    HW2 1077   2.794   0.553   2.497  0.7649  0.2442 -0.7261
32847SOL     OW 1078   2.961   0.063   0.624  0.2498  0.0599  0.0480
32847SOL    HW1 1079   2.916   0.092   0.704  0.6550 -1.0706  0.7079
32847SOL    HW2 1080   2.948   0.134   0.562 -0.4938  0.7486  0.9687
32848SOL     OW 1081   5.391   6.366   8.064 -1.0005  0.4576 -0.4305
32848SOL    HW1 1082   5.389   6.285   8.113  0.5808  0.0855 -0.9564
32848SOL    HW2 1083   5.464   6.356   8.003  0.3194  2.9537  0.6700
32849SOL     OW 1084   7.922   4.696   6.561  0.4604 -0.3220  0.1460
32849SOL    HW1 1085   7.992   4.634   6.577  1.3942  0.5641 -0.4635
32849SOL    HW2 1086   7.956   4.756   6.494 -0.8432  0.1524 -0.1265
32850SOL     OW 1087   2.019   5.725   6.064 -0.0429 -0.2473  0.6151
32850SOL    HW1 1088   2.018   5.795   6.129 -0.2025 -0.0004  0.3453
32850SOL    HW2 1089   1.946   5.745   6.006 -0.3754 -0.8893  0.8038
32851SOL     OW 1090   9.898   3.597   3.104  0.2337 -0.0106 -0.4485
32851SOL    HW1 1091   9.921   3.589   3.012 -1.4078  1.6357 -1.0295
32851SOL    HW2 1092   9.951   3.671   3.135  1.3900 -1.0749  0.1441
32852SOL     OW 1093   5.014   7.786   0.958  0.3161  0.1859 -0.4986
32852SOL    HW1 1094   4.936   7.734   0.976  0.6028 -0.2744 -0.5756
32852SOL    HW2 1095   5.085   7.737   1.001  0.6577  0.2662 -0.9760
32853SOL     OW 1096   6.593   0.921   3.417 -0.0662  0.1291  0.4589
32853SOL    HW1 1097   6.641   0.904   3.336 -0.8501 -0.2711  0.0716
32853SOL    HW2 1098   6.511   0.871   3.407 -0.9708  1.5402  0.7059
32854SOL     OW 1099   5.895   8.134   0.171 -0.6727 -0.2001  0.4059
32854SOL    HW1 1100   5.872   8.226   0.159  0.0873 -0.2069 -1.2205
32854SOL    HW2 1101   5.974   8.136   0.225 -0.9063  0.0639  0.7468
32855SOL     OW 1102   9.435   5.247   7.255 -0.5550 -0.0196  0.5331
32855SOL    HW1 1103   9.466   5.157   7.258 -0.4129  0.0631  1.4669
32855SOL    HW2 1104   9.503   5.294   7.206 -1.5357 -0.7819 -1.6021
32856SOL     OW 1105   1.487   8.915   5.518 -0.2611  0.0161  0.2004
32856SOL    HW1 1106   1.545   8.982   5.481 -0.5305  1.2468  1.9392
32856SOL    HW2 1107   1.432   8.963   5.580 -1.4304 -1.5831  0.4297
32857SOL     OW 1108   8.638   9.652   7.222 -0.4333 -0.2496  0.1823
32857SOL    HW1 1109   8.611   9.735   7.261 -0.5597 -0.6386  0.9312
32857SOL    HW2 1110   8.559   9.598   7.223  0.4223 -1.5523  2.8019
32858SOL     OW 1111   7.327   4.783  10.037 -0.6919  0.2466  0.3623
32858SOL    HW1 1112   7.381   4.739   9.972 -1.3853 -1.6762  1.0777
32858SOL    HW2 1113   7.299   4.864   9.993  0.7808  0.1130 -0.8654
32859SOL     OW 1114   5.639   9.468   0.942 -0.2868 -0.0937 -0.2175
32859SOL    HW1 1115   5.666   9.383   0.907 -1.2351 -0.4579 -0.0790
32859SOL    HW2 1116   5.713   9.495   0.997 -0.3265 -1.2122  0.4036
32860SOL     OW 1117   8.797   7.446   5.852 -0.3199 -0.2252  0.8663
32860SOL    HW1 1118   8.817   7.369   5.905  0.8426 -1.1045 -0.7818
32860SOL    HW2 1119   8.786   7.411   5.763 -2.8162  1.1266  0.5959
32861SOL     OW 1120   0.912   2.856   4.172 -0.2445 -0.1606 -0.4515
32861SOL    HW1 1121   0.988   2.889   4.123 -1.5073  0.5755 -1.9301
32861SOL    HW2 1122   0.876   2.933   4.216 -0.3439 -0.4545 -0.0092
32862SOL     OW 1123  10.068   9.452   4.943  0.1374  0.8303  0.2126
32862SOL    HW1 1124  10.108   9.462   5.029  0.7720  1.2180 -0.1178
32862SOL    HW2 1125  10.142   9.444   4.883 -0.2919 -2.8001  0.0566
32863SOL     OW 1126   0.186   7.919   8.470  0.4220 -0.2782 -0.3362
32863SOL    HW1 1127   0.135   7.976   8.414 -1.2213 -0.6733  0.7152
32863SOL    HW2 1128   0.202   7.841   8.418  1.0994  0.3881 -1.1328
32864SOL     OW 1129   6.576   5.623   8.486  0.1235  0.0206 -0.0846
32864SOL    HW1 1130   6.518   5.546   8.490  0.8126 -0.4991  0.0828
32864SOL    HW2 1131   6.520   5.694   8.457 -0.5813 -0.5015 -0.0108
32865SOL     OW 1132   6.091   1.597   9.845 -0.0701  0.1394 -0.3321
32865SOL    HW1 1133   6.087   1.570   9.754 -0.8243 -0.5725 -0.0956
32865SOL    HW2 1134   6.164   1.547   9.882  0.3209  0.5302 -0.5796
32866SOL     OW 1135   8.666   1.586   7.567  0.6718 -0.1401  0.4712
32866SOL    HW1 1136   8.629   1.674   7.564  0.5047 -0.1454  1.8408
32866SOL    HW2 1137   8.602   1.535   7.616  0.6779 -1.0754 -0.4854
32867SOL     OW 1138   4.052   7.457   9.513 -0.3827  0.3404  0.6484
32867SOL    HW1 1139   4.140   7.446   9.476  0.2053  0.7965  1.8544
32867SOL    HW2 1140   4.019   7.368   9.524 -0.6065  0.2090 -1.0317
32868SOL     OW 1141   9.605   0.475   5.526  1.0578  0.4235 -0.4115
32868SOL    HW1 1142   9.529   0.420   5.508  1.3803 -0.6012  1.2193
32868SOL    HW2 1143   9.643   0.493   5.440 -0.1369 -0.3302 -1.1120
32869SOL     OW 1144   2.760   1.079   3.547 -0.0854 -0.0416 -0.4261
32869SOL    HW1 1145   2.803   1.110   3.627 -1.5768 -0.0377  0.3916
32869SOL    HW2 1146   2.730   0.990   3.569 -1.0203  0.1842 -0.7788
32870SOL     OW 1147   0.867   3.486   1.357  0.4945  0.3301 -0.1106
32870SOL    HW1 1148   0.792   3.441   1.320  0.3750  0.3226  0.1398
32870SOL    HW2 1149   0.921   3.509   1.281  0.3018  0.2266 -0.2794
32871SOL     OW 1150   4.450   4.594   2.454  0.0019  0.3067  0.2444
32871SOL    HW1 1151   4.443   4.686   2.429 -0.1305  0.3330  0.3788
32871SOL    HW2 1152   4.366   4.555   2.429  1.6593 -0.8102 -4.0096
32872SOL     OW 1153   0.229   3.591   8.586 -0.4798  0.2854 -0.2527
32872SOL    HW1 1154   0.153   3.642   8.612 -0.6816 -0.0677 -0.1549
32872SOL    HW2 1155   0.236   3.522   8.651 -0.9610 -0.5709 -1.0874
32873SOL     OW 1156   3.731   4.861   6.476 -0.5496 -0.2459  0.0953
32873SOL    HW1 1157   3.797   4.823   6.533 -0.9157 -0.1139  0.6130
32873SOL    HW2 1158   3.655   4.876   6.533 -1.5702 -1.8212 -0.8096
32874SOL     OW 1159   6.513   3.190   7.925 -0.1105 -0.0487 -0.1212
32874SOL    HW1 1160   6.583   3.162   7.867 -0.3487  1.6500 -1.2457
32874SOL    HW2 1161   6.513   3.125   7.995  2.7103  0.0453  0.0072
32875SOL     OW 1162   6.569   9.892   2.902 -0.1997 -0.0695 -0.4904
32875SOL    HW1 1163   6.574   9.870   2.995  0.1669 -1.6049 -0.8462
32875SOL    HW2 1164   6.492   9.949   2.895 -0.8611 -0.8036  0.5965
32876SOL     OW 1165   1.283   3.502   2.224  0.0622 -0.6421  0.3327
32876SOL    HW1 1166   1.244   3.450   2.155  1.2779  1.2924 -1.8675
32876SOL    HW2 1167   1.245   3.589   2.214  1.0884 -0.0456  1.3725
32877SOL     OW 1168   6.090   2.029   3.983  0.0220 -0.5367  0.0273
32877SOL    HW1 1169   6.078   2.008   3.890 -1.4234 -0.3812  0.1685
32877SOL    HW2 1170   6.121   1.947   4.022 -1.0642 -1.0962 -0.2733
32878SOL     OW 1171   5.742   3.285   4.852 -0.1398 -0.0750 -0.5298
32878SOL    HW1 1172   5.773   3.228   4.922 -1.5783  0.5606  0.6615
32878SOL    HW2 1173   5.668   3.333   4.891  0.1746  1.5952 -1.9178
32879SOL     OW 1174   0.048   9.368   5.236  0.2108  0.0337 -0.0789
32879SOL    HW1 1175  -0.046   9.376   5.221  0.4072  0.2260 -1.2626
32879SOL    HW2 1176   0.065   9.420   5.314 -0.4914  0.9236 -0.5145
32880SOL     OW 1177   9.640   3.982   9.878 -0.4160  0.2495 -0.5364
32880SOL    HW1 1178   9.645   4.076   9.892 -0.6031 -0.0355  1.6338
32880SOL    HW2 1179   9.717   3.961   9.824  0.2896  1.4490 -0.0003
32881SOL     OW 1180   1.026   5.503   3.443  0.0332 -0.2997 -0.2716
32881SOL    HW1 1181   1.006   5.509   3.536 -0.8320 -1.1762 -0.3948
32881SOL    HW2 1182   0.941   5.494   3.400  0.1671  3.0207 -1.4223
32882SOL     OW 1183   6.546  10.169   8.204 -0.1187 -0.1846  0.5594
32882SOL    HW1 1184   6.527  10.075   8.195  1.3898 -0.5077  0.7263
32882SOL    HW2 1185   6.489  10.198   8.275  0.7487 -1.3621  1.7439
32883SOL     OW 1186   8.611   6.831   0.825 -0.1135 -0.4292 -0.0512
32883SOL    HW1 1187   8.550   6.758   0.825  1.2412 -1.5944  0.6718
32883SOL    HW2 1188   8.564   6.903   0.782 -1.8192 -1.4159  0.1486
32884SOL     OW 1189   0.776   5.265   7.999  0.1647  0.8177  0.1256
32884SOL    HW1 1190   0.724   5.344   8.016 -0.5163  0.1031  1.4208
32884SOL    HW2 1191   0.811   5.240   8.084  0.0409 -0.5028 -0.1999
32885SOL     OW 1192   9.604   9.248   3.989 -0.4666  0.0046  0.3681
32885SOL    HW1 1193   9.698   9.264   3.987 -0.5048  0.3547  1.0777
32885SOL    HW2 1194   9.595   9.153   3.977 -0.1715  0.2909 -2.6230
32886SOL     OW 1195   3.237   7.699   3.959 -0.3327  0.3411 -0.1333
32886SOL    HW1 1196   3.317   7.650   3.981 -1.3472 -1.4713 -0.3989
32886SOL    HW2 1197   3.269   7.781   3.923  1.4844 -1.2161 -2.2590
32887SOL     OW 1198  10.061   1.984   1.977  0.3869  0.0469 -0.4947
32887SOL    HW1 1199  10.099   1.929   1.908 -0.4601 -0.5233 -0.5217
32887SOL    HW2 1200  10.098   1.950   2.058 -1.7514 -1.9854 -0.3201
32888SOL     OW 1201   0.173   0.122   3.394  0.3045 -0.0967  0.1537
32888SOL    HW1 1202   0.232   0.054   3.427  1.0106 -0.1729 -1.2512
32888SOL    HW2 1203   0.223   0.165   3.325 -0.7411  0.8217 -0.0312
32889SOL     OW 1204   3.107   6.981   6.347  0.1584  0.9717  0.7003
32889SOL    HW1 1205   3.051   7.057   6.335 -0.6715  0.2761  0.0563
32889SOL    HW2 1206   3.112   6.968   6.442 -3.6382 -1.0218  0.7220
32890SOL     OW 1207   1.427   3.279   4.980 -0.0752 -0.4645 -0.3211
32890SOL    HW1 1208   1.470   3.203   5.019  1.8453 -0.8477 -3.0568
32890SOL    HW2 1209   1.482   3.353   5.005 -1.1072 -0.1398  1.0630
32891SOL     OW 1210   4.373   0.588   0.906 -0.0963 -0.5765 -0.4485
32891SOL    HW1 1211   4.288   0.625   0.881 -0.3115  1.0177  2.3706
32891SOL    HW2 1212   4.361   0.559   0.996  1.7021 -2.5434 -0.8054
32892SOL     OW 1213   9.435   9.311   7.750 -0.7072 -0.1204  0.1780
32892SOL    HW1 1214   9.528   9.309   7.725 -0.7493  0.7712 -0.0508
32892SOL    HW2 1215   9.388   9.280   7.673 -0.7317  1.2268 -0.3570
32893SOL     OW 1216   7.896   0.213   2.373  0.1443  0.3532 -0.7591
32893SOL    HW1 1217   7.859   0.178   2.455  4.1999  0.4006  1.2145
32893SOL    HW2 1218   7.894   0.308   2.386  0.2733  0.3824 -0.9698
32894SOL     OW 1219   5.562   9.530   5.953  0.0854  0.1848 -0.0641
32894SOL    HW1 1220   5.593   9.454   5.903 -0.6418 -0.0164 -0.2061
32894SOL    HW2 1221   5.476   9.504   5.985  0.1131  0.7056  0.4418
32895SOL     OW 1222   4.101   7.633   2.800  0.5127  0.2501 -0.3569
32895SOL    HW1 1223   4.166   7.645   2.731 -0.2022 -0.3010 -1.1322
32895SOL    HW2 1224   4.099   7.538   2.814  0.9810  0.3900  0.7414
32896SOL     OW 1225   2.782   4.953   5.599 -0.5893  0.2124 -0.6295
32896SOL    HW1 1226   2.819   5.024   5.545 -0.2764 -0.8404 -1.8466
32896SOL    HW2 1227   2.810   4.974   5.688  0.5429  0.9743 -1.1409
32897SOL     OW 1228   1.906   1.672   1.353 -0.8557  0.0774  0.3715
32897SOL    HW1 1229   1.810   1.675   1.358 -0.9518 -0.5986 -0.8233
32897SOL    HW2 1230   1.926   1.582   1.327  0.1530 -0.0043  1.3942
32898SOL     OW 1231   4.902   9.175   4.225  0.3675  0.4494  0.2094
32898SOL    HW1 1232   4.865   9.190   4.312 -1.0242 -0.1541 -0.2485
32898SOL    HW2 1233   4.848   9.228   4.167 -1.5717 -2.4702 -0.8053
32899SOL     OW 1234   0.257   6.144   7.296 -0.4757  0.3337  0.0114
32899SOL    HW1 1235   0.332   6.192   7.261  1.7357 -3.7127 -1.1444
32899SOL    HW2 1236   0.225   6.093   7.222 -3.0592  0.3808  1.0506
32900SOL     OW 1237   4.378   8.851   3.496 -0.2023 -0.1298  0.4611
32900SOL    HW1 1238   4.287   8.869   3.520 -0.6250 -1.2567 -0.2625
32900SOL    HW2 1239   4.425   8.853   3.579 -1.5265 -3.2779  1.3644
32901SOL     OW 1240   3.044   1.319   0.961 -0.1286 -0.0102  0.3666
32901SOL    HW1 1241   3.092   1.237   0.971 -0.9017 -0.2834  1.9396
32901SOL    HW2 1242   3.112   1.385   0.946  0.5764 -0.7484  0.3185
32902SOL     OW 1243   1.638   7.195   6.626 -0.6204 -0.2491  0.3451
32902SOL    HW1 1244   1.714   7.163   6.674 -0.9252  1.0990  1.7686
32902SOL    HW2 1245   1.648   7.290   6.627 -2.4558 -0.0498  0.7693
32903SOL     OW 1246   1.971   4.420   3.262  0.1297 -0.0128  0.4334
32903SOL    HW1 1247   1.922   4.492   3.302 -0.1681 -0.1884  0.3857
32903SOL    HW2 1248   1.904   4.358   3.235  0.2772  0.4669 -1.0937
32904SOL     OW 1249   7.252   6.305   5.049  0.9471  0.3273 -0.1192
32904SOL    HW1 1250   7.227   6.393   5.024 -2.0464 -0.0185  1.4778
32904SOL    HW2 1251   7.232   6.251   4.973 -0.0645  0.5486 -0.0056
32905SOL     OW 1252   2.915   6.622   8.633  0.1220  0.1080 -0.3824
32905SOL    HW1 1253   2.891   6.611   8.541 -1.6912  0.3540  0.0348
32905SOL    HW2 1254   2.873   6.548   8.677  3.3273 -1.6265 -0.1168
32906SOL     OW 1255   7.106   2.501   6.692  0.6712 -0.0743  0.0700
32906SOL    HW1 1256   7.180   2.506   6.753 -1.5503  0.1423  2.8948
32906SOL    HW2 1257   7.108   2.412   6.658  2.0078 -0.1733  0.3730
32907SOL     OW 1258   0.874   8.155   0.897 -0.2846  0.1575  0.1082
32907SOL    HW1 1259   0.852   8.175   0.806  0.5125 -1.1156 -0.3834
32907SOL    HW2 1260   0.970   8.153   0.898 -0.2975 -0.1081  0.9077
32908SOL     OW 1261   6.996   0.268   8.885  0.1636 -0.5695  0.3556
32908SOL    HW1 1262   7.024   0.234   8.970  0.3359  0.2499  0.6368
32908SOL    HW2 1263   7.040   0.353   8.877  0.7414 -0.9698 -0.8842
32909SOL     OW 1264   2.834   7.714   0.760  0.0365 -0.0529  0.3453
32909SOL    HW1 1265   2.825   7.808   0.775  1.7274  0.3343 -0.8566
32909SOL    HW2 1266   2.928   7.700   0.750 -0.2447 -1.7647 -0.1666
32910SOL     OW 1267   8.857   7.222   4.296  0.0734 -0.4591  0.4137
32910SOL    HW1 1268   8.918   7.294   4.313 -1.2335  0.9685 -0.8597
32910SOL    HW2 1269   8.806   7.251   4.221 -0.9395 -2.4363  0.3204
32911SOL     OW 1270   0.641   4.337   4.633  0.3030  0.1839  0.2762
32911SOL    HW1 1271   0.615   4.270   4.697  0.4210 -2.1409 -2.0137
32911SOL    HW2 1272   0.566   4.344   4.574  0.6482  1.4411 -0.0266
32912SOL     OW 1273   0.357   1.497   0.228  0.1194  0.3959 -0.0844
32912SOL    HW1 1274   0.304   1.423   0.258  2.3544 -1.9985 -1.7721
32912SOL    HW2 1275   0.444   1.481   0.265  0.2266  3.1839  1.0101
32913SOL     OW 1276   2.494   3.889   3.638  0.3950 -0.2007 -0.2764
32913SOL    HW1 1277   2.454   3.951   3.578 -0.3810 -0.3534  0.0764
32913SOL    HW2 1278   2.484   3.930   3.725 -1.6885 -1.6213  0.1652
32914SOL     OW 1279   4.625   8.343   6.014  0.5683  0.0095 -0.1996
32914SOL    HW1 1280   4.674   8.349   6.096  3.5541  3.2157 -2.0644
32914SOL    HW2 1281   4.691   8.326   5.947 -1.9284 -3.5780 -1.9078
32915SOL     OW 1282   9.939   4.314   3.516  0.4323 -0.1810  0.0919
32915SOL    HW1 1283   9.945   4.369   3.438  0.7332  0.8703  0.8486
32915SOL    HW2 1284  10.030   4.299   3.542  0.3230 -0.2979  0.4030
32916SOL     OW 1285   5.626   7.534   8.690  0.4148  0.6128 -0.0282
32916SOL    HW1 1286   5.604   7.627   8.694  1.4170  0.9266 -1.5113
32916SOL    HW2 1287   5.657   7.513   8.778  1.7507  2.0815 -0.1357
32917SOL     OW 1288   0.941   4.170   5.121 -0.0852  0.1244 -0.0243
32917SOL    HW1 1289   0.982   4.247   5.080 -1.3325  1.1853  0.6796
32917SOL    HW2 1290   0.922   4.112   5.048  0.8316  0.4967 -0.5778
32918SOL     OW 1291   2.387   0.136   1.095 -0.2989 -0.0914  0.0180
32918SOL    HW1 1292   2.421   0.216   1.055  1.3806  0.1326  1.8085
32918SOL    HW2 1293   2.339   0.093   1.025 -0.0198  1.7798 -1.3744
32919SOL     OW 1294   5.643   8.447   5.885 -1.1573 -0.3250 -0.1969
32919SOL    HW1 1295   5.657   8.353   5.871 -2.2143 -0.5525  0.2817
32919SOL    HW2 1296   5.601   8.453   5.971 -1.2708  0.5736 -0.3128
32920SOL     OW 1297   7.356   5.575   5.674 -0.6290 -0.4295 -0.1596
32920SOL    HW1 1298   7.418   5.597   5.744 -0.5677 -0.9609 -0.0471
32920SOL    HW2 1299   7.371   5.482   5.657 -1.6859 -0.6660  0.1551
32921SOL     OW 1300   9.881   3.267   2.230  0.6791  0.5161  0.2682
32921SOL    HW1 1301   9.835   3.194   2.187 -0.4021  0.0571  2.1230
32921SOL    HW2 1302   9.834   3.279   2.312  1.5411  2.6085  0.4767
32922SOL     OW 1303   9.637   3.005   1.451 -0.0767 -0.1078  0.2937
32922SOL    HW1 1304   9.686   2.925   1.429  0.7689  0.0812  1.4682
32922SOL    HW2 1305   9.674   3.034   1.534 -0.7782  1.1971  0.1619
32923SOL     OW 1306   4.092   6.611   6.758  0.5611 -0.0863  0.5970
32923SOL    HW1 1307   4.164   6.597   6.696 -0.0808 -0.9057  0.0309
32923SOL    HW2 1308   4.101   6.539   6.821 -0.8524 -1.2516 -0.5133
32924SOL     OW 1309   0.953   2.195   9.860 -0.2911 -0.3102  0.5474
32924SOL    HW1 1310   1.034   2.146   9.872  0.2142 -0.1166 -1.8454
32924SOL    HW2 1311   0.893   2.133   9.820 -0.1709  0.5238 -0.9634
32925SOL     OW 1312   4.113   5.862   3.190 -0.1246 -0.1042  0.2731
32925SOL    HW1 1313   4.049   5.805   3.148  0.5724 -1.8032  1.4760
32925SOL    HW2 1314   4.080   5.950   3.174  0.7898 -0.5229 -5.0831
32926SOL     OW 1315   4.228   1.818   8.670  0.0069  0.3509 -0.1134
32926SOL    HW1 1316   4.180   1.803   8.589  1.2507 -0.6393 -0.6817
32926SOL    HW2 1317   4.198   1.749   8.730  1.0953 -0.5863 -0.6406
32927SOL     OW 1318   8.312   4.920   1.251 -0.2099  0.9474 -0.8932
32927SOL    HW1 1319   8.341   4.830   1.240  1.3462  1.5387 -1.8772
32927SOL    HW2 1320   8.257   4.919   1.329  2.1421 -0.3241  0.8199
32928SOL     OW 1321   1.042   7.315   9.031  0.9527  0.0748  0.3360
32928SOL    HW1 1322   0.949   7.293   9.020  0.8413  0.5355  0.3221
32928SOL    HW2 1323   1.083   7.234   9.061 -0.0726  0.7889  3.8288
32929SOL     OW 1324   8.069   7.210   0.793 -0.4965 -0.2410  0.3010
32929SOL    HW1 1325   8.051   7.196   0.700  0.2201  0.4588  0.0471
32929SOL    HW2 1326   8.018   7.288   0.815  2.1897  1.8106 -0.4451
32930SOL     OW 1327   3.689  10.146   6.581  0.0991 -0.1809 -0.2038
32930SOL    HW1 1328   3.719  10.105   6.500  1.0442  0.2457 -0.0747
32930SOL    HW2 1329   3.594  10.135   6.580 -0.0806  1.2698 -2.1669
32931SOL     OW 1330   1.975   9.034   6.120 -0.0116  0.1125 -0.3477
32931SOL    HW1 1331   1.893   8.997   6.088 -1.3924  1.7024  1.2790
32931SOL    HW2 1332   1.962   9.044   6.214  1.4630  1.8794 -0.3171
32932SOL     OW 1333   4.625   8.393   5.443  0.4938 -0.1407 -0.7343
32932SOL    HW1 1334   4.705   8.342   5.436 -1.2181 -3.4998  2.6040
32932SOL    HW2 1335   4.568   8.360   5.373  0.4115 -0.8214 -0.3421
32933SOL     OW 1336   0.451   5.725   3.763 -0.2166 -0.3047 -0.8297
32933SOL    HW1 1337   0.505   5.803   3.749 -1.0358  0.6747  1.3318
32933SOL    HW2 1338   0.481   5.689   3.846 -0.0925 -2.1185 -1.6349
32934SOL     OW 1339   8.628   1.520   0.346 -0.0365  0.3535  0.3439
32934SOL    HW1 1340   8.620   1.426   0.333  0.6225  0.3431  0.0163
32934SOL    HW2 1341   8.586   1.536   0.431  1.0550 -0.4379  1.0507
32935SOL     OW 1342   1.016   1.746   3.654 -0.1481  0.2586 -0.0837
32935SOL    HW1 1343   0.981   1.663   3.687  0.4475  0.2558  0.5410
32935SOL    HW2 1344   0.969   1.760   3.571 -1.4104  0.0992  0.5833
32936SOL     OW 1345   2.982   0.396   9.700  0.3535 -0.0101 -0.1991
32936SOL    HW1 1346   2.930   0.470   9.671  0.1428  0.0463  0.3174
32936SOL    HW2 1347   2.959   0.384   9.792  0.3680 -0.7308 -0.2811
32937SOL     OW 1348   1.789   8.042   9.035  0.8365  0.0274 -0.1061
32937SOL    HW1 1349   1.881   8.016   9.043  0.7224  0.2199  1.9507
32937SOL    HW2 1350   1.782   8.078   8.946  2.7437  0.0459 -0.2672
32938SOL     OW 1351   1.533   7.343   7.126  0.1737  0.6001 -0.0170
32938SOL    HW1 1352   1.519   7.406   7.196  1.8954  0.8037  0.1737
32938SOL    HW2 1353   1.605   7.288   7.158  1.5667  1.2367 -1.9894
32939SOL     OW 1354   0.715   5.391   3.899  0.4191  0.5190 -0.2533
32939SOL    HW1 1355   0.790   5.331   3.895  0.1414  0.1824 -0.4176
32939SOL    HW2 1356   0.723   5.433   3.984  2.1315  2.2300 -1.2241
32940SOL     OW 1357   1.313   0.585   8.015  0.2323 -0.4673  0.1508
32940SOL    HW1 1358   1.313   0.512   8.077 -0.9913 -0.6651 -0.0773
32940SOL    HW2 1359   1.223   0.590   7.984  0.3402  1.0449  0.0564
32941SOL     OW 1360   8.664   2.772   3.088 -0.2346  0.0863  0.1781
32941SOL    HW1 1361   8.619   2.688   3.084 -0.0422  0.1098 -3.6570
32941SOL    HW2 1362   8.757   2.750   3.080 -0.2852  0.7286 -2.4521
32942SOL     OW 1363   8.943   3.557   3.855 -0.1498  0.7464  0.6612
32942SOL    HW1 1364   8.988   3.559   3.770  1.1938 -0.4400  1.3298
32942SOL    HW2 1365   8.943   3.464   3.879 -1.6443  0.9246  1.3831
32943SOL     OW 1366   7.719   1.048   1.160 -0.2729  0.4640 -0.2780
32943SOL    HW1 1367   7.711   0.955   1.140 -1.5309  0.1763  1.4341
32943SOL    HW2 1368   7.777   1.051   1.237  1.0242  1.2229 -1.2660
32944SOL     OW 1369   3.412   7.180   8.911  0.0965  0.5536 -0.5873
32944SOL    HW1 1370   3.485   7.221   8.958 -0.3554  0.6974 -0.0033
32944SOL    HW2 1371   3.341   7.178   8.974 -1.1027  2.4266 -1.8099
32945SOL     OW 1372   2.203   6.857   5.372  0.3676  0.1814  0.1059
32945SOL    HW1 1373   2.243   6.935   5.333  0.2452  0.5416  0.6887
32945SOL    HW2 1374   2.260   6.785   5.346 -0.5825  0.1656 -2.0929
32946SOL     OW 1375   7.653   5.556   5.514 -0.3267 -0.1721  0.1695
32946SOL    HW1 1376   7.569   5.599   5.528 -0.2568 -0.3484  1.1844
32946SOL    HW2 1377   7.672   5.513   5.597  0.1360 -1.2402 -0.4760
32947SOL     OW 1378   9.933   0.856   8.469 -0.6774 -0.4123 -0.0303
32947SOL    HW1 1379   9.968   0.825   8.553 -1.8246  0.4192  0.7785
32947SOL    HW2 1380   9.960   0.947   8.464  0.9506 -0.9365 -1.4491
32948SOL     OW 1381   1.063   6.644   1.904 -0.5297 -0.2116  0.1004
32948SOL    HW1 1382   1.004   6.701   1.953 -3.5183 -0.4865 -2.9794
32948SOL    HW2 1383   1.072   6.566   1.958 -1.1365  0.7895  1.6703
32949SOL     OW 1384   4.309   1.113   5.762 -0.5949 -0.4287  0.6484
32949SOL    HW1 1385   4.352   1.033   5.789  1.3383  0.1773 -0.5253
32949SOL    HW2 1386   4.370   1.183   5.785 -0.3949  0.3644 -2.0387
32950SOL     OW 1387   5.004   0.657   2.203 -0.0096  0.3040  0.2269
32950SOL    HW1 1388   5.090   0.690   2.226  0.3565  1.9104 -3.1060
32950SOL    HW2 1389   5.018   0.612   2.119 -2.0980 -0.9703  0.5242
32951SOL     OW 1390   7.853   9.974   7.646 -0.0239 -0.6795  0.5428
32951SOL    HW1 1391   7.790   9.901   7.639 -1.2525  0.4629 -0.7594
32951SOL    HW2 1392   7.844  10.005   7.736 -2.3560  0.3156  0.0140
32952SOL     OW 1393   4.459   9.286   5.656 -0.0991 -0.2369  0.0003
32952SOL    HW1 1394   4.386   9.295   5.717  0.5558  0.1211  0.7525
32952SOL    HW2 1395   4.503   9.206   5.684  0.2340 -0.0417  0.0378
32953SOL     OW 1396   7.922   7.109   3.129  0.4702  0.3183  0.1344
32953SOL    HW1 1397   7.967   7.145   3.053  0.1115 -0.4451 -0.4506
32953SOL    HW2 1398   7.922   7.180   3.193  1.9045  0.5481 -0.1017
32954SOL     OW 1399   6.831   3.680   5.390  0.2981  0.2355 -0.3174
32954SOL    HW1 1400   6.885   3.662   5.312  2.3461  0.6886  0.9535
32954SOL    HW2 1401   6.816   3.774   5.386  2.5330  0.6878  1.1289
32955SOL     OW 1402   0.864   6.548   1.746 -0.5013 -0.4724 -0.1643
32955SOL    HW1 1403   0.931   6.602   1.789  0.1362  0.1900 -1.9260
32955SOL    HW2 1404   0.789   6.606   1.737 -0.4731 -0.4628 -0.3431
32956SOL     OW 1405   8.280   0.581   2.800  0.3191 -0.6675 -0.1967
32956SOL    HW1 1406   8.239   0.546   2.879  1.4102 -0.1611  0.6075
32956SOL    HW2 1407   8.334   0.509   2.767  1.5265 -0.1916  0.7168
32957SOL     OW 1408   0.892   7.969   6.204 -0.1102 -0.6720  0.0176
32957SOL    HW1 1409   0.901   8.020   6.124 -1.8345  0.2306  0.3838
32957SOL    HW2 1410   0.939   8.020   6.270 -2.2611  0.7479  0.4973
32958SOL     OW 1411   7.512   9.701   8.791 -0.3539  0.2585  0.7540
32958SOL    HW1 1412   7.512   9.695   8.887 -0.9778 -0.1397  0.7343
32958SOL    HW2 1413   7.562   9.625   8.762 -0.7841 -0.0306  0.7518
32959SOL     OW 1414   7.484   0.315   4.088  0.4708  0.0602 -0.5714
32959SOL    HW1 1415   7.438   0.353   4.012 -2.6720 -1.0227  0.7234
32959SOL    HW2 1416   7.465   0.376   4.160  0.0414 -1.0522  0.2634
32960SOL     OW 1417   2.246   0.770   8.591 -0.0735 -0.5156  0.2405
32960SOL    HW1 1418   2.322   0.716   8.613  0.3919  0.4807  1.0864
32960SOL    HW2 1419   2.229   0.750   8.499  0.6818 -1.3781  0.2790
32961SOL     OW 1420   6.923   7.200   4.732 -0.6279 -0.1099 -0.2388
32961SOL    HW1 1421   6.882   7.235   4.811  0.6563  0.0741  0.3590
32961SOL    HW2 1422   6.920   7.105   4.744 -0.1457 -0.0738  0.1880
32962SOL     OW 1423   2.863   7.188   9.142  0.2902 -0.6404 -0.0993
32962SOL    HW1 1424   2.879   7.193   9.047 -1.4971  1.1074 -0.3471
32962SOL    HW2 1425   2.801   7.258   9.159  2.0387  0.3262  2.7121
32963SOL     OW 1426   3.134   6.051   8.205 -0.5187  0.3255 -0.0272
32963SOL    HW1 1427   3.153   6.101   8.285 -0.5715 -0.7350  0.6509
32963SOL    HW2 1428   3.088   5.974   8.235  0.4481 -0.6409 -0.9712
32964SOL     OW 1429   4.899   9.372   0.901 -0.1074  0.3441  0.5350
32964SOL    HW1 1430   4.808   9.348   0.915  0.0928 -1.1559 -0.6041
32964SOL    HW2 1431   4.898   9.466   0.886 -1.5221  0.2495  0.0565
32965SOL     OW 1432   1.718   0.326   0.034  0.5687 -0.4997 -0.1880
32965SOL    HW1 1433   1.641   0.275   0.056  2.3515 -3.3167 -0.2524
32965SOL    HW2 1434   1.694   0.416   0.055 -1.9297 -1.6018  1.9302
32966SOL     OW 1435   1.008   8.480   4.875  0.0737 -0.3832  0.5583
32966SOL    HW1 1436   1.045   8.421   4.941 -0.0797  0.4867  1.4367
32966SOL    HW2 1437   1.083   8.503   4.820  0.2915 -0.7959  0.6817
32967SOL     OW 1438   8.448   4.443   6.775  0.7442  0.0583 -0.1235
32967SOL    HW1 1439   8.403   4.398   6.846  0.7340  0.7023  0.2809
32967SOL    HW2 1440   8.530   4.394   6.764  0.6583 -0.1601  0.2008
32968SOL     OW 1441   9.743   8.423   6.449  0.3046 -0.2274  0.2403
32968SOL    HW1 1442   9.778   8.481   6.517 -0.7913  0.6631  0.0713
32968SOL    HW2 1443   9.817   8.405   6.391  0.5283  1.4674 -0.0196
32969SOL     OW 1444   8.179   1.985   5.174  0.0816  0.6960  0.7892
32969SOL    HW1 1445   8.167   1.932   5.095  0.5964  0.6003  0.7744
32969SOL    HW2 1446   8.144   2.071   5.151  0.7830  0.8431  0.2530
32970SOL     OW 1447   1.735   5.629   2.692  0.4575  0.0355  0.2121
32970SOL    HW1 1448   1.726   5.561   2.625  0.9265  1.4855 -1.3536
32970SOL    HW2 1449   1.691   5.705   2.655 -2.7975 -0.2682  3.2516
32971SOL     OW 1450   1.602   4.147   2.993 -0.5358 -0.6698 -0.3138
32971SOL    HW1 1451   1.574   4.064   3.032  1.4099 -1.5359 -0.7085
32971SOL    HW2 1452   1.640   4.122   2.908  2.5752  0.2763  0.7345
32972SOL     OW 1453   6.159   8.867   4.956  0.7421  0.1646 -0.1005
32972SOL    HW1 1454   6.160   8.850   4.862  2.2690  0.8206 -0.2136
32972SOL    HW2 1455   6.159   8.962   4.963  0.6113  0.1173  0.5647
32973SOL     OW 1456   2.517   7.564   2.673 -0.0858  0.1099 -0.0575
32973SOL    HW1 1457   2.528   7.559   2.578  0.6550  2.8371 -0.1502
32973SOL    HW2 1458   2.486   7.477   2.698 -2.1743 -0.0558 -3.0246
32974SOL     OW 1459   6.623   1.981   9.851  0.7262  0.1749 -0.2377
32974SOL    HW1 1460   6.709   1.987   9.891  0.3419  0.3461  0.5719
32974SOL    HW2 1461   6.603   1.887   9.851  0.4997  0.2206  0.4638
32975SOL     OW 1462   7.703   6.495   6.462 -0.1916  0.2371 -0.3335
32975SOL    HW1 1463   7.749   6.439   6.399 -1.0608 -1.0733  0.1747
32975SOL    HW2 1464   7.628   6.442   6.490 -0.8928  1.5779  0.3334
32976SOL     OW 1465   5.736   9.628   1.451 -0.8908  0.2372 -0.3437
32976SOL    HW1 1466   5.734   9.722   1.434 -1.5000  0.7325  2.2037
32976SOL    HW2 1467   5.655   9.610   1.498 -0.9121 -1.6170 -1.0581
32977SOL     OW 1468   1.691   9.232   7.129  0.1047  0.4592 -0.7649
32977SOL    HW1 1469   1.708   9.287   7.205 -0.2598  0.8089 -0.9317
32977SOL    HW2 1470   1.596   9.220   7.128  0.2417 -0.7137 -0.3631
32978SOL     OW 1471   3.208   5.757   9.280 -0.8420  0.1904  0.3459
32978SOL    HW1 1472   3.188   5.664   9.291  0.8088 -0.0887  1.0750
32978SOL    HW2 1473   3.289   5.758   9.230 -0.4960  1.2380  0.9264
32979SOL     OW 1474   7.526   2.021   6.646 -0.2098  0.3137  0.5207
32979SOL    HW1 1475   7.603   1.966   6.633  1.8963  3.2248  0.1956
32979SOL    HW2 1476   7.524   2.038   6.740 -1.5519 -1.2396  0.7910
32980SOL     OW 1477   7.283   8.711   9.521 -0.2720 -0.8036 -0.0030
32980SOL    HW1 1478   7.199   8.698   9.565 -2.1978 -0.4943 -3.4323
32980SOL    HW2 1479   7.333   8.632   9.541 -2.0689 -1.8100  0.6114
32981SOL     OW 1480   7.678   4.146   6.798 -1.0748 -1.0593  0.6578
32981SOL    HW1 1481   7.668   4.125   6.705  1.3045 -0.4876  0.2473
32981SOL    HW2 1482   7.625   4.225   6.810 -0.3028 -0.3581 -0.5216
32982SOL     OW 1483   8.761   7.725   9.277  0.2628 -0.1309  0.0388
32982SOL    HW1 1484   8.746   7.641   9.321  1.2775 -0.3250  0.0256
32982SOL    HW2 1485   8.848   7.752   9.306 -0.1156  0.9868  0.1441
32983SOL     OW 1486   1.803   6.628   5.415  0.5337 -0.1307  0.3886
32983SOL    HW1 1487   1.864   6.609   5.486  1.7413  1.2767 -0.2351
32983SOL    HW2 1488   1.855   6.678   5.352 -0.4067 -1.6654 -1.6590
32984SOL     OW 1489   2.877   2.094   1.288 -0.1704 -0.1908 -0.1573
32984SOL    HW1 1490   2.945   2.153   1.321  0.3955 -0.6772 -0.4487
32984SOL    HW2 1491   2.817   2.083   1.362  0.6004 -0.5409  0.4195
32985SOL     OW 1492  10.190   2.647   9.471 -0.5896 -0.3900 -0.4779
32985SOL    HW1 1493  10.269   2.680   9.428 -1.1087  1.5148 -0.0040
32985SOL    HW2 1494  10.221   2.616   9.556 -0.5074  1.4554  0.1912
32986SOL     OW 1495   6.680   9.141   8.137 -0.3526 -0.2031 -0.1433
32986SOL    HW1 1496   6.604   9.192   8.164  0.6531  1.3616 -0.1991
32986SOL    HW2 1497   6.670   9.131   8.042 -0.7604 -0.4541 -0.0741
32987SOL     OW 1498   3.001   0.974   7.016 -0.3687  0.7645 -0.9358
32987SOL    HW1 1499   2.983   0.974   6.922 -0.4043  1.5812 -0.9337
32987SOL    HW2 1500   3.044   1.058   7.032 -1.2767  1.0815 -0.0545
32988SOL     OW 1501  10.050   0.405   2.492 -0.0201 -0.0056  0.3061
32988SOL    HW1 1502   9.994   0.478   2.519 -3.1254 -1.9831 -0.5452
32988SOL    HW2 1503  10.045   0.343   2.564  1.1723 -0.1804  0.2531
32989SOL     OW 1504   6.126  10.097   5.737  0.3763 -0.3581  0.2976
32989SOL    HW1 1505   6.071  10.138   5.671  0.0119  0.9866  1.4308
32989SOL    HW2 1506   6.072  10.093   5.816  2.2256  2.0484  1.7801
32990SOL     OW 1507   7.756   5.705   2.431 -0.3845 -0.2509 -0.1291
32990SOL    HW1 1508   7.738   5.765   2.503 -0.5425  0.0906 -0.4538
32990SOL    HW2 1509   7.774   5.621   2.474 -0.5827 -0.0734  0.3043
32991SOL     OW 1510   9.319   2.434   4.320 -0.5501  0.1657  0.1428
32991SOL    HW1 1511   9.256   2.372   4.285 -1.0541 -0.6787  2.4613
32991SOL    HW2 1512   9.265   2.501   4.364  0.1126  0.0119  1.2132
32992SOL     OW 1513   9.021   7.791   5.167  0.2130 -0.6110  0.3210
32992SOL    HW1 1514   9.088   7.822   5.105 -0.9826 -0.2102 -0.8134
32992SOL    HW2 1515   9.015   7.860   5.232  0.5406 -0.4002  0.1309
32993SOL     OW 1516   1.760   7.599   7.249  0.1985 -0.0032 -0.0757
32993SOL    HW1 1517   1.777   7.627   7.159  0.8125  0.9778  0.3362
32993SOL    HW2 1518   1.755   7.503   7.244 -0.6168  0.1011 -1.2881
32994SOL     OW 1519   3.607   5.353   7.336  0.5340  0.5276 -0.4078
32994SOL    HW1 1520   3.676   5.346   7.402  0.6157 -0.9846 -0.6379
32994SOL    HW2 1521   3.649   5.328   7.254  0.1359  1.2500 -0.8349
32995SOL     OW 1522   4.971   6.629   3.719  0.0864 -0.0775 -0.7839
32995SOL    HW1 1523   5.043   6.679   3.757 -0.3059  1.3364 -1.8210
32995SOL    HW2 1524   5.011   6.548   3.687  0.8377 -0.1940  0.4368
32996SOL     OW 1525   4.979   4.402   4.982 -0.3581 -0.9278 -0.7854
32996SOL    HW1 1526   5.065   4.406   4.940 -0.1342  0.2251 -0.2197
32996SOL    HW2 1527   4.918   4.433   4.915  0.0371  1.2243 -0.1727
32997SOL     OW 1528   1.269   2.176   3.083  0.3331  0.1752 -1.0113
32997SOL    HW1 1529   1.242   2.268   3.083 -0.8488 -0.1018  2.5918
32997SOL    HW2 1530   1.216   2.136   3.014 -1.6707  1.5113 -0.2770
32998SOL     OW 1531   9.631   9.126   3.178 -0.3735  0.4558  0.1454
32998SOL    HW1 1532   9.561   9.104   3.117 -0.3388 -0.5586  0.4594
32998SOL    HW2 1533   9.700   9.162   3.123 -1.1136  1.4161 -0.1721
32999SOL     OW 1534   3.282   5.287   6.994 -0.0184  0.5233  0.2961
32999SOL    HW1 1535   3.279   5.372   6.949 -0.9049  1.1516  1.4965
32999SOL    HW2 1536   3.328   5.305   7.076  0.8094 -0.4227  0.0540
33000SOL     OW 1537   8.716   4.616   3.768  0.2479 -0.4434 -0.5623
33000SOL    HW1 1538   8.623   4.612   3.750  0.1373 -1.4660  0.1709
33000SOL    HW2 1539   8.757   4.564   3.699  0.5280  2.0423 -2.3597
33001SOL     OW 1540   3.702   8.844   9.642  0.4882  0.5868  0.0371
33001SOL    HW1 1541   3.620   8.856   9.595 -0.6686  5.4769  2.8997
33001SOL    HW2 1542   3.721   8.751   9.635 -3.6312 -0.1548 -3.3469
33002SOL     OW 1543   8.406   4.647   1.146  0.0025  0.4241 -0.0437
33002SOL    HW1 1544   8.324   4.669   1.101 -0.3701  0.4045  0.6295
33002SOL    HW2 1545   8.440   4.572   1.097 -0.2415  0.5951 -0.4841
33003SOL     OW 1546   3.678   3.286   2.168 -0.1413  0.4677 -0.5531
33003SOL    HW1 1547   3.616   3.357   2.147  0.4688  1.2317  0.2075
33003SOL    HW2 1548   3.712   3.259   2.083 -0.2332  1.2198 -0.8348
33004SOL     OW 1549   7.740  10.069   2.480  0.2492 -0.0650 -0.4907
33004SOL    HW1 1550   7.657  10.021   2.492 -0.3093  1.1177  0.5653
33004SOL    HW2 1551   7.713  10.159   2.464  1.3248  0.1365 -1.1862
33005SOL     OW 1552   9.059   8.100   9.647 -1.0825  1.0207 -0.3746
33005SOL    HW1 1553   8.967   8.106   9.671 -1.0218  0.0082  0.1190
33005SOL    HW2 1554   9.066   8.016   9.601 -0.2251  0.6897  0.3647
33006SOL     OW 1555   1.062   0.859   6.460  0.2082 -1.0140 -0.3478
33006SOL    HW1 1556   1.007   0.936   6.442  1.4070 -0.0414  0.0567
33006SOL    HW2 1557   1.002   0.795   6.498 -0.6441  0.0553  0.1525
33007SOL     OW 1558   4.544   6.415   9.685  0.6312 -0.1270  0.2159
33007SOL    HW1 1559   4.595   6.347   9.641  0.4151  0.1276 -0.4319
33007SOL    HW2 1560   4.610   6.473   9.722  0.8156 -0.3792  0.2882
33008SOL     OW 1561   9.655   7.640   6.955  0.2116  0.3950  0.0081
33008SOL    HW1 1562   9.732   7.678   6.915  0.1302  0.8127  0.2482
33008SOL    HW2 1563   9.685   7.607   7.040  0.5335 -1.0833 -0.6615
33009SOL     OW 1564   5.164   5.572   2.160 -0.4228  0.0972  0.5943
33009SOL    HW1 1565   5.172   5.488   2.206 -1.5959  0.2937  1.1877
33009SOL    HW2 1566   5.252   5.589   2.126 -0.6205 -2.3976 -1.3512
33010SOL     OW 1567   6.313   2.941   3.799 -0.5274  0.1972  0.0450
33010SOL    HW1 1568   6.226   2.901   3.789 -1.7250  2.3405  1.4732
33010SOL    HW2 1569   6.313   2.976   3.888  1.6163  0.7411 -0.1423
33011SOL     OW 1570   5.002   2.060   9.449 -0.4400 -0.2008  0.2065
33011SOL    HW1 1571   4.919   2.076   9.493 -0.6223  2.0762 -0.8891
33011SOL    HW2 1572   5.054   2.009   9.512 -1.1641  1.8354  2.5141
33012SOL     OW 1573   1.947   8.868   8.261 -0.4180 -0.6098  0.5171
33012SOL    HW1 1574   1.954   8.898   8.352  1.5020  0.5938  0.0075
33012SOL    HW2 1575   1.939   8.949   8.210  0.2908 -1.1913 -0.5286
33013SOL     OW 1576   2.520   8.214   5.988 -0.2980  0.3745 -0.1570
33013SOL    HW1 1577   2.574   8.199   6.066 -0.4981  0.5233  0.0132
33013SOL    HW2 1578   2.573   8.269   5.932 -0.2318  0.4356 -0.0339
33014SOL     OW 1579   3.643  10.039   8.955  0.2488 -0.2110 -0.2238
33014SOL    HW1 1580   3.737  10.057   8.962 -0.3568  2.3220  3.2038
33014SOL    HW2 1581   3.626   9.971   9.021 -0.3557 -0.3828 -0.5520
33015SOL     OW 1582   1.118   9.628   7.467  0.4319  0.0668  0.3532
33015SOL    HW1 1583   1.090   9.536   7.463  0.6677 -0.1203  2.3350
33015SOL    HW2 1584   1.208   9.625   7.498  0.2909  0.9711  0.8890
33016SOL     OW 1585   3.002   9.832   5.083  0.0314  0.0858 -0.3105
33016SOL    HW1 1586   2.938   9.773   5.122  0.9745 -0.1596  0.8987
33016SOL    HW2 1587   3.086   9.808   5.124  0.6239  1.4533 -0.6800
33017SOL     OW 1588   6.676   7.794   1.054 -0.5626  0.3054  0.7367
33017SOL    HW1 1589   6.722   7.877   1.042 -0.4573  0.5065  2.4047
33017SOL    HW2 1590   6.645   7.797   1.145  1.7169 -2.5939  1.7045
33018SOL     OW 1591   0.921   3.273   0.233  0.2723  0.5460  0.0569
33018SOL    HW1 1592   0.986   3.205   0.216 -1.1327 -1.1586  1.3125
33018SOL    HW2 1593   0.861   3.270   0.159  0.4090  0.6588 -0.0582
33019SOL     OW 1594   7.238   8.407   4.209 -0.1671  0.0441 -0.2820
33019SOL    HW1 1595   7.307   8.407   4.142  0.2129 -1.4547  0.0838
33019SOL    HW2 1596   7.204   8.318   4.207 -0.5028  0.1390  1.1699
33020SOL     OW 1597   6.296   6.816   9.707  0.2246 -0.1638 -0.1635
33020SOL    HW1 1598   6.358   6.790   9.639  0.7339 -1.1430  0.6530
33020SOL    HW2 1599   6.331   6.899   9.740 -0.0391  0.3265 -1.1071
33021SOL     OW 1600   7.039   7.511   6.341  0.1531 -0.0033  0.0931
33021SOL    HW1 1601   6.995   7.596   6.337 -3.3251 -1.7478 -0.4263
33021SOL    HW2 1602   7.059   7.491   6.249 -1.8996 -1.1421 -0.1271
33022SOL     OW 1603   4.802   9.000   6.719 -0.2097  0.1255  0.3220
33022SOL    HW1 1604   4.775   8.908   6.714  1.4842 -0.5388  2.6660
33022SOL    HW2 1605   4.875   9.007   6.658 -0.5135  0.0034 -0.0622
33023SOL     OW 1606   2.284   8.033   4.883  0.2936  0.4239 -0.1438
33023SOL    HW1 1607   2.299   8.080   4.800 -1.6268  0.1368 -0.6811
33023SOL    HW2 1608   2.193   8.053   4.905  0.2339 -1.0069  0.9410
33024SOL     OW 1609   2.157   2.451   4.149  0.2469  0.3689  0.0393
33024SOL    HW1 1610   2.088   2.491   4.203  0.7459  0.5416  0.5537
33024SOL    HW2 1611   2.232   2.510   4.159  1.8407 -2.0484  2.8895
33025SOL     OW 1612   3.307   1.924   9.186 -0.0805  0.0347  0.4454
33025SOL    HW1 1613   3.280   1.971   9.108  1.3351  1.4890  0.7957
33025SOL    HW2 1614   3.266   1.971   9.259  1.0254  0.5091  0.7715
33026SOL     OW 1615   6.456   7.609   7.625  0.6478 -0.1302 -0.5706
33026SOL    HW1 1616   6.516   7.561   7.682 -1.4962 -0.3059  1.5976
33026SOL    HW2 1617   6.457   7.699   7.659  1.7791  0.5406 -2.2873
33027SOL     OW 1618   3.302   6.821   3.682 -0.0629 -0.2520  0.1098
33027SOL    HW1 1619   3.332   6.912   3.679 -1.4333  0.1514 -2.5409
33027SOL    HW2 1620   3.375   6.771   3.645  0.1300 -0.0958  0.2747
33028SOL     OW 1621   8.834   4.912   2.169  0.0544 -0.0115  0.0235
33028SOL    HW1 1622   8.928   4.898   2.176 -0.0835 -1.3248 -0.6319
33028SOL    HW2 1623   8.797   4.863   2.243 -0.1617 -0.0331 -0.0980
33029SOL     OW 1624   7.522   9.466   3.182 -0.4308  0.5317 -0.1721
33029SOL    HW1 1625   7.606   9.489   3.141 -0.5947  0.0028 -0.8185
33029SOL    HW2 1626   7.502   9.540   3.239  0.5294  0.6179  0.0686
33030SOL     OW 1627   1.709   7.720   3.507  0.5359  0.0251 -0.7337
33030SOL    HW1 1628   1.741   7.792   3.562 -1.9303  0.9228 -0.3909
33030SOL    HW2 1629   1.621   7.702   3.540  0.0942 -1.3340 -2.5770
33031SOL     OW 1630   7.684   7.308   6.720 -0.0605  0.1237  0.0887
33031SOL    HW1 1631   7.617   7.249   6.754 -0.6321  0.2512 -0.8212
33031SOL    HW2 1632   7.651   7.396   6.738 -0.0675  0.1869 -0.2421
33032SOL     OW 1633   4.954   3.851   2.766 -0.0185  0.1884 -0.5640
33032SOL    HW1 1634   5.001   3.930   2.739  0.6460  0.3670  1.0744
33032SOL    HW2 1635   5.022   3.793   2.800 -0.7588 -0.2676  0.1472
33033SOL     OW 1636   1.727   8.542   8.766 -0.1995 -0.6261  0.0523
33033SOL    HW1 1637   1.658   8.595   8.806 -1.1040 -1.1309 -0.8140
33033SOL    HW2 1638   1.739   8.579   8.679  1.0376 -0.1820  0.4098
33034SOL     OW 1639   7.495   1.486   9.166 -0.4416 -0.0578  0.4199
33034SOL    HW1 1640   7.575   1.530   9.138 -0.8321 -1.0492 -2.4469
33034SOL    HW2 1641   7.428   1.516   9.104 -1.6337 -1.3932  1.0172
33035SOL     OW 1642   8.579   5.902   9.406  0.4405 -0.3377 -0.2993
33035SOL    HW1 1643   8.580   5.829   9.344  0.9877  0.0736 -0.7819
33035SOL    HW2 1644   8.546   5.863   9.487 -0.2894 -0.8812 -0.8388
33036SOL     OW 1645   2.872   8.973   1.551 -0.7984 -0.1932 -0.1846
33036SOL    HW1 1646   2.827   8.982   1.635 -1.1610 -0.3035 -0.3665
33036SOL    HW2 1647   2.959   8.940   1.574 -0.2425  1.5556  0.3055
33037SOL     OW 1648   3.874   7.943   9.952 -0.3800  0.3531  0.9042
33037SOL    HW1 1649   3.881   7.862  10.003  1.7587  0.6677  1.1736
33037SOL    HW2 1650   3.874   7.914   9.861  1.6783  0.0856  0.9595
33038SOL     OW 1651   9.801   0.769   7.625  0.2069  0.1667  0.1248
33038SOL    HW1 1652   9.734   0.799   7.563 -0.2533 -0.3153  0.3902
33038SOL    HW2 1653   9.772   0.800   7.710 -0.2088 -0.9255  0.3827
33039SOL     OW 1654   5.719   9.931   7.945 -0.1437 -0.7406 -0.1630
33039SOL    HW1 1655   5.771   9.886   7.879  0.9204  0.4793 -0.1676
33039SOL    HW2 1656   5.780   9.993   7.986 -0.9526 -1.0052  1.4999
33040SOL     OW 1657   5.382   2.108   3.352  0.0570  0.1937 -0.2290
33040SOL    HW1 1658   5.414   2.132   3.265 -0.5929 -2.9209 -1.3631
33040SOL    HW2 1659   5.289   2.128   3.350 -0.0444 -0.3011 -0.3935
33041SOL     OW 1660   5.598   5.125   5.460  0.1327  0.4057 -0.1063
33041SOL    HW1 1661   5.545   5.047   5.445  1.9060 -0.3268 -2.9297
33041SOL    HW2 1662   5.678   5.109   5.411  1.1422  3.3971  0.4829
33042SOL     OW 1663   6.845   2.026   5.384  0.5195 -0.5394 -0.6782
33042SOL    HW1 1664   6.912   1.957   5.386  0.5285 -0.5146  0.3993
33042SOL    HW2 1665   6.890   2.104   5.415  0.0998 -0.4315 -0.3283
33043SOL     OW 1666   4.169   6.273   3.775  0.0405  0.5924  0.2384
33043SOL    HW1 1667   4.159   6.189   3.820 -0.2337  0.8859  0.7306
33043SOL    HW2 1668   4.119   6.335   3.828 -0.8973  0.8029 -0.8751
33044SOL     OW 1669   2.993   2.727   5.705 -0.1604 -0.8556  0.0421
33044SOL    HW1 1670   3.014   2.728   5.798 -1.2078 -2.9308  0.3315
33044SOL    HW2 1671   2.940   2.806   5.691  0.3588 -0.3081  1.0930
33045SOL     OW 1672   7.364   0.364   3.854 -0.1130  0.0815 -0.1438
33045SOL    HW1 1673   7.350   0.446   3.807  0.6149 -0.3708 -1.1800
33045SOL    HW2 1674   7.279   0.319   3.851 -0.6841  1.0714  0.9853
33046SOL     OW 1675   4.740   0.480   3.393 -0.1504 -0.2628  0.5497
33046SOL    HW1 1676   4.810   0.478   3.328 -0.3979 -0.5481  0.2926
33046SOL    HW2 1677   4.754   0.400   3.444  0.0949  0.0026  0.9013
33047SOL     OW 1678   1.727   9.497   4.123 -0.3464 -0.0039 -0.1930
33047SOL    HW1 1679   1.738   9.405   4.146  0.1100  0.0660 -0.1387
33047SOL    HW2 1680   1.814   9.526   4.096 -0.6514  0.1963 -0.9862
33048SOL     OW 1681   7.351   7.187   7.106 -0.2136 -0.2235  0.0252
33048SOL    HW1 1682   7.399   7.117   7.151 -1.5558 -0.0193  1.7937
33048SOL    HW2 1683   7.355   7.262   7.165  1.1345  1.2337 -1.8151
33049SOL     OW 1684   4.707   6.952   4.017  0.9097  0.3075  0.5591
33049SOL    HW1 1685   4.660   6.869   4.008 -0.5612  1.2273 -0.5727
33049SOL    HW2 1686   4.700   6.973   4.110  0.1855 -0.2200  0.6300
33050SOL     OW 1687   7.966   1.591   5.321 -0.2810 -0.3361  0.3653
33050SOL    HW1 1688   7.976   1.497   5.309 -1.6336 -0.2638 -1.5711
33050SOL    HW2 1689   7.888   1.613   5.271  0.9983  2.1044 -0.6090
33051SOL     OW 1690   3.830   2.840   7.387 -0.0282  0.1579  0.7995
33051SOL    HW1 1691   3.844   2.820   7.480  1.5317  0.0418  0.5624
33051SOL    HW2 1692   3.867   2.765   7.341 -2.7340 -0.8063  0.1115
33052SOL     OW 1693   7.492   9.715   2.972 -0.7354 -0.1496 -0.3587
33052SOL    HW1 1694   7.429   9.772   3.017  0.4527 -0.5733  1.8762
33052SOL    HW2 1695   7.442   9.635   2.953 -1.2936  0.0998  0.0289
33053SOL     OW 1696   8.862   8.395   5.320  0.3472  0.5314  0.8794
33053SOL    HW1 1697   8.793   8.447   5.278  1.1808  2.5196  1.8856
33053SOL    HW2 1698   8.923   8.374   5.249 -0.6184 -0.1253  0.2369
33054SOL     OW 1699   5.109   9.189   4.042  0.2164 -0.1540 -0.1497
33054SOL    HW1 1700   5.075   9.157   3.959 -1.5947 -0.0099  0.5108
33054SOL    HW2 1701   5.035   9.182   4.103  1.2177  0.6686  1.2037
33055SOL     OW 1702   0.715   0.656   6.116 -0.4938  0.0679 -0.1225
33055SOL    HW1 1703   0.644   0.665   6.052 -0.6207  0.4516  0.0681
33055SOL    HW2 1704   0.719   0.741   6.159  1.3380  0.6893 -1.4308
33056SOL     OW 1705   1.309   0.660   6.904  0.3305 -0.0933  0.2764
33056SOL    HW1 1706   1.219   0.693   6.915  0.4590 -0.3644  2.3667
33056SOL    HW2 1707   1.301   0.565   6.913  0.9082 -0.0650  1.1461
33057SOL     OW 1708   1.414   0.198   2.740  0.0554  0.4322  0.2083
33057SOL    HW1 1709   1.324   0.177   2.714  1.0880 -1.5917 -1.9908
33057SOL    HW2 1710   1.411   0.206   2.835 -2.4784  0.5303  0.1437
33058SOL     OW 1711   2.580   0.168   7.266 -0.2171  0.4795  0.2322
33058SOL    HW1 1712   2.523   0.245   7.269 -0.9445 -0.0591  0.3945
33058SOL    HW2 1713   2.667   0.203   7.246 -0.7311  1.2412 -0.7190
33059SOL     OW 1714   2.352   3.037   9.632  0.3118  0.2480  0.3916
33059SOL    HW1 1715   2.297   3.115   9.627  1.2288  0.8538 -0.3855
33059SOL    HW2 1716   2.441   3.071   9.646  0.4344 -0.7352  2.1651
33060SOL     OW 1717   2.768   5.023   7.915  0.6344  0.0908 -0.0896
33060SOL    HW1 1718   2.813   4.960   7.973  2.6660  2.1014  0.5905
33060SOL    HW2 1719   2.676   5.016   7.939  1.1332 -0.9704  1.5999
33061SOL     OW 1720   1.619   3.114   8.190 -0.1854 -0.9848  0.0549
33061SOL    HW1 1721   1.537   3.163   8.190 -0.1824 -0.9803  0.4348
33061SOL    HW2 1722   1.674   3.159   8.254  0.3578 -0.5762 -0.6826
33062SOL     OW 1723   8.387   2.437   0.400 -0.0782 -0.1790 -0.5073
33062SOL    HW1 1724   8.431   2.407   0.321  1.6898 -0.8466  0.6919
33062SOL    HW2 1725   8.371   2.357   0.450  1.8691  0.5059  1.3138
33063SOL     OW 1726   8.074   5.858   9.930  0.3146  0.1506  0.2258
33063SOL    HW1 1727   7.988   5.869   9.971 -0.1359  1.1701 -0.9277
33063SOL    HW2 1728   8.057   5.802   9.854  0.3457  1.7097 -0.9519
33064SOL     OW 1729   4.122   6.104   8.057  0.3314 -0.2521 -0.6906
33064SOL    HW1 1730   4.167   6.037   8.109 -0.1074 -1.9306 -2.4222
33064SOL    HW2 1731   4.054   6.056   8.010  0.1587  1.3709 -2.1439
33065SOL     OW 1732   6.696   5.028   8.153  0.3757  0.0134 -0.0394
33065SOL    HW1 1733   6.719   5.023   8.061  1.8058 -0.1659  0.3085
33065SOL    HW2 1734   6.736   4.949   8.192 -0.5698 -0.1379  0.6529
33066SOL     OW 1735   8.435   8.741   3.265  0.0482 -0.6446  0.1138
33066SOL    HW1 1736   8.503   8.701   3.211  0.6387 -0.0319  0.3969
33066SOL    HW2 1737   8.466   8.729   3.355 -0.0259 -0.0188  0.2234
33067SOL     OW 1738   2.982   0.134   7.338 -0.4732  0.0296  0.0552
33067SOL    HW1 1739   3.019   0.056   7.297  1.1234  0.3589  0.8078
33067SOL    HW2 1740   2.949   0.186   7.265  1.5676  0.2211 -0.7587
33068SOL     OW 1741   5.061   7.250   2.381 -0.3981  0.1262  0.4562
33068SOL    HW1 1742   5.070   7.288   2.294  0.7795 -0.7495  0.1866
33068SOL    HW2 1743   5.081   7.322   2.441 -1.4880  0.8045  0.0188
33069SOL     OW 1744   9.487   9.482   2.131  0.5073 -0.4086  0.2082
33069SOL    HW1 1745   9.458   9.392   2.113  0.2707 -0.7203  2.1156
33069SOL    HW2 1746   9.415   9.521   2.179  0.3145  1.0490 -1.2201
33070SOL     OW 1747   9.003   2.856   3.277  0.6702  0.2635  0.4442
33070SOL    HW1 1748   8.951   2.803   3.217  0.6036  0.9261 -0.0991
33070SOL    HW2 1749   9.087   2.867   3.234  0.4513  1.1597  0.2417
33071SOL     OW 1750   6.722   8.472   5.377 -0.0341  0.3753 -0.4655
33071SOL    HW1 1751   6.663   8.542   5.406 -2.0846 -1.2992 -0.4910
33071SOL    HW2 1752   6.668   8.417   5.321  1.4211 -1.4674 -0.0941
33072SOL     OW 1753   9.327   0.415   1.132  0.4655 -0.0276  0.2729
33072SOL    HW1 1754   9.315   0.323   1.157  0.2872 -0.3609 -1.0227
33072SOL    HW2 1755   9.257   0.433   1.069 -0.5602  1.5011  1.7908
33073SOL     OW 1756   2.367   1.641   0.138  0.4225  0.5807 -0.1069
33073SOL    HW1 1757   2.385   1.603   0.224  0.1672 -0.9082 -0.6869
33073SOL    HW2 1758   2.443   1.619   0.085 -0.0973  0.1513 -0.6835
33074SOL     OW 1759  10.058   3.075   8.789  0.0468  0.4648 -0.7804
33074SOL    HW1 1760  10.084   3.139   8.723 -0.5812  0.4017 -1.0971
33074SOL    HW2 1761  10.098   2.993   8.760  1.8186  0.9410  0.2473
33075SOL     OW 1762   2.981   6.066   4.569  0.2320 -0.1723 -0.0044
33075SOL    HW1 1763   2.932   6.146   4.585  1.7474  0.7933 -0.0219
33075SOL    HW2 1764   2.929   5.997   4.609 -2.7667  0.3259 -2.8538
33076SOL     OW 1765   7.330   8.495   5.337  1.1395  0.6373  0.1432
33076SOL    HW1 1766   7.366   8.409   5.357 -1.5242  0.1791  3.2984
33076SOL    HW2 1767   7.249   8.477   5.289  0.9583  1.3952  0.1556
33077SOL     OW 1768   9.876   9.016   6.805 -0.0445  0.5804 -0.1439
33077SOL    HW1 1769   9.807   9.082   6.808 -0.0559  0.6107 -0.8732
33077SOL    HW2 1770   9.830   8.933   6.816 -0.1095  0.6538  0.1287
33078SOL     OW 1771   0.106  10.136   8.740  0.4171  0.3310 -0.6985
33078SOL    HW1 1772   0.105  10.218   8.692  3.8083  0.0797 -1.3239
33078SOL    HW2 1773   0.135  10.159   8.828 -0.5105  0.0553 -0.3114
33079SOL     OW 1774   7.294   1.424   9.418 -0.4090  0.0925  0.0298
33079SOL    HW1 1775   7.311   1.519   9.416 -1.1673  0.2782  1.9522
33079SOL    HW2 1776   7.381   1.385   9.408  0.0276  0.9935  0.2046
33080SOL     OW 1777   2.892   0.919   0.577  0.6190  0.0715  0.0671
33080SOL    HW1 1778   2.947   0.888   0.650 -1.7744 -1.4973  1.2589
33080SOL    HW2 1779   2.808   0.940   0.618 -0.5721 -0.2431 -2.1699
33081SOL     OW 1780   4.597   6.391   8.589 -0.2033 -0.0819  0.0276
33081SOL    HW1 1781   4.600   6.484   8.565 -2.3673 -0.6499 -2.7686
33081SOL    HW2 1782   4.680   6.356   8.557  0.5986  0.8791  1.0343
33082SOL     OW 1783   1.676   0.904   6.559 -0.0083  0.2961 -0.3720
33082SOL    HW1 1784   1.671   0.946   6.645  1.9640 -1.9216  0.8836
33082SOL    HW2 1785   1.616   0.830   6.564 -0.2586  0.4410 -1.0934
33083SOL     OW 1786   1.219   5.099   3.889  0.5109  0.4321  0.7008
33083SOL    HW1 1787   1.239   5.038   3.818 -0.4737 -0.6599  1.3319
33083SOL    HW2 1788   1.287   5.082   3.954  0.7577  0.6382  0.4975
33084SOL     OW 1789   8.646   3.615   7.352 -0.2828  0.2086 -0.3449
33084SOL    HW1 1790   8.724   3.668   7.364  0.8863 -1.7090  0.7788
33084SOL    HW2 1791   8.574   3.672   7.379  0.9120  1.2892  0.6483
33085SOL     OW 1792   7.943   3.706   6.306  0.4251  0.6342  0.1816
33085SOL    HW1 1793   7.900   3.726   6.223 -0.6345  0.3546  0.6508
33085SOL    HW2 1794   7.953   3.611   6.307 -0.0837  0.5807  0.6147
33086SOL     OW 1795   4.717   8.719   9.063 -0.1457  0.6597 -0.0851
33086SOL    HW1 1796   4.773   8.778   9.013 -0.8524  2.0797  0.7616
33086SOL    HW2 1797   4.708   8.761   9.148 -0.4526 -0.8116  0.6303
33087SOL     OW 1798   8.944   0.611   6.853  0.6573  0.4509  0.1557
33087SOL    HW1 1799   9.033   0.606   6.819  0.7496 -0.9981  0.5757
33087SOL    HW2 1800   8.898   0.670   6.793  2.2413  2.3002  0.7104
33088SOL     OW 1801   4.520   2.559   0.547  0.1344  0.4156 -0.0062
33088SOL    HW1 1802   4.573   2.486   0.513  0.2252 -0.0697  1.1586
33088SOL    HW2 1803   4.569   2.637   0.524 -0.3856  0.1674 -2.0334
33089SOL     OW 1804   6.054   4.648   4.505 -0.8804  0.9569 -0.0198
33089SOL    HW1 1805   5.998   4.680   4.434 -0.1420  2.2313 -0.0471
33089SOL    HW2 1806   6.116   4.590   4.461 -1.3906  0.5351 -0.1828
33090SOL     OW 1807   1.445   5.035   7.165  0.2293  0.2284  0.0676
33090SOL    HW1 1808   1.411   4.948   7.188  0.2320 -0.1765 -1.3797
33090SOL    HW2 1809   1.516   5.051   7.228  0.6866 -1.1268 -0.0869
33091SOL     OW 1810   7.206   7.183  10.124  0.0227  0.5378 -0.1670
33091SOL    HW1 1811   7.184   7.101  10.080  0.1654  0.0156  0.7129
33091SOL    HW2 1812   7.170   7.173  10.212  0.4555  1.2221  0.0918
33092SOL     OW 1813   5.622   9.908   0.868 -0.1800  0.0758 -0.7346
33092SOL    HW1 1814   5.536   9.912   0.824 -1.4947 -0.4486  1.7240
33092SOL    HW2 1815   5.629   9.991   0.914  0.5501  0.0220 -0.7513
33093SOL     OW 1816   6.298   7.645   8.479  0.2885 -0.4340 -0.2644
33093SOL    HW1 1817   6.269   7.570   8.530  0.8509  0.2566  1.1009
33093SOL    HW2 1818   6.256   7.634   8.393 -0.1039 -1.9722  0.1143
33094SOL     OW 1819   9.636   4.010   2.929  0.0689 -0.0444  0.7355
33094SOL    HW1 1820   9.676   3.983   3.012 -0.6882 -0.8613  0.8444
33094SOL    HW2 1821   9.698   4.072   2.892  1.1380 -0.8047  1.2187
33095SOL     OW 1822   7.347   5.157   7.103  0.3202  0.0981  0.0912
33095SOL    HW1 1823   7.431   5.114   7.091 -0.0267 -0.5379 -0.0980
33095SOL    HW2 1824   7.295   5.096   7.156 -1.1082 -0.9921 -2.4360
33096SOL     OW 1825   6.309   0.756   4.020  0.7221  0.1954  0.1156
33096SOL    HW1 1826   6.334   0.665   4.028 -0.4227 -0.2060 -0.6505
33096SOL    HW2 1827   6.374   0.804   4.070  2.4817 -0.8663 -1.1142
33097SOL     OW 1828   5.930   6.176   5.108 -0.2028  0.0046 -0.0116
33097SOL    HW1 1829   5.992   6.107   5.131 -0.1709  0.0423  0.0137
33097SOL    HW2 1830   5.953   6.250   5.164 -2.0080 -0.8677  1.9803
33098SOL     OW 1831   7.813   1.447   6.913 -0.6057  0.5039  0.3361
33098SOL    HW1 1832   7.858   1.485   6.988 -0.1639  0.2643  0.1965
33098SOL    HW2 1833   7.722   1.438   6.941 -0.2283 -0.6222  1.2541
33099SOL     OW 1834   3.398   6.196   0.862 -0.3472  0.3560 -0.0075
33099SOL    HW1 1835   3.453   6.236   0.795 -0.2569 -0.7151 -0.5875
33099SOL    HW2 1836   3.310   6.198   0.825 -0.5127  0.9790  0.4130
33100SOL     OW 1837   9.619   2.815   8.480  0.0551 -0.1131  0.1218
33100SOL    HW1 1838   9.705   2.832   8.517 -0.4964 -0.7464  1.7426
33100SOL    HW2 1839   9.635   2.754   8.408  1.0615  0.5597 -0.2319
33101SOL     OW 1840   1.113   5.029   8.576  1.0260 -0.2860  0.1703
33101SOL    HW1 1841   1.195   4.981   8.588  0.3838 -0.9481  2.0444
33101SOL    HW2 1842   1.045   4.962   8.585  0.2505  0.3495 -0.8622
33102SOL     OW 1843   4.714   3.747   3.156 -0.1310  0.1175 -0.2755
33102SOL    HW1 1844   4.767   3.731   3.078 -0.7098  1.6237 -0.9998
33102SOL    HW2 1845   4.742   3.833   3.187 -1.1949  0.3314  0.1193
33103SOL     OW 1846   0.997   3.271   8.589  0.5032  0.1187  0.2962
33103SOL    HW1 1847   1.008   3.339   8.523  0.3605 -0.8549 -0.7420
33103SOL    HW2 1848   0.937   3.310   8.653 -0.0554  0.7556 -0.5963
33104SOL     OW 1849   1.811   0.643   5.202  0.5163  0.2910  0.6774
33104SOL    HW1 1850   1.864   0.610   5.130  0.2819 -0.4099  0.8212
33104SOL    HW2 1851   1.736   0.583   5.207  0.6632  0.1688  1.6743
33105SOL     OW 1852   0.462   4.903   0.192 -0.5979  0.2764  0.0911
33105SOL    HW1 1853   0.442   4.883   0.101 -2.9540  0.8303  0.4492
33105SOL    HW2 1854   0.500   4.991   0.189 -0.2246  0.1059 -0.3759
33106SOL     OW 1855   5.005   2.878   2.377 -0.1608  0.0986 -0.2395
33106SOL    HW1 1856   4.957   2.795   2.384 -0.5124  0.3131 -0.0430
33106SOL    HW2 1857   5.091   2.859   2.416 -1.4884  0.7825  3.2435
33107SOL     OW 1858   6.831   8.853   8.444  0.1081 -0.0349 -0.0560
33107SOL    HW1 1859   6.909   8.849   8.498 -0.4329 -2.4152  0.6128
33107SOL    HW2 1860   6.779   8.925   8.480  1.2381  0.5074  0.4992
33108SOL     OW 1861   0.771   9.967   7.610 -0.7570 -0.7069  0.0876
33108SOL    HW1 1862   0.805  10.033   7.550  0.3060 -0.2043  1.2156
33108SOL    HW2 1863   0.766  10.012   7.694  0.2554 -2.1535  0.9350
33109SOL     OW 1864   1.816   2.071   1.380  0.1965  0.1225 -0.0989
33109SOL    HW1 1865   1.726   2.048   1.359  0.9159 -1.7987 -1.2280
33109SOL    HW2 1866   1.821   2.062   1.475 -0.7514  0.0062 -0.0578
33110SOL     OW 1867   5.592   9.284   3.616 -0.1493 -0.1714 -0.2002
33110SOL    HW1 1868   5.567   9.373   3.591 -1.5707  0.0271  1.8582
33110SOL    HW2 1869   5.683   9.292   3.644 -0.6378  0.8625  1.1248
33111SOL     OW 1870   2.787   6.618   3.877  0.3793 -0.2964 -0.4930
33111SOL    HW1 1871   2.808   6.567   3.955 -0.6437  0.4142  0.2626
33111SOL    HW2 1872   2.845   6.694   3.881 -1.4812  1.0915  0.9984
33112SOL     OW 1873   9.970   8.142   0.508 -0.7171 -0.2099 -0.1199
33112SOL    HW1 1874   9.899   8.154   0.571 -0.4849  2.6914 -0.3234
33112SOL    HW2 1875   9.936   8.079   0.445 -2.2357 -0.5920  1.0529
33113SOL     OW 1876  10.012   4.427   7.419  0.1562  0.1176 -0.0607
33113SOL    HW1 1877  10.061   4.376   7.484  0.1966 -0.1075 -0.2664
33113SOL    HW2 1878   9.927   4.384   7.413  0.9464 -1.2535 -1.8263
33114SOL     OW 1879   4.239   9.094   3.860  0.2335 -0.2785 -0.3080
33114SOL    HW1 1880   4.219   9.117   3.769 -0.2167 -0.5982 -0.2919
33114SOL    HW2 1881   4.166   9.129   3.911 -0.4133 -1.6322 -0.2732
33115SOL     OW 1882   7.213   1.817   1.346  0.4292 -0.1908 -0.2924
33115SOL    HW1 1883   7.283   1.881   1.354 -0.4502  0.6407  0.9855
33115SOL    HW2 1884   7.134   1.869   1.331 -0.2208 -0.9797  0.2944
33116SOL     OW 1885   9.711   1.920   9.395  0.2737  0.6230 -0.3168
33116SOL    HW1 1886   9.623   1.955   9.407 -0.1114 -0.9377  1.7139
33116SOL    HW2 1887   9.769   1.996   9.401 -0.8130  1.4183  0.1455
33117SOL     OW 1888   6.812   5.180   9.695  0.4697  0.2433  0.0130
33117SOL    HW1 1889   6.810   5.231   9.776  0.6519  1.3964 -0.6915
33117SOL    HW2 1890   6.725   5.142   9.687  0.4770  0.0601  0.7866
33118SOL     OW 1891   6.533   5.054   6.921  0.5037 -0.4473  0.2276
33118SOL    HW1 1892   6.627   5.049   6.935  0.3503 -0.6319  1.2333
33118SOL    HW2 1893   6.514   5.148   6.919  1.0024 -0.3534 -2.1567
33119SOL     OW 1894   1.932   3.830   4.749  0.0145  0.5777 -0.1865
33119SOL    HW1 1895   1.958   3.793   4.834 -0.0008  0.3863 -0.2642
33119SOL    HW2 1896   1.979   3.777   4.685  1.8323  2.2001 -0.2294
33120SOL     OW 1897   7.472   4.358   2.045  0.0944  0.0381  0.1045
33120SOL    HW1 1898   7.472   4.282   1.986  0.0003 -0.1829  0.3911
33120SOL    HW2 1899   7.547   4.410   2.016  1.3744 -1.1735  1.2206
33121SOL     OW 1900   3.533   5.632   8.016 -0.7143  0.4615  0.1646
33121SOL    HW1 1901   3.517   5.727   8.023  0.3752  0.6280  0.5321
33121SOL    HW2 1902   3.539   5.602   8.106  0.5277  0.3342  0.0563
33122SOL     OW 1903   9.756   6.228   4.846 -0.1042 -0.0839  0.1517
33122SOL    HW1 1904   9.668   6.217   4.882 -0.9997  0.6014 -1.7681
33122SOL    HW2 1905   9.750   6.309   4.794  1.5804 -0.1886 -0.2127
33123SOL     OW 1906   1.197   4.413   9.951 -0.0053 -0.0891  0.2670
33123SOL    HW1 1907   1.218   4.498   9.991  1.5940 -0.1194 -0.4676
33123SOL    HW2 1908   1.118   4.384   9.996 -0.7163  1.9169  0.3425
33124SOL     OW 1909   6.219   2.854   6.118 -0.3926 -0.1489 -0.4920
33124SOL    HW1 1910   6.313   2.842   6.132 -0.6493  0.6846  2.1947
33124SOL    HW2 1911   6.210   2.946   6.092 -0.6905  0.5372  1.9176
33125SOL     OW 1912   1.729   7.079   4.422  0.5046  0.9526  0.2230
33125SOL    HW1 1913   1.668   7.142   4.385  1.5769  2.5571  1.1150
33125SOL    HW2 1914   1.707   7.075   4.515  0.2170 -0.2490  0.1038
33126SOL     OW 1915   9.983   1.630   1.200  0.1873  0.2248 -0.4291
33126SOL    HW1 1916  10.071   1.641   1.235  0.9582 -0.4255 -2.1483
33126SOL    HW2 1917   9.931   1.697   1.244  1.2457 -0.2148  1.5593
33127SOL     OW 1918   4.130  10.023   7.909  0.2426 -0.3940 -1.0866
33127SOL    HW1 1919   4.054  10.003   7.963  0.2634  3.0317  0.3135
33127SOL    HW2 1920   4.099  10.016   7.819 -0.6284 -2.9913 -0.6244
33128SOL     OW 1921   1.143   5.204   8.085  0.3755 -0.5183  0.1825
33128SOL    HW1 1922   1.152   5.179   8.177 -0.2270 -1.6494 -0.0496
33128SOL    HW2 1923   1.196   5.283   8.076  0.8344 -0.6747  1.3844
33129SOL     OW 1924   8.608   1.926   8.723  0.8650 -0.0367 -0.2300
33129SOL    HW1 1925   8.519   1.916   8.689  0.9648  1.1922 -0.9019
33129SOL    HW2 1926   8.654   1.974   8.654  1.4219  1.3760  1.1106
33130SOL     OW 1927   0.684   8.394   9.231  0.1749  0.9683  0.0508
33130SOL    HW1 1928   0.652   8.369   9.318 -0.3419  0.3380 -0.3192
33130SOL    HW2 1929   0.620   8.458   9.200 -0.9801 -0.6161 -0.8710
33131SOL     OW 1930   4.012   1.082   1.168  0.2475 -0.1174  0.3642
33131SOL    HW1 1931   3.968   1.165   1.149  0.6508 -0.0571 -0.3064
33131SOL    HW2 1932   4.086   1.079   1.108  1.4067 -0.0295  1.7476
33132SOL     OW 1933   9.872   2.662   8.769  0.5285  0.2428  0.3292
33132SOL    HW1 1934   9.960   2.645   8.803 -0.0702  0.3211  1.9173
33132SOL    HW2 1935   9.814   2.646   8.842 -0.9595 -1.5097 -1.1831
33133SOL     OW 1936   1.135   7.762   2.324  0.2302  0.3589 -0.1290
33133SOL    HW1 1937   1.082   7.828   2.279 -0.9029 -1.2012 -1.1407
33133SOL    HW2 1938   1.223   7.799   2.325 -0.1281  1.3253 -1.8754
33134SOL     OW 1939   1.196   9.106   4.743 -0.0642 -0.0654  0.2072
33134SOL    HW1 1940   1.199   9.202   4.740  1.2482 -0.0879  0.8466
33134SOL    HW2 1941   1.200   9.080   4.651  0.4144  0.4691  0.0716
33135SOL     OW 1942   1.662   1.811   2.891 -0.1670  0.1823 -0.0133
33135SOL    HW1 1943   1.696   1.865   2.820 -1.1962  0.3730 -0.3757
33135SOL    HW2 1944   1.734   1.805   2.954  0.1020  1.5953 -0.1779
33136SOL     OW 1945   8.713   7.138   0.918  0.1193  0.1045  0.4623
33136SOL    HW1 1946   8.619   7.135   0.903  0.2877  1.7285 -1.0751
33136SOL    HW2 1947   8.725   7.208   0.982  0.2996 -0.0362  0.5852
33137SOL     OW 1948  10.142   7.177   5.819 -0.0067 -0.1371  0.6796
33137SOL    HW1 1949  10.060   7.170   5.771  0.0964 -0.6295  0.5670
33137SOL    HW2 1950  10.202   7.218   5.757  0.2645 -1.2209  0.1970
33138SOL     OW 1951   7.663   1.362   0.184  0.3906  0.0712  0.1213
33138SOL    HW1 1952   7.712   1.331   0.260  1.2695  1.7562  0.2624
33138SOL    HW2 1953   7.605   1.430   0.219  1.3506  1.4021 -0.8165
33139SOL     OW 1954   2.681   0.884   1.620 -0.2175 -0.0728  0.5326
33139SOL    HW1 1955   2.756   0.937   1.594 -0.2352  0.2392  1.1123
33139SOL    HW2 1956   2.678   0.891   1.716  0.6801 -2.3118  0.7719
33140SOL     OW 1957   4.930   3.408   7.051  0.0431 -0.9260  0.1404
33140SOL    HW1 1958   4.928   3.434   7.143  1.8960 -2.6155  0.6786
33140SOL    HW2 1959   4.898   3.318   7.051 -1.6995 -0.3334 -1.1231
33141SOL     OW 1960   6.106   5.743   1.236  0.5076 -0.2012  0.1003
33141SOL    HW1 1961   6.142   5.831   1.235  1.4038 -0.5592  0.6740
33141SOL    HW2 1962   6.174   5.689   1.275 -0.5758 -0.9246  1.0407
33142SOL     OW 1963   2.112   9.767   5.208 -0.7115  0.3419 -0.0331
33142SOL    HW1 1964   2.040   9.726   5.255  0.3502  0.0397  1.3577
33142SOL    HW2 1965   2.104   9.860   5.230  0.1898  0.1153  1.3441
33143SOL     OW 1966   1.151   6.501   2.762 -0.7945  0.5931 -0.0109
33143SOL    HW1 1967   1.159   6.490   2.856  2.5928 -2.1688 -0.5276
33143SOL    HW2 1968   1.065   6.466   2.740 -0.0139 -2.4897  1.6016
33144SOL     OW 1969   8.019   2.302   5.031  0.0587 -0.1880 -0.0987
33144SOL    HW1 1970   8.103   2.336   5.063 -0.8581  0.7778  1.3340
33144SOL    HW2 1971   7.968   2.380   5.009 -0.6782 -0.7521 -0.4079
33145SOL     OW 1972   9.399   9.868   8.693  0.3729  0.1446  0.3351
33145SOL    HW1 1973   9.426   9.835   8.779  0.2026 -0.7766  0.0348
33145SOL    HW2 1974   9.306   9.849   8.688  0.7067 -1.3046 -0.7280
33146SOL     OW 1975   4.779   8.698   6.752 -0.0613  0.0739 -0.0068
33146SOL    HW1 1976   4.820   8.612   6.739  1.0273  0.6594 -0.5771
33146SOL    HW2 1977   4.816   8.730   6.834  0.7261  0.6491 -0.5764
33147SOL     OW 1978   9.790   3.888   6.108  0.4785  0.1460 -0.1586
33147SOL    HW1 1979   9.886   3.883   6.105  0.5045  1.0658 -1.1683
33147SOL    HW2 1980   9.766   3.839   6.186  1.8251  0.4897  0.4899
33148SOL     OW 1981   5.639   9.336   3.292  0.1349  1.0467 -0.1525
33148SOL    HW1 1982   5.697   9.283   3.347  0.0563  1.2098  0.0831
33148SOL    HW2 1983   5.613   9.409   3.347 -1.2010  0.3798  0.1181
33149SOL     OW 1984   7.442   4.789   4.999  0.1464  0.0482  0.1568
33149SOL    HW1 1985   7.476   4.736   4.927  0.1109 -0.7195  0.6983
33149SOL    HW2 1986   7.375   4.844   4.959  0.3970 -0.0961 -0.4687
33150SOL     OW 1987   6.938   0.527   7.164  0.3892  0.0809 -0.1538
33150SOL    HW1 1988   7.014   0.584   7.152 -0.8114  1.3926 -1.8040
33150SOL    HW2 1989   6.863   0.585   7.153 -0.8568 -1.4815 -0.0419
33151SOL     OW 1990   0.897   4.231   5.372  0.0334 -0.4244 -0.1671
33151SOL    HW1 1991   0.935   4.210   5.287  2.2335 -0.6622  0.8375
33151SOL    HW2 1992   0.872   4.147   5.409 -0.7524 -0.3382 -0.5025
33152SOL     OW 1993   2.899   7.017   8.081 -0.0288 -0.0436 -0.5396
33152SOL    HW1 1994   2.900   6.954   8.009  0.0342 -0.1871 -0.4144
33152SOL    HW2 1995   2.924   7.100   8.041 -0.4213 -0.0352 -0.7645
33153SOL     OW 1996   2.289   4.664   6.263 -0.1391 -0.2824 -0.2989
33153SOL    HW1 1997   2.301   4.734   6.199 -2.0406  0.2361 -0.1216
33153SOL    HW2 1998   2.334   4.696   6.342 -0.8785  0.6823 -0.2610
33154SOL     OW 1999   5.498   7.881   8.991 -0.3555  0.1372 -0.3517
33154SOL    HW1 2000   5.457   7.804   9.030  0.9235  0.0159  0.7798
33154SOL    HW2 2001   5.586   7.884   9.029  0.9485  0.0183 -3.2029
33155SOL     OW 2002   6.245   8.316   9.893  0.2395 -0.0830  1.0179
33155SOL    HW1 2003   6.222   8.381   9.827  0.3491 -0.8162  0.2492
33155SOL    HW2 2004   6.171   8.317   9.954 -1.2686 -1.4924 -0.7289
33156SOL     OW 2005   8.617   1.529   8.692  0.3120  0.2513  0.1860
33156SOL    HW1 2006   8.699   1.576   8.702  1.0932 -1.0009 -0.2030
33156SOL    HW2 2007   8.585   1.554   8.605  0.2171  0.8396  0.3943
33157SOL     OW 2008   8.305   3.625   3.442 -0.4409 -0.1838  0.2582
33157SOL    HW1 2009   8.366   3.669   3.382 -1.7116  1.9734  0.4998
33157SOL    HW2 2010   8.352   3.546   3.468  0.9604 -0.1816 -2.0170
33158SOL     OW 2011   9.542   0.521   1.800  0.6099 -0.4753 -0.3805
33158SOL    HW1 2012   9.613   0.483   1.852  0.6569 -0.5586 -0.5045
33158SOL    HW2 2013   9.497   0.580   1.860 -0.1545 -1.5785  0.1421
33159SOL     OW 2014   0.748   7.998   1.620  0.5633  0.5207  0.2239
33159SOL    HW1 2015   0.699   8.080   1.627 -0.1751 -0.0144  1.4031
33159SOL    HW2 2016   0.704   7.951   1.548 -0.4870  0.1639  1.0857
33160SOL     OW 2017   5.301   3.429   0.090 -0.1820  0.2837 -0.1926
33160SOL    HW1 2018   5.298   3.333   0.086 -1.2947  0.3093 -0.1528
33160SOL    HW2 2019   5.338   3.448   0.176 -0.4585 -0.1160  0.0174
33161SOL     OW 2020   2.054   5.112   3.182 -0.0409 -0.0868 -0.3481
33161SOL    HW1 2021   1.975   5.153   3.146  1.6495  2.9082 -0.8367
33161SOL    HW2 2022   2.114   5.106   3.108  1.1902  0.2488  0.6120
33162SOL     OW 2023   8.163   2.645   6.218 -0.5803 -0.1532 -0.2071
33162SOL    HW1 2024   8.172   2.589   6.141  0.0881 -0.3286 -0.0065
33162SOL    HW2 2025   8.092   2.604   6.268  0.4888 -1.3420  0.3710
33163SOL     OW 2026   7.066   8.248   2.509  0.3631  0.1264 -0.1333
33163SOL    HW1 2027   7.104   8.177   2.458  0.9889 -0.2454  0.8495
33163SOL    HW2 2028   7.074   8.220   2.600  0.3729  1.3281  0.2493
33164SOL     OW 2029   2.463   7.354   2.308 -0.3051 -0.2207  0.4403
33164SOL    HW1 2030   2.521   7.285   2.338 -0.4899 -0.4473  0.2836
33164SOL    HW2 2031   2.424   7.318   2.228 -1.6836 -0.6189  1.2733
33165SOL     OW 2032   6.742   8.048   9.718  0.1685  0.6316 -0.3093
33165SOL    HW1 2033   6.671   8.056   9.782 -0.2843 -0.3309 -0.6834
33165SOL    HW2 2034   6.785   7.966   9.740  0.6938  0.8368 -0.5653
33166SOL     OW 2035   8.390   1.104   7.594  0.2265  0.3154 -0.3572
33166SOL    HW1 2036   8.298   1.112   7.621  0.4640  1.0907  0.2605
33166SOL    HW2 2037   8.423   1.029   7.643  0.4561  1.2671  0.9787
33167SOL     OW 2038   6.084   3.357   2.533  0.5577 -0.2897  0.5934
33167SOL    HW1 2039   6.098   3.358   2.438 -0.6340  1.3398  0.4248
33167SOL    HW2 2040   6.109   3.268   2.559  2.2198 -0.3230 -1.0303
33168SOL     OW 2041  10.147   3.878   4.462 -0.2366  0.2218 -0.1757
33168SOL    HW1 2042  10.129   3.839   4.547 -1.1255  1.5142  0.2476
33168SOL    HW2 2043  10.232   3.842   4.436 -0.3869 -0.8750  0.8410
33169SOL     OW 2044   1.619   8.208   5.146 -0.3299  0.1087 -0.2903
33169SOL    HW1 2045   1.548   8.146   5.164 -0.7693  1.2246  1.9328
33169SOL    HW2 2046   1.592   8.289   5.188  2.0006  0.7249  0.0791
33170SOL     OW 2047   8.578   0.261   0.442 -0.3258  0.2221 -0.2325
33170SOL    HW1 2048   8.492   0.225   0.465  0.4782 -1.5410  0.1069
33170SOL    HW2 2049   8.592   0.332   0.505 -1.3387  0.2263 -0.0112
33171SOL     OW 2050   7.037   4.565   9.239  0.2033  0.0839 -0.1253
33171SOL    HW1 2051   6.975   4.492   9.241 -0.9156  1.0526  1.0928
33171SOL    HW2 2052   6.985   4.640   9.211  0.6234  1.0779  1.7014
33172SOL     OW 2053   9.591   1.066   1.166 -0.2916  0.5898 -0.4955
33172SOL    HW1 2054   9.529   1.076   1.094 -0.7754 -0.7982 -0.2885
33172SOL    HW2 2055   9.674   1.101   1.131 -0.6536  0.4281 -1.5345
33173SOL     OW 2056   9.489   7.357   2.023  0.1428  0.4382  0.1067
33173SOL    HW1 2057   9.549   7.389   2.090 -2.5230 -0.5809  3.1105
33173SOL    HW2 2058   9.455   7.437   1.982  0.7512  1.1271  0.9288
33174SOL     OW 2059   4.634   0.937   1.215  0.0638 -0.6572 -0.0102
33174SOL    HW1 2060   4.652   0.978   1.130  0.7651  0.5862  0.7281
33174SOL    HW2 2061   4.539   0.937   1.222  0.0237 -0.2205 -0.5366
33175SOL     OW 2062   0.564   8.202   1.607  0.4383  0.0762  0.1015
33175SOL    HW1 2063   0.503   8.215   1.680  0.6733 -0.7289  0.4592
33175SOL    HW2 2064   0.562   8.284   1.558  0.3411  0.6595  1.0683
33176SOL     OW 2065   7.199   2.320   5.350  0.4415  0.7786 -0.5255
33176SOL    HW1 2066   7.283   2.343   5.390  0.4072  1.0476 -0.6087
33176SOL    HW2 2067   7.220   2.299   5.259  0.6256 -0.5243 -0.1970
33177SOL     OW 2068   7.570   5.798   9.964  0.1988  0.3748  0.5379
33177SOL    HW1 2069   7.504   5.776  10.030  1.3769  0.2880  1.7200
33177SOL    HW2 2070   7.527   5.861   9.907 -1.8442 -1.7755 -0.3975
33178SOL     OW 2071   0.701   8.627   4.232  0.2883 -0.7172 -0.4695
33178SOL    HW1 2072   0.621   8.575   4.241 -0.4588  0.7109  1.3192
33178SOL    HW2 2073   0.691   8.671   4.148 -0.4249 -1.1920 -0.6394
33179SOL     OW 2074   6.240   6.778   1.681  0.2065  0.0762 -0.0333
33179SOL    HW1 2075   6.145   6.777   1.695  0.4069 -1.4762  1.4903
33179SOL    HW2 2076   6.265   6.869   1.692 -0.9569  0.3076  0.8567
33180SOL     OW 2077   6.176   4.109   1.771 -0.2696 -0.3619  0.2058
33180SOL    HW1 2078   6.263   4.148   1.770 -0.0332 -0.8641  0.6399
33180SOL    HW2 2079   6.187   4.027   1.819 -1.0982 -0.1484  0.7816
33181SOL     OW 2080   2.364   5.040   2.126  0.2701  0.8365 -0.7266
33181SOL    HW1 2081   2.414   4.998   2.057 -0.4931 -1.8664  0.3101
33181SOL    HW2 2082   2.420   5.034   2.204 -0.7135 -0.2254 -0.0788
33182SOL     OW 2083   5.299   3.848   6.518 -0.4598 -0.1088 -0.0832
33182SOL    HW1 2084   5.206   3.840   6.495 -0.5921 -0.4584  0.5464
33182SOL    HW2 2085   5.324   3.935   6.488 -0.1845 -1.1480 -3.0318
33183SOL     OW 2086   4.382   1.031   3.634 -0.4671  0.1718  0.0806
33183SOL    HW1 2087   4.451   1.089   3.665 -1.6554  2.3307 -1.2216
33183SOL    HW2 2088   4.308   1.048   3.693 -1.0208  0.4396 -0.6928
33184SOL     OW 2089   6.007   0.498   1.919 -0.1374  0.4210  0.6232
33184SOL    HW1 2090   5.951   0.520   1.846  1.2274  0.7300 -0.3480
33184SOL    HW2 2091   6.052   0.580   1.942  0.8441 -0.0917  0.5716
33185SOL     OW 2092   7.276   5.314   4.978  0.2333 -0.4464  0.0960
33185SOL    HW1 2093   7.362   5.355   4.973  0.3072 -0.7253 -1.0587
33185SOL    HW2 2094   7.215   5.383   4.951  0.1687 -0.4990  0.1044
33186SOL     OW 2095   0.973   0.307   7.040  0.2544  0.3935  0.8601
33186SOL    HW1 2096   0.885   0.343   7.039  1.1403  2.6135 -0.9597
33186SOL    HW2 2097   0.992   0.285   6.949  1.7138  0.3044  1.1604
33187SOL     OW 2098   1.283   1.274   7.234 -0.0832  0.0480 -0.2497
33187SOL    HW1 2099   1.367   1.306   7.267 -1.0754  0.8123  1.6107
33187SOL    HW2 2100   1.300   1.254   7.141  2.0873  0.3479  0.0468
33188SOL     OW 2101   6.058   6.367   6.429 -0.2983 -0.1959  0.0721
33188SOL    HW1 2102   6.049   6.272   6.424  0.7127 -0.2255 -1.5716
33188SOL    HW2 2103   6.145   6.385   6.393 -1.3045  1.5322 -1.5875
33189SOL     OW 2104   1.072   9.999   5.447 -0.5692 -0.1248  0.4597
33189SOL    HW1 2105   1.062  10.037   5.534 -1.2661 -0.8154  0.6899
33189SOL    HW2 2106   0.983   9.996   5.412 -0.3253 -0.0844 -0.1876
33190SOL     OW 2107   9.833   0.130   9.238  0.2590 -0.4321 -0.8278
33190SOL    HW1 2108   9.928   0.143   9.238  0.2635 -0.2746 -2.3768
33190SOL    HW2 2109   9.799   0.202   9.291  1.0152 -0.5461 -0.1785
33191SOL     OW 2110   9.917   5.148   5.738 -0.0831 -0.1934 -0.4989
33191SOL    HW1 2111   9.892   5.223   5.792  1.8077 -0.9850  1.5422
33191SOL    HW2 2112   9.935   5.186   5.652 -1.0035  1.4162 -0.0002
33192SOL     OW 2113   6.033   6.982   4.993 -0.2564  0.6337  0.4812
33192SOL    HW1 2114   6.003   6.902   4.949  0.5222  0.6817 -0.1505
33192SOL    HW2 2115   5.954   7.019   5.032 -1.1353  1.0444 -1.6017
33193SOL     OW 2116  10.131   8.629   5.480 -0.5605 -0.4726  0.3452
33193SOL    HW1 2117  10.164   8.560   5.423 -1.3077 -0.1619 -0.4890
33193SOL    HW2 2118  10.051   8.593   5.518 -1.4504  0.2440 -0.7996
33194SOL     OW 2119   9.683   6.142   5.279  0.0822 -0.0958 -0.0933
33194SOL    HW1 2120   9.697   6.048   5.261 -1.7849 -0.4442  0.1588
33194SOL    HW2 2121   9.592   6.147   5.308  0.4405  1.6936  0.7492
33195SOL     OW 2122   2.205   1.037   5.138 -0.9253 -0.0391 -0.3394
33195SOL    HW1 2123   2.250   1.050   5.054 -0.8989 -1.8077 -0.6075
33195SOL    HW2 2124   2.203   1.125   5.177  1.4190  0.3392 -0.9809
33196SOL     OW 2125   2.765   7.688   0.205  0.0250  0.1133 -0.3200
33196SOL    HW1 2126   2.778   7.771   0.160 -1.0157  0.2212 -0.4443
33196SOL    HW2 2127   2.740   7.713   0.294  2.7573 -0.1026  0.5388
33197SOL     OW 2128   6.992   5.578   8.218 -0.5442 -0.2329  0.3346
33197SOL    HW1 2129   6.974   5.523   8.141  1.3457 -0.4407  0.0327
33197SOL    HW2 2130   7.075   5.620   8.198 -1.3086  1.7087  1.1701
33198SOL     OW 2131   5.465   8.775   0.941 -0.5001 -0.2812 -0.0672
33198SOL    HW1 2132   5.479   8.687   0.905 -0.5891 -0.8440  1.2466
33198SOL    HW2 2133   5.537   8.827   0.906 -1.5886 -0.3412 -2.5357
33199SOL     OW 2134   2.453   6.230   1.671  0.2306  0.5352 -0.0395
33199SOL    HW1 2135   2.403   6.166   1.620  1.4146  0.2933 -0.9173
33199SOL    HW2 2136   2.457   6.308   1.615  1.2877  0.3701 -0.2113
33200SOL     OW 2137   0.822   2.187   6.108  0.0119  0.5577 -0.2440
33200SOL    HW1 2138   0.900   2.214   6.061 -0.1627  1.6098  0.0588
33200SOL    HW2 2139   0.824   2.238   6.189  0.6925 -1.7157  1.2495
33201SOL     OW 2140   7.237  10.005   2.325 -0.4522  0.4448  0.0877
33201SOL    HW1 2141   7.228   9.944   2.251  0.2063  1.3365 -0.7434
33201SOL    HW2 2142   7.221  10.091   2.286  0.4848  0.9757  0.8782
33202SOL     OW 2143   3.991   7.243   0.984  0.1005  0.5767  0.3251
33202SOL    HW1 2144   3.974   7.173   0.922  1.4124  0.4147  0.1210
33202SOL    HW2 2145   3.957   7.211   1.067 -0.2299  0.1319  0.0233
33203SOL     OW 2146   1.384   4.037   3.641  0.1294 -0.2590  0.1343
33203SOL    HW1 2147   1.423   4.012   3.557  0.0585 -0.3157  0.1187
33203SOL    HW2 2148   1.458   4.039   3.701  0.1489 -0.4206  0.1162
33204SOL     OW 2149   4.311   1.263   6.344  0.2401  0.2433 -0.0579
33204SOL    HW1 2150   4.292   1.208   6.268  3.0454 -0.5834 -0.2091
33204SOL    HW2 2151   4.318   1.351   6.308  1.1744 -0.0880 -0.7051
33205SOL     OW 2152   4.969   5.212   6.492  0.3142  0.2299  0.4960
33205SOL    HW1 2153   5.039   5.271   6.464 -0.6375  0.7182 -0.9286
33205SOL    HW2 2154   4.989   5.192   6.583  2.3684  0.2666  0.0665
33206SOL     OW 2155   5.060   7.120   0.609 -0.1415 -0.6294  0.3026
33206SOL    HW1 2156   5.024   7.185   0.669  1.4014  2.4207 -1.9933
33206SOL    HW2 2157   5.002   7.122   0.533 -0.4019 -2.3522  0.4385
33207SOL     OW 2158  10.165   3.074   3.164  0.5165  0.0515 -0.0453
33207SOL    HW1 2159  10.148   3.156   3.210  3.1281 -0.1108  1.2964
33207SOL    HW2 2160  10.206   3.101   3.082  1.0290  0.1123  0.2294
33208SOL     OW 2161   0.258   2.724   0.563 -0.4759  0.5016 -0.2134
33208SOL    HW1 2162   0.292   2.650   0.512  0.6944 -0.2980  1.6772
33208SOL    HW2 2163   0.164   2.724   0.546 -0.4157 -1.1158 -0.6236
33209SOL     OW 2164   8.882   4.564   7.390  0.2285  0.2419 -0.7247
33209SOL    HW1 2165   8.976   4.577   7.376  0.2698  1.8106  0.8382
33209SOL    HW2 2166   8.874   4.547   7.484 -1.2691  2.4228 -0.4225
33210SOL     OW 2167   4.769   1.228   2.879  0.3513  0.0092 -0.5686
33210SOL    HW1 2168   4.776   1.169   2.804 -2.1576  0.9347 -1.5572
33210SOL    HW2 2169   4.857   1.265   2.888  0.5045  0.5335 -3.6170
33211SOL     OW 2170   9.837   5.348   3.714  0.4907  0.3501  0.0273
33211SOL    HW1 2171   9.760   5.294   3.697  2.2631 -2.1704 -0.3672
33211SOL    HW2 2172   9.901   5.287   3.750  1.7798  2.7105  1.8305
33212SOL     OW 2173   0.784   0.820   3.188 -0.5404 -0.3205  0.0221
33212SOL    HW1 2174   0.744   0.767   3.119  0.8150 -1.5043  0.1111
33212SOL    HW2 2175   0.831   0.757   3.243 -0.6773  0.7336  1.3920
33213SOL     OW 2176   0.459   0.412   2.654 -0.6065  0.6900 -0.5761
33213SOL    HW1 2177   0.400   0.486   2.642  1.3159  2.3620  0.0818
33213SOL    HW2 2178   0.532   0.447   2.705 -0.2727 -1.9771  0.8653
33214SOL     OW 2179   5.721   5.664   2.173 -0.2119  0.2069  0.2453
33214SOL    HW1 2180   5.648   5.603   2.186 -0.0154 -0.1962 -0.4946
33214SOL    HW2 2181   5.727   5.713   2.255  0.8258 -2.0741  1.5832
33215SOL     OW 2182   3.637   1.615   0.415 -0.3073 -0.1310  0.4106
33215SOL    HW1 2183   3.610   1.532   0.376  0.2626 -1.0606  1.9654
33215SOL    HW2 2184   3.727   1.600   0.443  0.0307  1.2387  0.1062
33216SOL     OW 2185   8.173   1.975   0.078  0.0080 -0.1114  0.2192
33216SOL    HW1 2186   8.099   2.034   0.087  0.2867  0.1405  0.9604
33216SOL    HW2 2187   8.244   2.018   0.127 -0.1904 -1.7243  1.9961
33217SOL     OW 2188   5.727   5.666   9.331 -0.1796 -0.0171 -0.0794
33217SOL    HW1 2189   5.790   5.738   9.329 -0.2100  0.0237  0.3716
33217SOL    HW2 2190   5.643   5.707   9.308 -0.9952  0.9304  4.1431
33218SOL     OW 2191   3.799   7.861   8.807  0.4829  0.0368 -0.3837
33218SOL    HW1 2192   3.811   7.954   8.787  1.9453  0.1318  0.8440
33218SOL    HW2 2193   3.707   7.853   8.833  0.3593  1.1442 -0.4871
33219SOL     OW 2194   8.695   1.476   2.156 -0.0995 -0.4720 -0.0481
33219SOL    HW1 2195   8.690   1.531   2.234 -1.0814 -0.8055  0.1388
33219SOL    HW2 2196   8.778   1.499   2.115 -0.3496  0.9071  0.1982
33220SOL     OW 2197   0.612   7.001   0.015 -0.8152  0.4584 -0.8117
33220SOL    HW1 2198   0.627   7.017   0.108 -1.7379 -0.1087 -0.5583
33220SOL    HW2 2199   0.555   6.924   0.013 -0.5000  0.2504 -1.8573
33221SOL     OW 2200   3.813   1.375   4.932 -0.1139 -0.4362 -1.0932
33221SOL    HW1 2201   3.823   1.461   4.894  1.5802 -0.0119  0.2594
33221SOL    HW2 2202   3.838   1.386   5.024 -1.3618 -2.0321 -0.5234
33222SOL     OW 2203   3.807   8.749   4.054  0.3098  0.1927 -0.3207
33222SOL    HW1 2204   3.805   8.814   4.124  0.7519  1.1311 -1.1624
33222SOL    HW2 2205   3.738   8.777   3.993  0.5558 -0.0689 -0.7260
33223SOL     OW 2206   7.030   8.348   3.780  0.0674 -0.3329 -0.4630
33223SOL    HW1 2207   7.037   8.433   3.737  0.5798 -0.4205 -0.5567
33223SOL    HW2 2208   6.938   8.340   3.803 -0.2618 -0.3698 -1.7287
33224SOL     OW 2209   8.418   8.142   4.595  0.2615 -0.2185  0.1705
33224SOL    HW1 2210   8.406   8.133   4.501  1.9616 -0.1338 -0.0702
33224SOL    HW2 2211   8.330   8.142   4.631 -0.4606  1.0659 -1.5487
33225SOL     OW 2212   9.726   9.748   0.613 -0.3380  0.9226 -0.0601
33225SOL    HW1 2213   9.648   9.733   0.665  0.3334 -1.2036  0.3568
33225SOL    HW2 2214   9.740   9.843   0.618 -2.0937  1.1377  0.9786
33226SOL     OW 2215   2.410   4.303   6.881  0.5306 -0.5897  0.4575
33226SOL    HW1 2216   2.456   4.352   6.813  2.3408 -0.9276  1.3855
33226SOL    HW2 2217   2.391   4.218   6.841  0.9198 -0.5215  0.1202
33227SOL     OW 2218   2.444   1.783   1.118  0.5770  0.1685  0.1330
33227SOL    HW1 2219   2.354   1.793   1.151  0.3840  2.1853 -0.9206
33227SOL    HW2 2220   2.441   1.704   1.064 -0.4601 -0.0215  0.4612
33228SOL     OW 2221   1.516   8.578   0.053 -0.3683  0.3135 -0.0474
33228SOL    HW1 2222   1.577   8.644   0.021  0.2714 -1.0994 -1.8509
33228SOL    HW2 2223   1.535   8.572   0.147  1.5700  0.6251 -0.3993
33229SOL     OW 2224   2.800   9.504   2.836  0.9943 -0.4588 -0.1756
33229SOL    HW1 2225   2.796   9.419   2.793  1.7957 -1.1075  1.0203
33229SOL    HW2 2226   2.722   9.550   2.805  0.2937 -1.8061 -0.4273
33230SOL     OW 2227   9.822   5.026   3.051  0.0919 -0.3729 -0.0226
33230SOL    HW1 2228   9.823   5.016   3.146 -0.2868  0.3589  0.0616
33230SOL    HW2 2229   9.793   4.941   3.018 -2.0828  0.0834  0.6267
33231SOL     OW 2230   5.624   9.305   7.524 -0.0069 -0.0497 -0.3468
33231SOL    HW1 2231   5.718   9.306   7.507  0.1874  2.5615  0.6199
33231SOL    HW2 2232   5.615   9.251   7.603  0.3770 -2.3716 -1.8559
33232SOL     OW 2233   9.462   6.279  10.162 -0.5076  0.6241  0.1238
33232SOL    HW1 2234   9.554   6.304  10.165  0.3615 -2.1387 -1.0613
33232SOL    HW2 2235   9.417   6.353  10.122  1.3227  1.7138  0.0536
33233SOL     OW 2236   9.572   3.976   7.304  0.1727  0.1943 -0.0787
33233SOL    HW1 2237   9.622   3.951   7.381  2.4015  1.4999 -1.0449
33233SOL    HW2 2238   9.633   3.965   7.231 -0.8453  2.1328 -1.2637
33234SOL     OW 2239   5.682   5.884   8.647 -0.3094 -0.8731 -0.1527
33234SOL    HW1 2240   5.600   5.836   8.637 -1.6534  1.1326  0.9455
33234SOL    HW2 2241   5.744   5.819   8.681 -1.2987 -2.4967 -1.3573
33235SOL     OW 2242   0.079   1.493   7.115 -0.2546  0.4512 -0.4937
33235SOL    HW1 2243   0.141   1.538   7.172  0.6782 -0.4975 -0.7446
33235SOL    HW2 2244   0.046   1.420   7.167  1.3758 -1.0265 -1.5018
33236SOL     OW 2245   9.170   7.963   6.990  0.4701 -0.1346 -0.1077
33236SOL    HW1 2246   9.220   7.967   6.908 -0.7915  1.7374 -0.8316
33236SOL    HW2 2247   9.119   7.883   6.983  1.6379 -0.8718 -0.3799
33237SOL     OW 2248   2.424   5.143   1.524 -0.3135  0.2558  0.3601
33237SOL    HW1 2249   2.456   5.076   1.583 -2.3788 -2.0797 -1.0601
33237SOL    HW2 2250   2.353   5.186   1.572 -1.6029 -1.2569 -0.1304
33238SOL     OW 2251   1.829   1.592   7.361 -0.3174  0.0401  0.1140
33238SOL    HW1 2252   1.800   1.611   7.272 -0.6904  2.2280  0.6795
33238SOL    HW2 2253   1.923   1.610   7.360  0.0456 -1.8591 -0.3420
33239SOL     OW 2254   9.418   3.261   2.101 -0.4558  0.2731  0.2000
33239SOL    HW1 2255   9.410   3.166   2.090  0.6344  0.0762  0.9199
33239SOL    HW2 2256   9.502   3.282   2.060 -1.0528  1.0412 -0.6180
33240SOL     OW 2257   8.991   2.860   7.804  0.7330 -0.3300  0.1301
33240SOL    HW1 2258   8.942   2.902   7.734 -0.3743  0.1132  1.1553
33240SOL    HW2 2259   9.009   2.931   7.866  1.8097 -0.6937  0.2498
33241SOL     OW 2260   7.851   8.313   9.685 -0.7412 -0.4919 -0.3844
33241SOL    HW1 2261   7.859   8.335   9.592 -2.7426 -0.2180 -0.5009
33241SOL    HW2 2262   7.846   8.218   9.687  2.3919 -0.7291 -0.2847
33242SOL     OW 2263   0.891   8.868   5.812 -0.0666 -0.5092 -0.3791
33242SOL    HW1 2264   0.848   8.859   5.897  0.4675 -2.0300 -0.2581
33242SOL    HW2 2265   0.981   8.839   5.827  0.3548  0.3292 -1.1983
33243SOL     OW 2266   3.523   0.808   4.910 -0.3924 -0.6682 -0.2268
33243SOL    HW1 2267   3.618   0.803   4.906 -0.3050  0.9601 -0.4584
33243SOL    HW2 2268   3.497   0.735   4.966  1.0360 -0.6197  0.5094
33244SOL     OW 2269   4.690   4.503   5.262  0.1125 -0.5401 -0.7244
33244SOL    HW1 2270   4.779   4.496   5.296  0.8528  3.2439 -1.6543
33244SOL    HW2 2271   4.700   4.544   5.176 -2.6519  1.5729 -0.0996
33245SOL     OW 2272   8.851   4.020   5.070 -0.1968  0.9828  0.0378
33245SOL    HW1 2273   8.789   4.034   5.141 -2.0190  1.8159 -1.6708
33245SOL    HW2 2274   8.796   4.004   4.993  1.7317 -0.9614 -0.9891
33246SOL     OW 2275   1.879   3.358   9.961 -0.1690  0.0024 -0.1798
33246SOL    HW1 2276   1.937   3.432   9.976 -0.3858  0.3960 -1.3059
33246SOL    HW2 2277   1.847   3.369   9.872 -1.7671 -0.3574  0.3229
33247SOL     OW 2278   2.927   9.849   0.623  0.1187 -0.0532 -0.3035
33247SOL    HW1 2279   2.839   9.863   0.655  0.7284  0.2715  1.2398
33247SOL    HW2 2280   2.932   9.754   0.608 -0.7760  0.0463 -1.2824
33248SOL     OW 2281   3.501   7.253   1.663 -0.0896  0.1154 -0.6175
33248SOL    HW1 2282   3.493   7.180   1.725  1.0359  0.3574 -0.1870
33248SOL    HW2 2283   3.512   7.330   1.719 -0.5081  0.5242 -1.0945
33249SOL     OW 2284   9.740   6.620   3.746  0.3035  0.1075  0.3577
33249SOL    HW1 2285   9.724   6.709   3.713 -0.0657 -0.7210 -1.7850
33249SOL    HW2 2286   9.672   6.605   3.811 -0.3097  0.9941 -0.0752
33250SOL     OW 2287   0.444   1.543   7.112  0.5758  0.1310  0.2305
33250SOL    HW1 2288   0.378   1.561   7.180 -0.5291 -1.1069 -0.5141
33250SOL    HW2 2289   0.526   1.574   7.151 -0.6407  3.2060  0.5407
33251SOL     OW 2290   3.043   0.275   6.092 -0.0414  0.2621 -0.3920
33251SOL    HW1 2291   3.067   0.329   6.167  0.5530  0.6837 -0.8814
33251SOL    HW2 2292   3.108   0.297   6.024 -0.0257 -0.7685 -0.7271
33252SOL     OW 2293   1.755   2.304   3.784  0.6155  0.6432  0.5905
33252SOL    HW1 2294   1.753   2.354   3.702  0.7336  0.2716  0.3610
33252SOL    HW2 2295   1.815   2.353   3.840  1.4385  0.2689  0.0481
33253SOL     OW 2296   8.664   8.557   3.813  0.1679  0.2741  0.1905
33253SOL    HW1 2297   8.701   8.617   3.878 -0.0148  0.9269 -0.2969
33253SOL    HW2 2298   8.624   8.615   3.748 -0.5018 -0.3957  0.0045
33254SOL     OW 2299   4.899   8.779   8.338 -0.0223 -0.1794 -0.4220
33254SOL    HW1 2300   4.922   8.806   8.427 -0.5867 -0.4032 -0.2019
33254SOL    HW2 2301   4.931   8.689   8.331  0.7136  0.1042 -0.7131
33255SOL     OW 2302   9.117   0.350   8.186  0.6693 -0.0978 -0.6136
33255SOL    HW1 2303   9.174   0.426   8.180  1.1616 -0.1049  2.9529
33255SOL    HW2 2304   9.177   0.276   8.198  0.0150 -0.3838  0.9695
33256SOL     OW 2305   4.957   5.260   1.122 -0.4819 -0.1201 -0.0112
33256SOL    HW1 2306   4.904   5.222   1.192 -0.2751 -0.5369 -0.0834
33256SOL    HW2 2307   5.047   5.243   1.148 -0.3760  0.6488  0.1426
33257SOL     OW 2308   7.563   1.474   7.025 -0.2438  0.7358  0.5373
33257SOL    HW1 2309   7.540   1.551   7.078 -0.8743  1.9477 -1.4235
33257SOL    HW2 2310   7.482   1.454   6.978  0.7558  0.7470 -1.2298
33258SOL     OW 2311   5.089   0.588   8.703 -0.0028  0.5039 -0.4617
33258SOL    HW1 2312   5.093   0.683   8.691  0.3118  0.4504 -0.8094
33258SOL    HW2 2313   5.179   0.558   8.688 -0.1604  0.1168 -0.6463
33259SOL     OW 2314   1.989   0.251   8.751 -0.0048  0.1683  0.5663
33259SOL    HW1 2315   2.077   0.262   8.716 -0.4056  2.0366  0.0903
33259SOL    HW2 2316   1.998   0.266   8.845 -0.1024  2.1153  0.2737
33260SOL     OW 2317   9.333   2.733   9.687 -0.3124  0.7221  0.2114
33260SOL    HW1 2318   9.344   2.646   9.647  0.8204  1.5929 -1.4117
33260SOL    HW2 2319   9.418   2.752   9.727 -0.5478  1.1034  0.5267
33261SOL     OW 2320   2.925   6.979   6.947 -0.4150  0.6413 -0.1399
33261SOL    HW1 2321   2.956   6.888   6.955  1.2513  1.2674  0.9921
33261SOL    HW2 2322   2.850   6.984   7.006  1.0729  0.6214  1.8393
33262SOL     OW 2323   9.919   3.704   0.211 -0.1040  0.0635  0.1283
33262SOL    HW1 2324   9.825   3.708   0.191 -0.1452 -0.5443  0.1736
33262SOL    HW2 2325   9.929   3.760   0.287 -0.6085 -0.6507  0.7354
33263SOL     OW 2326  10.061   8.671   5.141  0.3718  0.5201  0.4255
33263SOL    HW1 2327  10.063   8.612   5.217  1.8844  1.6496  1.2957
33263SOL    HW2 2328   9.983   8.724   5.154 -0.0251 -0.0870  0.5563
33264SOL     OW 2329   6.447   7.676   8.148 -0.3739 -0.5103 -0.1500
33264SOL    HW1 2330   6.427   7.583   8.140 -1.8868 -0.4812  2.6630
33264SOL    HW2 2331   6.368   7.714   8.186  1.7429  1.1620  2.7663
33265SOL     OW 2332   4.465   7.604   8.887 -0.5133 -0.5358 -0.2101
33265SOL    HW1 2333   4.512   7.684   8.861  0.3694 -0.8363  0.4229
33265SOL    HW2 2334   4.489   7.540   8.820  0.1738 -0.7525  0.2367
33266SOL     OW 2335   5.462   1.775   6.859 -0.1375 -0.5138 -0.1563
33266SOL    HW1 2336   5.557   1.770   6.847 -0.0356 -0.0252  0.3866
33266SOL    HW2 2337   5.439   1.693   6.903  0.3592  0.2877  1.6652
33267SOL     OW 2338   0.039   0.957   2.550 -0.5654  0.0642  0.0640
33267SOL    HW1 2339   0.028   0.864   2.532  1.4613 -0.1296 -0.2600
33267SOL    HW2 2340   0.063   0.995   2.465 -0.0869  0.6623  0.4672
33268SOL     OW 2341   3.793   7.793   5.915  0.8371  0.0209 -0.0498
33268SOL    HW1 2342   3.746   7.849   5.853 -0.1539  1.4359  1.9214
33268SOL    HW2 2343   3.751   7.810   5.999  0.5640 -3.6549  0.6248
33269SOL     OW 2344   2.659   2.612   3.778  0.3529  0.1449  0.6789
33269SOL    HW1 2345   2.682   2.648   3.863  1.7430 -1.0691  0.8345
33269SOL    HW2 2346   2.592   2.546   3.798 -2.7282  3.0572  0.3165
33270SOL     OW 2347   6.124   0.094   8.665  0.0981  0.0072 -0.2774
33270SOL    HW1 2348   6.040   0.050   8.679  0.0994 -0.5361 -1.9506
33270SOL    HW2 2349   6.177   0.068   8.741 -1.2529  0.4250  0.8338
33271SOL     OW 2350   8.786   8.701   8.409 -0.0463  0.0627  0.4411
33271SOL    HW1 2351   8.806   8.648   8.486 -2.0306 -2.6998 -0.8604
33271SOL    HW2 2352   8.708   8.751   8.435  0.5515  0.7593  0.9306
33272SOL     OW 2353   7.861   9.445   5.542 -0.2227 -0.2735 -0.1465
33272SOL    HW1 2354   7.881   9.538   5.554  2.4012 -0.6812 -1.1838
33272SOL    HW2 2355   7.819   9.441   5.456 -4.0063  0.4323  1.5662
33273SOL     OW 2356   7.476   3.755   0.249 -0.6207 -0.0252 -0.0131
33273SOL    HW1 2357   7.524   3.674   0.231 -1.1613 -0.2038 -0.6749
33273SOL    HW2 2358   7.407   3.757   0.183 -2.2170 -0.3535  1.5917
33274SOL     OW 2359   0.889   6.943   4.981  0.0809  0.5582  0.4169
33274SOL    HW1 2360   0.833   6.935   5.058  1.2483 -1.5956  1.0814
33274SOL    HW2 2361   0.978   6.929   5.014  0.8994  2.3804 -0.8781
33275SOL     OW 2362   1.421   5.839   3.214  0.0178  0.0376  0.0684
33275SOL    HW1 2363   1.397   5.809   3.301 -1.4136 -0.6217 -0.5283
33275SOL    HW2 2364   1.471   5.919   3.229 -0.0276 -0.1916  1.5020
33276SOL     OW 2365   7.775   7.941   2.173  0.0583 -0.1406  0.4812
33276SOL    HW1 2366   7.837   8.007   2.205 -0.5402  0.3222  0.6782
33276SOL    HW2 2367   7.698   7.950   2.230 -0.3136 -0.5161  0.0410
33277SOL     OW 2368   7.617   8.759   0.148 -0.2228  0.2713  0.4012
33277SOL    HW1 2369   7.578   8.745   0.062  4.3675  0.9024 -1.9242
33277SOL    HW2 2370   7.711   8.745   0.135  0.5781 -0.1864  5.4592
33278SOL     OW 2371   0.902   7.047   3.594  0.9372  0.0392  0.2026
33278SOL    HW1 2372   0.888   7.092   3.511 -2.0263 -0.4718  0.3820
33278SOL    HW2 2373   0.939   6.963   3.570  0.4100  0.0282 -0.5879
33279SOL     OW 2374   8.333  10.042   8.488 -0.2657 -0.0515  0.5289
33279SOL    HW1 2375   8.332  10.016   8.396  0.1053 -0.5357  0.6572
33279SOL    HW2 2376   8.263  10.107   8.496  0.3751  0.7542 -0.3122
33280SOL     OW 2377   0.386   7.448   0.847 -0.4513 -0.0560  0.2336
33280SOL    HW1 2378   0.438   7.467   0.925  0.3457 -0.0502 -0.2958
33280SOL    HW2 2379   0.387   7.529   0.797 -0.8881 -0.0853  0.1758
33281SOL     OW 2380   0.589   4.166   6.672 -0.6305 -0.1089 -0.5668
33281SOL    HW1 2381   0.562   4.084   6.712  0.3613 -1.6972 -3.0411
33281SOL    HW2 2382   0.682   4.174   6.694 -0.3780 -0.3818 -1.5081
33282SOL     OW 2383   4.170   7.282   2.355  0.4748 -0.1632  0.5353
33282SOL    HW1 2384   4.200   7.285   2.446  1.3880 -0.3159  0.2505
33282SOL    HW2 2385   4.128   7.366   2.340 -2.4926 -1.3383  2.0247
33283SOL     OW 2386   4.199   0.589   8.874 -0.2999  0.5306 -0.2979
33283SOL    HW1 2387   4.186   0.670   8.922 -0.9660 -0.8293  1.8978
33283SOL    HW2 2388   4.294   0.580   8.865 -0.0857  0.0719  2.1204
33284SOL     OW 2389   8.557   8.450   0.666 -0.5507  0.3785 -0.2702
33284SOL    HW1 2390   8.554   8.434   0.760 -1.1173  1.8881 -0.0309
33284SOL    HW2 2391   8.641   8.495   0.652 -0.4224  0.0689 -0.5006
33285SOL     OW 2392   6.286   8.906   2.218 -0.4326 -0.3914  0.1470
33285SOL    HW1 2393   6.323   8.854   2.147 -0.2138 -1.3014  0.9117
33285SOL    HW2 2394   6.317   8.995   2.202 -2.7701  0.0441 -2.5713
33286SOL     OW 2395   3.690   9.814   0.496  0.0886 -0.2397 -0.4229
33286SOL    HW1 2396   3.626   9.785   0.561 -0.4616 -0.4679 -1.0610
33286SOL    HW2 2397   3.765   9.842   0.548 -0.3371 -0.4352  0.3133
33287SOL     OW 2398   8.077   6.289   6.586 -0.2648 -0.2002 -0.6901
33287SOL    HW1 2399   8.024   6.210   6.575 -0.1134 -0.6949  1.6933
33287SOL    HW2 2400   8.145   6.263   6.648 -0.9186  2.1052  1.0624
33288SOL     OW 2401   1.989   6.839   3.752  0.1695  0.3469 -0.2288
33288SOL    HW1 2402   1.920   6.791   3.798 -1.3747  1.9671 -0.7886
33288SOL    HW2 2403   1.985   6.807   3.662 -0.7416  1.3441 -0.5603
33289SOL     OW 2404   1.355   0.148   9.981 -0.7195  0.0227 -0.3160
33289SOL    HW1 2405   1.392   0.232   9.953 -0.7521  0.3506  0.6194
33289SOL    HW2 2406   1.400   0.083   9.927 -1.6677  0.7351 -2.0140
33290SOL     OW 2407   1.846   2.032   7.334 -0.3145 -0.1121 -0.1830
33290SOL    HW1 2408   1.925   1.995   7.294  0.3068 -0.0896  0.9991
33290SOL    HW2 2409   1.823   2.106   7.277 -0.1551 -0.8213 -1.1792
33291SOL     OW 2410   7.533   5.959   8.339 -0.5661 -0.2564 -0.0457
33291SOL    HW1 2411   7.467   5.947   8.408 -1.3781  0.4828 -0.6877
33291SOL    HW2 2412   7.512   6.044   8.301  1.4480  0.5034  0.4791
33292SOL     OW 2413   0.618   0.978   3.835 -0.4435  0.3854 -0.2261
33292SOL    HW1 2414   0.625   1.035   3.758  0.7109  0.7270  0.1144
33292SOL    HW2 2415   0.624   1.039   3.909  0.6025 -0.1475  0.1404
33293SOL     OW 2416   4.388   6.065   5.581 -0.3171 -0.1630 -0.1816
33293SOL    HW1 2417   4.377   6.106   5.666  2.9623 -2.6507  1.5760
33293SOL    HW2 2418   4.309   6.013   5.569 -0.2663 -0.8140  2.0283
33294SOL     OW 2419   7.347   8.102   8.999 -0.1802 -0.3594 -0.0800
33294SOL    HW1 2420   7.392   8.017   8.999 -1.5754 -1.1109 -0.4875
33294SOL    HW2 2421   7.258   8.082   9.027 -0.4780  1.0063 -0.0156
33295SOL     OW 2422   9.580   2.821   4.817  0.5469  0.2549 -0.7666
33295SOL    HW1 2423   9.627   2.741   4.797  0.0433 -0.0283 -0.8375
33295SOL    HW2 2424   9.491   2.806   4.783 -0.0289  0.1694  0.7621
33296SOL     OW 2425   9.066   5.630   4.281  0.6515 -0.2048 -0.4001
33296SOL    HW1 2426   9.092   5.570   4.352 -1.0969 -1.0036 -0.4152
33296SOL    HW2 2427   9.007   5.692   4.322  0.5015  0.0051 -0.9308
33297SOL     OW 2428   8.760   1.795   0.267 -0.1489  0.4850  0.0067
33297SOL    HW1 2429   8.817   1.719   0.260  0.3341  0.8769 -0.3541
33297SOL    HW2 2430   8.683   1.772   0.215  0.7858  0.9548 -1.6212
33298SOL     OW 2431   4.803   8.984   2.277  0.2726  0.2997 -0.2210
33298SOL    HW1 2432   4.769   8.906   2.235  0.6115 -0.0818  0.2061
33298SOL    HW2 2433   4.891   8.994   2.242  1.0187 -0.7240  1.2965
33299SOL     OW 2434   4.424   2.007   7.548 -0.4997  0.2487 -0.3720
33299SOL    HW1 2435   4.421   1.978   7.640  0.7395  2.1670  0.3131
33299SOL    HW2 2436   4.515   1.991   7.522 -0.5727  0.7264 -0.9146
33300SOL     OW 2437   7.285   2.211   9.450  0.3175 -0.4246 -0.0904
33300SOL    HW1 2438   7.282   2.117   9.432 -0.5760 -0.1749 -1.3362
33300SOL    HW2 2439   7.255   2.252   9.369  0.7500  0.9441  0.4174
33301SOL     OW 2440   3.285   8.167   5.614  0.5383 -0.7058  0.0181
33301SOL    HW1 2441   3.221   8.183   5.545 -0.2772 -1.0689  0.6799
33301SOL    HW2 2442   3.321   8.080   5.594  0.5039 -0.6936 -0.0963
33302SOL     OW 2443   8.827   1.218   4.019  0.6176  0.2869  0.1561
33302SOL    HW1 2444   8.876   1.150   4.065  0.0094  0.3688  0.9326
33302SOL    HW2 2445   8.739   1.182   4.010  0.0921  1.2634  1.2343
33303SOL     OW 2446   0.281   1.526   6.243 -0.2061 -0.2076  0.0435
33303SOL    HW1 2447   0.359   1.477   6.217 -0.0231  1.7575 -3.4721
33303SOL    HW2 2448   0.303   1.564   6.328  2.2331 -0.6488 -0.3696
33304SOL     OW 2449   0.231   6.613   1.208  0.4865 -0.4103  0.6164
33304SOL    HW1 2450   0.307   6.663   1.237  0.9485  0.0176 -1.2763
33304SOL    HW2 2451   0.238   6.529   1.254  2.7579 -0.8267 -0.4531
33305SOL     OW 2452   9.715   0.358   4.088  0.0201  0.2273  0.0265
33305SOL    HW1 2453   9.698   0.315   4.005  0.0752 -0.0092  0.1351
33305SOL    HW2 2454   9.768   0.294   4.137 -0.9516 -0.0926  0.6669
33306SOL     OW 2455   6.130   0.289   6.079  0.1333 -0.3860  0.6803
33306SOL    HW1 2456   6.039   0.316   6.086  0.2282 -0.0382  0.5798
33306SOL    HW2 2457   6.135   0.207   6.129  0.1028  0.4212  2.0269
33307SOL     OW 2458   7.421   8.732   5.966 -0.3903 -0.1907 -0.0921
33307SOL    HW1 2459   7.358   8.735   6.037 -0.3019 -0.9842  0.0282
33307SOL    HW2 2460   7.371   8.699   5.891  0.2492 -2.4225  0.4283
33308SOL     OW 2461   7.972   7.670   3.293 -0.1779  0.2489 -0.1754
33308SOL    HW1 2462   7.966   7.576   3.272  1.6261  0.0169  0.2945
33308SOL    HW2 2463   7.941   7.677   3.383 -1.2163  0.2572 -0.5198
33309SOL     OW 2464   8.677   1.767   0.579 -0.2131 -0.1550  0.3768
33309SOL    HW1 2465   8.677   1.773   0.484 -0.1115 -1.2526  0.3048
33309SOL    HW2 2466   8.591   1.799   0.606 -0.8435 -1.3660 -0.1835
33310SOL     OW 2467   9.524   3.277   4.857  0.0168  0.1317 -0.1299
33310SOL    HW1 2468   9.437   3.315   4.871 -0.3385 -0.5669 -0.4120
33310SOL    HW2 2469   9.521   3.193   4.903 -0.0871 -0.7403 -1.7022
33311SOL     OW 2470   5.111   3.046   7.602  0.4127 -0.7961  0.3745
33311SOL    HW1 2471   5.191   3.013   7.561 -0.4699 -2.6238  0.0939
33311SOL    HW2 2472   5.093   2.986   7.674  0.0345  0.4047  1.3038
33312SOL     OW 2473   4.462   9.363   4.169 -0.3696  0.4182 -0.1044
33312SOL    HW1 2474   4.460   9.318   4.084 -0.8087 -1.0554  0.6802
33312SOL    HW2 2475   4.550   9.346   4.203 -0.2095  0.9722 -0.2405
33313SOL     OW 2476   6.660   9.932   7.513  0.3352  0.2053 -0.6930
33313SOL    HW1 2477   6.716   9.932   7.591  0.3231  0.4731 -0.6839
33313SOL    HW2 2478   6.583   9.882   7.538  1.1374 -1.2860 -1.1141
33314SOL     OW 2479   0.988   6.916   6.283 -0.1638 -0.1388 -0.0500
33314SOL    HW1 2480   0.997   6.955   6.370  3.0467 -1.7365  0.3938
33314SOL    HW2 2481   1.049   6.965   6.228  0.3246 -1.3681 -0.6224
33315SOL     OW 2482   1.601   9.115   3.363  0.0714  0.1332  0.1616
33315SOL    HW1 2483   1.573   9.204   3.345 -1.0863 -0.0499  0.9941
33315SOL    HW2 2484   1.683   9.105   3.314  0.4926  1.8136  0.5060
33316SOL     OW 2485   0.903   9.037   2.268  0.0723  0.3483  0.2821
33316SOL    HW1 2486   0.861   9.034   2.354  0.5110 -2.0336  0.4503
33316SOL    HW2 2487   0.997   9.042   2.288  0.3435 -2.9583 -0.0074
33317SOL     OW 2488   7.185   6.675   4.361  0.5265  0.3109 -0.5759
33317SOL    HW1 2489   7.119   6.640   4.301  0.0749  0.7193 -0.3258
33317SOL    HW2 2490   7.197   6.765   4.332  0.1051  0.5933  0.1109
33318SOL     OW 2491   6.769   4.650   8.574 -0.3406  0.3913 -0.3873
33318SOL    HW1 2492   6.687   4.607   8.598 -0.6054 -0.5322 -2.8153
33318SOL    HW2 2493   6.837   4.594   8.611 -0.7592 -0.4401 -0.8501
33319SOL     OW 2494   0.237   3.555   2.254  0.9346 -0.3803  0.0828
33319SOL    HW1 2495   0.312   3.505   2.223  1.1784  0.3670 -0.5554
33319SOL    HW2 2496   0.225   3.623   2.188 -0.2068 -0.3965  0.2637
33320SOL     OW 2497   5.645   4.955   6.515  0.3020  0.5418 -0.2111
33320SOL    HW1 2498   5.691   4.952   6.599 -1.0793 -2.4649  0.5326
33320SOL    HW2 2499   5.704   4.911   6.454 -0.6469 -1.4905  0.2878
33321SOL     OW 2500   0.600   5.088   7.086 -0.7207 -0.3680 -0.1355
33321SOL    HW1 2501   0.628   5.045   7.006 -1.3617 -0.5121 -0.2815
33321SOL    HW2 2502   0.663   5.160   7.098  0.0316 -1.0166 -0.1744
33322SOL     OW 2503   3.950   8.261   6.248 -0.0496  0.2866 -0.2864
33322SOL    HW1 2504   3.867   8.307   6.233 -0.4815 -1.0196 -2.0434
33322SOL    HW2 2505   3.926   8.168   6.249  1.2051 -0.0447  0.4984
33323SOL     OW 2506   4.242   5.567   8.359  0.3525 -0.2542  0.2377
33323SOL    HW1 2507   4.327   5.594   8.324 -0.6217  1.4616 -0.8600
33323SOL    HW2 2508   4.187   5.554   8.281 -0.7549 -0.1387  0.9919
33324SOL     OW 2509   3.165   9.285   5.407  0.3317 -0.2817  0.5028
33324SOL    HW1 2510   3.152   9.298   5.313  1.4342  0.2374  0.4206
33324SOL    HW2 2511   3.108   9.351   5.448  0.0189 -0.3620  0.2019
33325SOL     OW 2512   0.463   0.387   3.798 -0.3932  0.2883  0.0047
33325SOL    HW1 2513   0.450   0.452   3.729 -2.3406 -2.3355 -2.2398
33325SOL    HW2 2514   0.556   0.390   3.816  0.2643  0.7133 -3.1447
33326SOL     OW 2515   8.573   5.757   6.738  0.1995 -0.0922  0.1125
33326SOL    HW1 2516   8.571   5.692   6.807 -0.5619  1.0520  1.2049
33326SOL    HW2 2517   8.521   5.719   6.667 -1.0970 -0.2576  1.1325
33327SOL     OW 2518   3.145   5.071   1.333 -0.1434 -0.0319  0.3073
33327SOL    HW1 2519   3.052   5.087   1.319  0.1759  1.9822  0.3589
33327SOL    HW2 2520   3.166   4.996   1.276 -1.5714  0.1408 -0.4577
33328SOL     OW 2521   1.057   2.767   8.604  0.1003 -0.0924 -0.0612
33328SOL    HW1 2522   1.152   2.767   8.620  0.0427  0.2024  0.2797
33328SOL    HW2 2523   1.032   2.859   8.602 -0.2079 -0.1721  0.0260
33329SOL     OW 2524   1.866   2.167   4.967 -0.4934  0.2058 -0.2619
33329SOL    HW1 2525   1.925   2.230   4.926  0.5036 -1.0500 -0.7819
33329SOL    HW2 2526   1.780   2.187   4.929 -0.5462  2.3830  0.8971
33330SOL     OW 2527   9.501   8.979  10.164  0.1222  0.0967 -0.1687
33330SOL    HW1 2528   9.482   8.908  10.226  0.6712  0.2930  0.2280
33330SOL    HW2 2529   9.579   9.021  10.200 -0.1101  0.8011 -0.4928
33331SOL     OW 2530   4.366   6.889   4.737  0.0347  0.6597 -0.3661
33331SOL    HW1 2531   4.365   6.794   4.751 -0.5523  0.8233  0.7865
33331SOL    HW2 2532   4.336   6.901   4.647 -0.7509 -0.2027 -0.2273
33332SOL     OW 2533   2.088   8.341   3.541  0.0981 -0.4422 -0.0321
33332SOL    HW1 2534   2.136   8.268   3.500  0.4465 -1.0565  1.4193
33332SOL    HW2 2535   2.098   8.414   3.480  0.4470 -1.3888 -1.1167
33333SOL     OW 2536   2.117   0.024   4.319 -0.7427 -0.4273  0.7030
33333SOL    HW1 2537   2.179   0.091   4.351 -0.7293  1.3978 -2.8826
33333SOL    HW2 2538   2.164  -0.058   4.329  1.6940  0.7655 -0.4471
33334SOL     OW 2539   5.334   6.593   2.347 -0.2156 -0.3252  0.4119
33334SOL    HW1 2540   5.341   6.678   2.390 -0.0845 -1.1277  2.0138
33334SOL    HW2 2541   5.416   6.549   2.369 -1.1009 -1.5946  1.1847
33335SOL     OW 2542   4.310   3.836   0.439  0.4476 -0.4000 -0.0287
33335SOL    HW1 2543   4.265   3.912   0.476  0.7453 -0.5333  0.6140
33335SOL    HW2 2544   4.379   3.872   0.383  3.4822 -0.1433  3.7110
33336SOL     OW 2545   3.463   9.352   3.031 -0.6219 -0.2973  0.8049
33336SOL    HW1 2546   3.383   9.304   3.007 -0.4257 -1.3161  2.0871
33336SOL    HW2 2547   3.431   9.428   3.079 -0.8854  0.0977  0.0024
33337SOL     OW 2548   4.826   1.259   5.593 -0.5579  0.2444 -0.6476
33337SOL    HW1 2549   4.765   1.332   5.602  1.1265  1.6401 -0.1943
33337SOL    HW2 2550   4.864   1.269   5.506  0.7680  0.8062 -0.0211
33338SOL     OW 2551   3.563   0.206   0.113 -0.2711 -0.0665 -0.2290
33338SOL    HW1 2552   3.520   0.144   0.053 -0.9304  0.2147 -0.0542
33338SOL    HW2 2553   3.635   0.242   0.062 -0.3872 -0.3683 -0.6124
33339SOL     OW 2554   1.933   4.483   2.608  0.0429  0.0992 -0.3013
33339SOL    HW1 2555   2.005   4.545   2.612  0.1511  0.0723 -1.6953
33339SOL    HW2 2556   1.857   4.536   2.583  0.0555 -0.2698 -1.1122
33340SOL     OW 2557   1.893   5.543   8.383 -0.6222 -0.4570 -0.0669
33340SOL    HW1 2558   1.918   5.579   8.298 -0.5851  0.6590  0.4140
33340SOL    HW2 2559   1.821   5.599   8.412 -0.4358 -0.6554  0.7711
33341SOL     OW 2560   6.319   7.009   1.946 -0.5183 -0.5659  0.4047
33341SOL    HW1 2561   6.255   7.042   1.883  0.5730  2.1672  0.6743
33341SOL    HW2 2562   6.276   7.021   2.031 -0.7466 -1.3244  0.3969
33342SOL     OW 2563   2.198   3.477   1.858 -0.5217 -1.4509  0.7851
33342SOL    HW1 2564   2.261   3.414   1.824  0.1409 -1.2065  1.5366
33342SOL    HW2 2565   2.198   3.462   1.953  0.8455  0.7255  1.1862
33343SOL     OW 2566   8.737   0.953   0.613  0.1474  0.5931 -0.0300
33343SOL    HW1 2567   8.725   1.039   0.654  0.0095 -1.0940  3.6594
33343SOL    HW2 2568   8.831   0.945   0.599  0.0949  1.5845 -0.9971
33344SOL     OW 2569   6.176   7.400   9.223  0.3690  0.2957 -0.3991
33344SOL    HW1 2570   6.156   7.308   9.207 -4.2293  0.7740  1.6222
33344SOL    HW2 2571   6.134   7.447   9.151  0.2501  0.9396  0.0798
33345SOL     OW 2572   7.438   2.484   4.641  0.6422  0.2749 -0.5136
33345SOL    HW1 2573   7.503   2.456   4.706 -1.1183 -1.7840  0.4395
33345SOL    HW2 2574   7.452   2.427   4.566 -0.8214 -1.0085  0.1634
33346SOL     OW 2575   4.139   8.056   8.544 -0.4394 -0.1764  0.7484
33346SOL    HW1 2576   4.115   7.970   8.509  0.0738 -0.5531  1.3251
33346SOL    HW2 2577   4.111   8.117   8.476  1.9013 -0.9974 -1.0161
33347SOL     OW 2578   5.691   4.276   5.458 -0.2065 -0.4891 -0.1787
33347SOL    HW1 2579   5.642   4.204   5.498 -0.0881 -0.4174  0.1029
33347SOL    HW2 2580   5.636   4.353   5.470 -0.9624 -0.7819 -1.7353
33348SOL     OW 2581   6.866   4.377   6.492  0.1874 -0.1867  0.2137
33348SOL    HW1 2582   6.925   4.428   6.548 -0.8891  2.9621 -1.4464
33348SOL    HW2 2583   6.921   4.306   6.459  2.1725  0.7979  1.3160
33349SOL     OW 2584   9.039   2.587   8.455 -0.0552 -0.1208 -0.0979
33349SOL    HW1 2585   9.121   2.621   8.493 -0.9668  2.0436  0.0111
33349SOL    HW2 2586   8.983   2.569   8.531 -0.3279  0.0978 -0.2492
33350SOL     OW 2587   8.511   8.028   3.804 -0.1861 -0.0830  0.4135
33350SOL    HW1 2588   8.550   8.042   3.718  0.8750  0.3702  0.9572
33350SOL    HW2 2589   8.560   7.955   3.841 -0.2761  0.0699  0.8407
33351SOL     OW 2590   0.812   8.138   7.782  0.1828  0.4871 -0.4690
33351SOL    HW1 2591   0.739   8.078   7.793  1.5843 -1.3133 -0.7961
33351SOL    HW2 2592   0.860   8.132   7.864 -0.5825  2.4631  0.1541
33352SOL     OW 2593   4.208   7.946   7.499 -0.1525 -0.1827 -0.4951
33352SOL    HW1 2594   4.170   8.004   7.565 -1.3176  0.0174 -1.3131
33352SOL    HW2 2595   4.145   7.949   7.427  0.0424 -2.0158 -0.7667
33353SOL     OW 2596   0.247   4.941   7.978  0.1709  0.1179  0.1966
33353SOL    HW1 2597   0.321   4.880   7.976 -0.5833 -0.7803 -0.0496
33353SOL    HW2 2598   0.170   4.886   7.973 -0.4964  1.1776 -1.4395
33354SOL     OW 2599   1.959   0.680   0.815 -0.0885  0.1746 -0.0791
33354SOL    HW1 2600   1.877   0.653   0.855 -0.1853 -0.6870 -0.8559
33354SOL    HW2 2601   1.966   0.773   0.835  0.5836 -0.5293  3.1991
33355SOL     OW 2602   1.630   6.668   4.831 -0.0285  0.1524  0.3399
33355SOL    HW1 2603   1.632   6.683   4.926  3.5096 -0.9540  0.4941
33355SOL    HW2 2604   1.630   6.573   4.822  1.5590  0.2399 -0.7508
33356SOL     OW 2605   8.567   5.709   2.926  0.6427  0.2189 -0.0591
33356SOL    HW1 2606   8.594   5.775   2.862 -0.5223  0.7076 -0.0705
33356SOL    HW2 2607   8.586   5.748   3.011  1.4032 -0.0774 -0.0930
33357SOL     OW 2608   0.500   8.042   9.523 -0.4334  0.2817 -0.4830
33357SOL    HW1 2609   0.479   7.966   9.468 -1.8556  0.2636  0.0816
33357SOL    HW2 2610   0.567   8.009   9.583  1.7527  0.5202 -2.6759
33358SOL     OW 2611   8.938   0.496   9.914  0.0316 -0.0915  0.1268
33358SOL    HW1 2612   8.895   0.553   9.849  0.9262  1.7710  1.1450
33358SOL    HW2 2613   8.865   0.459   9.964 -0.5269  1.0354  0.1765
33359SOL     OW 2614   0.605   7.002   3.433 -0.0223 -0.1949  0.3913
33359SOL    HW1 2615   0.613   7.039   3.521  1.4064 -0.7364  0.5081
33359SOL    HW2 2616   0.573   7.075   3.379  1.3102  0.7989  0.9104
33360SOL     OW 2617   2.215   9.003   0.699  0.4647  0.1245 -0.5566
33360SOL    HW1 2618   2.257   8.956   0.772 -0.1913  0.7554  0.2256
33360SOL    HW2 2619   2.243   8.954   0.621  1.1926 -0.5402  0.1060
33361SOL     OW 2620   7.096   2.585   5.237 -0.1498 -0.0806 -0.0969
33361SOL    HW1 2621   7.149   2.632   5.301  1.1895  0.1055 -1.3116
33361SOL    HW2 2622   7.108   2.492   5.258 -0.8587  0.0230  0.7944
33362SOL     OW 2623   7.087   9.764   4.239  0.1177  0.1515 -0.6361
33362SOL    HW1 2624   7.098   9.672   4.263  2.0453  0.3138 -0.7909
33362SOL    HW2 2625   7.064   9.808   4.321 -2.1526 -0.6525 -0.8111
33363SOL     OW 2626   2.108   1.682   5.517 -0.4047  0.9644 -0.3486
33363SOL    HW1 2627   2.119   1.587   5.530 -0.4215  1.0463  0.2443
33363SOL    HW2 2628   2.170   1.702   5.446 -0.7187  0.4336 -0.7822
33364SOL     OW 2629   9.290   6.237   9.533 -0.4161  0.2605  0.1072
33364SOL    HW1 2630   9.291   6.142   9.532 -1.3510  0.2410  0.3901
33364SOL    HW2 2631   9.199   6.260   9.551 -0.1902  1.2052  0.0861
33365SOL     OW 2632   4.124   8.004   4.353 -0.4714  0.5913 -0.5050
33365SOL    HW1 2633   4.065   7.931   4.372 -0.7115  1.3903  2.0501
33365SOL    HW2 2634   4.194   7.995   4.418  1.1987  0.8307 -2.2129
33366SOL     OW 2635   0.854   1.075   3.129 -0.0279  0.0564 -0.3278
33366SOL    HW1 2636   0.926   1.112   3.180  1.6553  0.1684 -2.7055
33366SOL    HW2 2637   0.848   0.984   3.159  1.2655 -0.0260 -0.2893
33367SOL     OW 2638   2.336   6.011   4.992 -0.0702 -0.3382  0.6338
33367SOL    HW1 2639   2.369   5.926   5.019 -1.6946 -0.9331  0.8034
33367SOL    HW2 2640   2.410   6.071   5.004  1.0232 -1.6808  0.6920
33368SOL     OW 2641   3.712   3.757   6.554  0.4239 -0.2483  0.0174
33368SOL    HW1 2642   3.651   3.800   6.613 -0.7844 -0.1230 -1.2993
33368SOL    HW2 2643   3.798   3.794   6.578 -0.1292  0.2884  1.2315
33369SOL     OW 2644   6.694   4.918   5.841 -0.0701 -0.1847 -0.4760
33369SOL    HW1 2645   6.705   4.847   5.904 -0.5332 -0.7044 -0.9785
33369SOL    HW2 2646   6.760   4.983   5.866  0.6910 -1.0113 -0.3318
33370SOL     OW 2647   0.514   3.256   7.609 -0.3216  0.1335 -0.3710
33370SOL    HW1 2648   0.575   3.217   7.671 -1.0357  0.3051  0.4383
33370SOL    HW2 2649   0.565   3.263   7.528  0.4024 -0.7165 -0.0087
33371SOL     OW 2650   4.184   4.597   0.391  0.5646 -0.4911  0.4577
33371SOL    HW1 2651   4.250   4.599   0.321  0.6540 -1.7694  0.4890
33371SOL    HW2 2652   4.221   4.540   0.458  0.2141  0.2510  1.2934
33372SOL     OW 2653   2.025   9.733   8.250 -0.4247  0.2122  1.1304
33372SOL    HW1 2654   1.968   9.749   8.326  1.3679  3.8737  1.7913
33372SOL    HW2 2655   1.993   9.794   8.184  0.3702 -0.3605  0.2159
33373SOL     OW 2656   8.236   9.655   3.780  0.4841 -0.2569 -0.0543
33373SOL    HW1 2657   8.244   9.734   3.834 -1.2758 -0.7471  0.9588
33373SOL    HW2 2658   8.228   9.687   3.691 -0.1547  0.7013  0.3490
33374SOL     OW 2659   2.349   8.450   7.178 -0.3274 -0.0515  0.0295
33374SOL    HW1 2660   2.419   8.389   7.200  0.8216  1.5318  0.9443
33374SOL    HW2 2661   2.305   8.467   7.261 -1.2635 -0.3941 -0.3950
33375SOL     OW 2662   3.192   8.477   7.850 -0.3260 -0.1428  0.1421
33375SOL    HW1 2663   3.248   8.555   7.850 -0.0997 -0.2994 -1.0121
33375SOL    HW2 2664   3.137   8.487   7.928  1.2045  0.0848  1.2333
33376SOL     OW 2665   4.336   0.127   8.062  0.0121  0.2632 -0.3034
33376SOL    HW1 2666   4.373   0.061   8.003 -1.8866  0.1801 -1.4445
33376SOL    HW2 2667   4.327   0.205   8.007 -2.1566  0.0613 -0.2812
33377SOL     OW 2668   9.886   0.285   3.056  0.1205 -0.0994  0.2837
33377SOL    HW1 2669   9.981   0.298   3.059  0.2033 -0.9001  1.4982
33377SOL    HW2 2670   9.875   0.200   3.014 -0.1494  0.8208 -1.5572
33378SOL     OW 2671   8.967   3.839   6.708 -0.2119  0.0553  0.3843
33378SOL    HW1 2672   9.032   3.820   6.776 -0.9659 -0.3090  1.0209
33378SOL    HW2 2673   8.984   3.773   6.640  0.6034  0.4775  0.1759
33379SOL     OW 2674   7.653   6.319   4.285  0.6748 -0.0354  0.2378
33379SOL    HW1 2675   7.733   6.349   4.327  0.7751  2.1216 -1.4173
33379SOL    HW2 2676   7.593   6.394   4.291 -0.2772 -0.6812 -0.9321
33380SOL     OW 2677   1.542   5.586   0.473 -0.1999 -0.0783 -0.0314
33380SOL    HW1 2678   1.608   5.544   0.528 -0.0809  0.9586  0.6435
33380SOL    HW2 2679   1.585   5.665   0.441 -0.5076 -0.3219 -1.0614
33381SOL     OW 2680   5.434   8.568   8.142  0.0318 -0.2380 -0.2138
33381SOL    HW1 2681   5.480   8.553   8.059  0.8474 -0.4243  0.2638
33381SOL    HW2 2682   5.385   8.487   8.157  1.6952 -1.1195  0.6231
33382SOL     OW 2683   4.375   9.028   4.180 -0.0449 -0.7258  0.2247
33382SOL    HW1 2684   4.470   9.036   4.181 -0.3173  3.7801 -0.8182
33382SOL    HW2 2685   4.352   9.027   4.087 -1.1620  1.1028  0.4604
33383SOL     OW 2686   9.911   0.587  10.137  0.3288 -0.0869 -0.9801
33383SOL    HW1 2687   9.900   0.618  10.227 -1.9988 -0.9481 -0.9474
33383SOL    HW2 2688   9.980   0.643  10.101  2.1949 -0.5504  1.7171
33384SOL     OW 2689   9.675   3.192   2.700  0.1590 -0.5310 -0.0335
33384SOL    HW1 2690   9.695   3.099   2.702  1.3528 -0.2598  0.8780
33384SOL    HW2 2691   9.661   3.216   2.791 -0.6595  0.0801 -0.3121
33385SOL     OW 2692   6.027   4.819   5.491 -0.3587 -0.1116  0.3416
33385SOL    HW1 2693   6.036   4.810   5.396  1.1599  1.5126  0.3043
33385SOL    HW2 2694   6.117   4.821   5.524 -0.8478  0.6303  1.6826
33386SOL     OW 2695   8.071   6.372   8.451  0.1362  0.3150 -0.1550
33386SOL    HW1 2696   8.160   6.351   8.423 -0.1111 -0.4089 -0.3959
33386SOL    HW2 2697   8.031   6.288   8.473 -0.8768  0.5013 -1.2037
33387SOL     OW 2698   4.902   9.227   8.382  0.4055  0.0773  0.0791
33387SOL    HW1 2699   4.891   9.170   8.458  0.0569  0.3810  0.2546
33387SOL    HW2 2700   4.969   9.290   8.408 -0.2409  0.6394  0.4034
33388SOL     OW 2701   3.084   7.624   0.761  0.1495 -0.1089  0.0174
33388SOL    HW1 2702   3.164   7.625   0.709  0.8322 -0.3938  1.0455
33388SOL    HW2 2703   3.110   7.587   0.846 -0.8116  0.8966  0.7717
33389SOL     OW 2704   8.648   3.010   7.227  0.4287  0.2967 -0.0299
33389SOL    HW1 2705   8.580   2.993   7.292 -1.4608  0.7505 -1.8397
33389SOL    HW2 2706   8.691   2.926   7.215 -0.2096 -0.1387  0.6690
33390SOL     OW 2707   8.606   7.697   7.588 -0.7442 -0.4043  0.2402
33390SOL    HW1 2708   8.612   7.792   7.576 -4.0110  0.0892  2.0894
33390SOL    HW2 2709   8.576   7.664   7.503  2.3529 -0.0938 -1.0527
33391SOL     OW 2710   7.575   5.943   6.007 -0.1851  0.1747 -0.4140
33391SOL    HW1 2711   7.640   5.929   6.076  0.8581  0.2644 -1.3663
33391SOL    HW2 2712   7.517   6.010   6.043 -0.5858 -0.9059  1.0055
33392SOL     OW 2713   3.431   9.829   8.844 -0.0647 -0.2842  0.1678
33392SOL    HW1 2714   3.414   9.922   8.827 -1.4167 -0.5212  0.1486
33392SOL    HW2 2715   3.436   9.823   8.939  0.5709 -0.1032  0.1473
33393SOL     OW 2716  10.033   7.063   9.009 -0.1244 -0.4105 -0.9334
33393SOL    HW1 2717  10.123   7.034   9.020 -0.4019 -0.7803  0.4605
33393SOL    HW2 2718  10.001   7.077   9.098 -1.4970 -0.4521 -1.4025
33394SOL     OW 2719   2.327   1.338   7.936  0.3117  0.3839 -0.1233
33394SOL    HW1 2720   2.307   1.400   8.007 -0.3165 -1.1141  1.0153
33394SOL    HW2 2721   2.377   1.391   7.873 -0.2549  2.0729  0.7981
33395SOL     OW 2722   2.754   2.067   3.576  0.0101 -0.7858  0.0785
33395SOL    HW1 2723   2.800   2.107   3.502  0.0108 -0.3908  0.2895
33395SOL    HW2 2724   2.680   2.126   3.592 -0.5354 -1.3818 -0.2198
33396SOL     OW 2725   5.164   8.591   8.808  0.4829 -0.5581 -0.0852
33396SOL    HW1 2726   5.123   8.662   8.758  0.8547 -0.3758 -0.1285
33396SOL    HW2 2727   5.161   8.621   8.899 -0.8276 -1.1885  0.0981
33397SOL     OW 2728   7.875   3.758   7.632  0.4327  0.0171  0.3451
33397SOL    HW1 2729   7.918   3.780   7.715  0.5907 -0.4026  0.3737
33397SOL    HW2 2730   7.847   3.667   7.642  1.3037 -0.3403 -0.4223
33398SOL     OW 2731   0.087   8.215   4.930 -0.1865  0.5145 -0.2739
33398SOL    HW1 2732   0.154   8.256   4.876  0.6541  0.5977  0.8130
33398SOL    HW2 2733   0.038   8.288   4.967 -0.7640  0.4572 -0.9152
33399SOL     OW 2734   4.658   5.371   0.234  0.1515 -0.2194 -0.2828
33399SOL    HW1 2735   4.634   5.464   0.237  2.2833  0.3118  1.8358
33399SOL    HW2 2736   4.578   5.325   0.258 -1.2317  0.9900 -2.4472
33400SOL     OW 2737   6.897   9.209   5.083  0.2392 -0.1879 -0.2672
33400SOL    HW1 2738   6.971   9.269   5.080  0.7902 -0.7529  1.5214
33400SOL    HW2 2739   6.907   9.162   5.166 -0.4891 -2.3666 -1.3758
33401SOL     OW 2740   3.767   2.175   6.305 -0.4175 -0.2833  0.6643
33401SOL    HW1 2741   3.688   2.155   6.254  0.9182  1.1592 -2.1153
33401SOL    HW2 2742   3.738   2.240   6.369 -1.4174  0.7614 -0.7924
33402SOL     OW 2743   8.350   7.751   2.504 -0.0292 -0.9181 -0.5586
33402SOL    HW1 2744   8.346   7.715   2.592 -0.8542 -0.1933 -0.2990
33402SOL    HW2 2745   8.265   7.731   2.465 -0.9685  1.7032 -0.0105
33403SOL     OW 2746   7.839  10.107   3.236 -0.1556 -0.0103  0.2155
33403SOL    HW1 2747   7.829  10.063   3.152  0.2629  0.5649 -0.1404
33403SOL    HW2 2748   7.758  10.156   3.248  0.0107  0.3341 -0.1000
33404SOL     OW 2749   7.686   6.741   4.370  0.3431  0.3511  0.3375
33404SOL    HW1 2750   7.629   6.785   4.433  1.5205  0.4200  1.3839
33404SOL    HW2 2751   7.714   6.811   4.311  0.9342  0.7086  1.0328
33405SOL     OW 2752   4.838   0.547   6.367  0.0060 -0.3357 -0.7640
33405SOL    HW1 2753   4.816   0.455   6.352  1.7488 -0.8737 -0.2055
33405SOL    HW2 2754   4.911   0.544   6.429  0.0424  1.4308 -0.7026
33406SOL     OW 2755   3.596   5.341   0.988  0.0053 -0.4568  0.0838
33406SOL    HW1 2756   3.690   5.354   1.005  0.0435 -0.5719 -0.0345
33406SOL    HW2 2757   3.558   5.321   1.073  0.2799 -1.5444 -0.0384
33407SOL     OW 2758   3.277   1.600   7.954 -0.0384  0.0945 -0.3829
33407SOL    HW1 2759   3.210   1.669   7.955  1.5752  1.6970  0.1886
33407SOL    HW2 2760   3.229   1.520   7.974 -1.6119  1.3645  1.0672
33408SOL     OW 2761   0.537   7.858   6.124  0.9584  0.5238  0.0983
33408SOL    HW1 2762   0.531   7.946   6.162  0.8294  0.1900  0.8546
33408SOL    HW2 2763   0.534   7.799   6.199 -0.0040 -0.1696 -0.4734
33409SOL     OW 2764   5.687   6.490   1.382  0.1054 -0.3664  0.0530
33409SOL    HW1 2765   5.677   6.552   1.310  1.6506 -1.0165 -0.7587
33409SOL    HW2 2766   5.721   6.543   1.454 -1.1879  0.2379  0.2178
33410SOL     OW 2767   6.204   9.799   5.876 -0.0038 -0.2122 -0.4644
33410SOL    HW1 2768   6.176   9.709   5.893 -1.7017  0.0457 -1.7375
33410SOL    HW2 2769   6.133   9.853   5.912  0.3967  0.5636 -0.8400
33411SOL     OW 2770   8.002   4.781   5.028 -0.1517 -0.3763  0.3848
33411SOL    HW1 2771   8.079   4.783   4.972 -0.8476 -2.4130 -0.6836
33411SOL    HW2 2772   8.036   4.799   5.116  1.2904  0.3911 -0.3067
33412SOL     OW 2773   5.368   6.658  10.030 -0.0986 -0.2030  0.1435
33412SOL    HW1 2774   5.292   6.606  10.005  0.1982 -1.2196  1.2825
33412SOL    HW2 2775   5.401   6.615  10.109  1.3873  0.4912 -0.0840
33413SOL     OW 2776   0.045   9.081   5.798  0.3258 -0.2502 -0.3041
33413SOL    HW1 2777  -0.028   9.103   5.740  0.7665 -1.4603 -1.3592
33413SOL    HW2 2778   0.036   8.987   5.813  0.8144 -0.1286  0.7652
33414SOL     OW 2779   9.751   3.105   9.474  0.3547  0.0379 -0.2119
33414SOL    HW1 2780   9.844   3.125   9.485  0.1718  0.1633  1.1655
33414SOL    HW2 2781   9.734   3.122   9.381  1.9075 -0.8670 -0.6816
33415SOL     OW 2782   4.315   1.544   4.194  0.1557 -0.4294 -0.1262
33415SOL    HW1 2783   4.318   1.607   4.123  0.4988 -0.2005  0.0918
33415SOL    HW2 2784   4.404   1.543   4.229  0.0761 -0.8031  0.0703
33416SOL     OW 2785   4.277   1.349   5.637  0.8611  0.5923 -0.6258
33416SOL    HW1 2786   4.224   1.417   5.677 -0.1783  0.1722 -1.2551
33416SOL    HW2 2787   4.265   1.272   5.693 -0.3361  0.0967 -1.5246
33417SOL     OW 2788   4.221   8.364   4.208 -0.4734 -0.0164  0.1980
33417SOL    HW1 2789   4.160   8.436   4.222 -0.2893  0.5868 -1.8230
33417SOL    HW2 2790   4.244   8.334   4.295 -1.6575  1.4485  1.0366
33418SOL     OW 2791   6.229   6.998   5.183 -0.0036 -0.1399 -0.2343
33418SOL    HW1 2792   6.175   6.992   5.105 -0.8352 -2.0348  0.4433
33418SOL    HW2 2793   6.168   7.026   5.252  0.9678  2.6796 -0.4811
33419SOL     OW 2794   6.871   1.191   6.095 -0.1536 -0.5489  0.6386
33419SOL    HW1 2795   6.776   1.179   6.088 -0.0454 -0.5831 -0.8504
33419SOL    HW2 2796   6.907   1.122   6.040  0.8164 -2.0210  3.0117
33420SOL     OW 2797   7.328   0.687   9.944 -0.3715 -0.2986  0.4500
33420SOL    HW1 2798   7.277   0.738  10.007  0.2128  0.2133  0.5095
33420SOL    HW2 2799   7.350   0.607   9.992  0.5995  0.3570  1.1205
33421SOL     OW 2800   4.364   1.293   3.203  0.0568 -0.7086 -0.0778
33421SOL    HW1 2801   4.348   1.250   3.287  1.2941  0.6246  0.8602
33421SOL    HW2 2802   4.339   1.228   3.137  1.5118 -2.7145  1.3100
33422SOL     OW 2803   2.058   4.471   3.554  0.5981  0.1445 -0.0797
33422SOL    HW1 2804   1.963   4.464   3.545  0.7257  0.5564 -1.9853
33422SOL    HW2 2805   2.081   4.548   3.502  1.9066  0.4342  0.9223
33423SOL     OW 2806   2.560   9.915   9.795  0.1715  0.2152 -0.8910
33423SOL    HW1 2807   2.623   9.986   9.781 -0.1399 -0.0742 -4.2279
33423SOL    HW2 2808   2.485   9.957   9.836 -0.0380  1.8828 -2.9091
33424SOL     OW 2809   8.952   5.865   0.137 -0.2765 -0.5205 -0.4361
33424SOL    HW1 2810   9.012   5.917   0.084  1.3086 -1.3791  0.4751
33424SOL    HW2 2811   8.916   5.926   0.201  0.0181 -0.1098 -0.6642
33425SOL     OW 2812   9.494   1.027   7.850  0.2706  0.1381  0.1060
33425SOL    HW1 2813   9.537   1.101   7.807 -1.1738 -0.0439 -1.6881
33425SOL    HW2 2814   9.557   0.956   7.846  1.0718  0.8126  0.4780
33426SOL     OW 2815   6.602   1.951   5.517  0.0461 -0.1944 -0.1246
33426SOL    HW1 2816   6.619   1.859   5.497 -0.4090 -0.2773 -0.1389
33426SOL    HW2 2817   6.675   1.998   5.477 -0.3402 -0.4449 -1.1496
33427SOL     OW 2818   7.479   9.246   8.572  0.2342  0.8049  0.9499
33427SOL    HW1 2819   7.572   9.223   8.575  0.4015  1.2580 -0.2924
33427SOL    HW2 2820   7.436   9.165   8.546  0.5093  1.1176 -0.5120
33428SOL     OW 2821   9.700   8.245   0.311 -0.4740  0.1684 -0.3559
33428SOL    HW1 2822   9.683   8.162   0.266 -0.9495 -0.0895  0.3034
33428SOL    HW2 2823   9.625   8.300   0.289  0.1581  0.6568 -1.3302
33429SOL     OW 2824   4.307   2.406   4.981 -0.1624 -0.6433  0.0565
33429SOL    HW1 2825   4.358   2.341   4.933  0.9950  0.4798 -0.2287
33429SOL    HW2 2826   4.237   2.432   4.921  0.1786 -0.6164 -0.3247
33430SOL     OW 2827   5.096   9.144   9.320 -0.2570 -0.0265 -0.2543
33430SOL    HW1 2828   5.111   9.050   9.309 -1.9792 -0.4582  0.7959
33430SOL    HW2 2829   5.157   9.170   9.389 -1.7687 -1.0206  1.5137
33431SOL     OW 2830   2.534   0.757   4.919 -0.4704  0.0113 -0.2121
33431SOL    HW1 2831   2.480   0.805   4.856  0.3266  1.7614  0.3940
33431SOL    HW2 2832   2.565   0.825   4.980  0.7684 -1.2737  0.6132
33432SOL     OW 2833   6.390  10.091   5.605 -0.5088  0.1337 -0.3542
33432SOL    HW1 2834   6.453  10.073   5.535 -2.7653  0.4404 -2.4938
33432SOL    HW2 2835   6.369  10.183   5.596 -0.7954  0.1934  0.7999
33433SOL     OW 2836   3.146   4.759   1.569  0.0117  0.3733 -0.2588
33433SOL    HW1 2837   3.106   4.846   1.574  1.5269  1.4169 -4.2277
33433SOL    HW2 2838   3.233   4.775   1.532  0.7878 -2.7199  0.1276
33434SOL     OW 2839   7.740   5.697   3.839  0.4038 -0.1377 -0.2572
33434SOL    HW1 2840   7.763   5.706   3.931 -1.2698  1.1590  0.0482
33434SOL    HW2 2841   7.661   5.642   3.840 -0.3078  0.8616 -0.8145
33435SOL     OW 2842   3.785   0.664   1.751 -0.0070 -0.9103 -0.8786
33435SOL    HW1 2843   3.735   0.677   1.671 -0.1550  2.1745 -0.3344
33435SOL    HW2 2844   3.848   0.736   1.752 -0.5845 -0.3796  2.1924
33436SOL     OW 2845   2.251   9.106   8.066 -0.3218  0.2001  0.1667
33436SOL    HW1 2846   2.205   9.053   8.002 -0.4130  1.1853 -0.5995
33436SOL    HW2 2847   2.332   9.132   8.022 -0.0069  0.2076  0.7437
33437SOL     OW 2848   5.066   1.998   6.729  0.0534 -0.0893  0.3070
33437SOL    HW1 2849   5.132   1.931   6.710  0.1937  0.5466 -1.5279
33437SOL    HW2 2850   5.114   2.081   6.719 -0.9422  0.3686 -0.7490
33438SOL     OW 2851   5.277   1.098   3.917  0.2716 -0.0934 -0.0089
33438SOL    HW1 2852   5.301   1.064   3.831 -0.7891  1.0193 -0.7814
33438SOL    HW2 2853   5.305   1.190   3.915  0.3973 -0.1073  0.9002
33439SOL     OW 2854   9.188   2.724   6.035 -0.5154  0.4782 -0.3510
33439SOL    HW1 2855   9.142   2.769   6.106 -0.0161  0.3978  0.0221
33439SOL    HW2 2856   9.154   2.634   6.038  0.0668  0.2722  0.2837
33440SOL     OW 2857   7.547   1.103   0.832  0.1733  0.2972 -0.0115
33440SOL    HW1 2858   7.473   1.075   0.886  2.3732 -3.7034  1.1621
33440SOL    HW2 2859   7.607   1.146   0.893  0.3925  0.3562 -0.2666
33441SOL     OW 2860   9.080   2.899   7.218 -0.0511 -1.0334  0.8339
33441SOL    HW1 2861   9.154   2.922   7.273  0.1562  0.9139 -0.2241
33441SOL    HW2 2862   9.070   2.973   7.158 -0.1837 -3.1216 -1.8309
33442SOL     OW 2863   5.254   6.886   6.938 -0.0707 -0.2766  0.1248
33442SOL    HW1 2864   5.165   6.914   6.919  0.2863  1.2219  0.6007
33442SOL    HW2 2865   5.299   6.891   6.853 -0.2307 -0.2717  0.0397
33443SOL     OW 2866   8.579   5.995   8.446  0.5378 -0.7470  0.1486
33443SOL    HW1 2867   8.483   6.006   8.445  0.7104  0.9924  1.5264
33443SOL    HW2 2868   8.595   5.924   8.383 -1.3589  1.2698 -2.7415
33444SOL     OW 2869   2.471   2.525   2.861  0.0503 -0.1078 -0.1653
33444SOL    HW1 2870   2.458   2.432   2.883  0.2612 -0.5656 -1.8987
33444SOL    HW2 2871   2.557   2.546   2.898  0.1107 -0.6772  0.0319
33445SOL     OW 2872   6.645   5.607   7.799  0.0933  0.9754  0.8666
33445SOL    HW1 2873   6.729   5.586   7.758 -0.1711  0.1653  0.7397
33445SOL    HW2 2874   6.646   5.558   7.881 -0.7460  0.0495  0.3292
33446SOL     OW 2875   9.085   4.474   6.258  0.0744  0.3245 -0.2373
33446SOL    HW1 2876   9.100   4.406   6.323  0.6663  0.7175  0.0465
33446SOL    HW2 2877   9.153   4.539   6.275 -0.9679  1.3698  0.0288
33447SOL     OW 2878   3.326   9.498   5.961 -0.2067  0.7667  0.0277
33447SOL    HW1 2879   3.340   9.592   5.952  2.1892  0.3991 -0.5430
33447SOL    HW2 2880   3.291   9.486   6.049  0.1115  2.1326  0.3393
33448SOL     OW 2881   1.891   5.172   3.813  0.6004 -0.6429 -0.0486
33448SOL    HW1 2882   1.917   5.255   3.772 -0.3729  0.4747  1.4959
33448SOL    HW2 2883   1.813   5.145   3.765 -0.1908  0.3508  0.6355
33449SOL     OW 2884   8.471   9.578   3.177 -0.6782  0.5250  0.2419
33449SOL    HW1 2885   8.382   9.555   3.151 -0.2010 -0.6953 -0.3139
33449SOL    HW2 2886   8.522   9.498   3.165  0.5881  1.3187  0.1695
33450SOL     OW 2887   8.474   5.238   6.573  0.3495 -0.3677  0.2328
33450SOL    HW1 2888   8.381   5.215   6.577  0.2866 -0.2993 -0.7682
33450SOL    HW2 2889   8.476   5.334   6.580  0.3988 -0.4264  1.0568
33451SOL     OW 2890   3.086   5.387   3.313 -0.1048 -0.2692  0.0057
33451SOL    HW1 2891   3.013   5.339   3.273 -0.0324  0.1189 -0.5819
33451SOL    HW2 2892   3.163   5.335   3.291 -0.0018  0.2385 -0.8091
33452SOL     OW 2893   9.056   4.074   9.612 -0.2456  0.0662  0.1448
33452SOL    HW1 2894   8.966   4.095   9.587 -0.1964 -1.4241 -1.3615
33452SOL    HW2 2895   9.107   4.091   9.533  0.7669  0.6554  0.9246
33453SOL     OW 2896   5.217   4.267   0.978 -0.8079 -0.5364 -0.6491
33453SOL    HW1 2897   5.230   4.229   1.065 -1.3867 -1.2634 -0.8734
33453SOL    HW2 2898   5.165   4.345   0.993 -1.7226 -1.1782 -0.4351
33454SOL     OW 2899   1.346   1.504   0.817 -0.3485  0.1353 -0.2633
33454SOL    HW1 2900   1.411   1.455   0.767  1.9167  3.0421 -0.2801
33454SOL    HW2 2901   1.361   1.479   0.908  0.3924  0.3139 -0.3350
33455SOL     OW 2902   1.093   1.251   2.670 -0.1903  0.4094  0.8527
33455SOL    HW1 2903   1.069   1.202   2.749  2.2084  0.3754  1.6235
33455SOL    HW2 2904   1.141   1.188   2.617 -2.0948  0.3404 -0.8388
33456SOL     OW 2905   9.470  10.183   1.651 -0.6669  0.1119 -0.0665
33456SOL    HW1 2906   9.495  10.114   1.590 -1.9360 -0.6685  0.2773
33456SOL    HW2 2907   9.391  10.221   1.613 -1.8022 -0.7678  1.3679
33457SOL     OW 2908   5.882   4.387   2.021 -0.3554  0.3168 -0.6146
33457SOL    HW1 2909   5.825   4.341   2.083 -1.9571  0.2822 -2.0713
33457SOL    HW2 2910   5.882   4.478   2.051 -0.9504  0.2622 -0.4344
33458SOL     OW 2911   3.318   1.043   0.414 -0.1433  0.1539  0.2243
33458SOL    HW1 2912   3.401   1.075   0.450 -0.0341  0.4016 -0.2362
33458SOL    HW2 2913   3.313   0.951   0.440  0.2211  0.1714  0.3522
33459SOL     OW 2914   6.070   3.120   8.222  0.3559  0.3350 -0.3174
33459SOL    HW1 2915   6.020   3.194   8.188  0.9310  1.0365  0.3475
33459SOL    HW2 2916   6.112   3.082   8.145 -1.5203 -0.5198 -0.9452
33460SOL     OW 2917   9.145   9.888   0.737  0.3829 -0.2102 -0.5277
33460SOL    HW1 2918   9.062   9.847   0.712 -0.4215  1.6751 -1.0316
33460SOL    HW2 2919   9.120   9.974   0.771  2.2107  0.8610 -1.8013
33461SOL     OW 2920   8.292   2.833   3.301 -0.4959 -0.5421 -0.0312
33461SOL    HW1 2921   8.273   2.874   3.217 -1.9672 -0.9685  0.0807
33461SOL    HW2 2922   8.321   2.744   3.278 -1.6856 -0.9270 -0.0473
33462SOL     OW 2923   5.675   7.641   8.981 -0.0402  0.1468 -0.1541
33462SOL    HW1 2924   5.600   7.649   9.040  1.1694  1.9378  1.2493
33462SOL    HW2 2925   5.695   7.548   8.979 -1.2130 -0.1336  0.8728
33463SOL     OW 2926   8.883   0.878   8.065 -0.0879 -1.0078  0.3932
33463SOL    HW1 2927   8.896   0.795   8.020  0.5891 -1.4860  1.4437
33463SOL    HW2 2928   8.802   0.866   8.115 -1.7488  0.1076 -1.9815
33464SOL     OW 2929   5.821   8.506   7.072  0.1744  0.4115  0.5266
33464SOL    HW1 2930   5.906   8.505   7.029 -0.3783 -2.0549 -0.6406
33464SOL    HW2 2931   5.801   8.599   7.085  1.8288  1.1030 -1.6233
33465SOL     OW 2932   0.238   7.644   9.203 -0.2532 -0.3953 -0.2243
33465SOL    HW1 2933   0.299   7.587   9.250  1.8054  0.3701 -1.8662
33465SOL    HW2 2934   0.251   7.730   9.243  1.2945  0.1987 -1.9049
33466SOL     OW 2935   6.163   3.347   5.740  0.5678  0.1303 -0.1553
33466SOL    HW1 2936   6.085   3.350   5.795 -0.3581  0.1886 -1.4655
33466SOL    HW2 2937   6.175   3.436   5.709  1.3098  0.1758  0.2439
33467SOL     OW 2938   8.104   2.448   7.218 -0.0635  0.0044 -0.6519
33467SOL    HW1 2939   8.012   2.457   7.240 -0.1313  0.1759 -1.0004
33467SOL    HW2 2940   8.141   2.536   7.231  0.2710 -0.2934  0.4846
33468SOL     OW 2941   8.335   9.746   7.144  0.1436  0.0875  0.3942
33468SOL    HW1 2942   8.350   9.781   7.057  0.0917  1.1340  0.8049
33468SOL    HW2 2943   8.367   9.813   7.204 -2.9332  0.8979  1.2432
33469SOL     OW 2944   9.655   7.228   1.392 -0.6464  0.2084 -0.2650
33469SOL    HW1 2945   9.671   7.214   1.486 -0.8800  0.0651 -0.2465
33469SOL    HW2 2946   9.723   7.175   1.349  0.2259  1.2288 -0.1661
33470SOL     OW 2947   3.968   6.400   7.387  0.5135 -0.3956 -0.2304
33470SOL    HW1 2948   3.999   6.463   7.323 -0.2743  0.1589 -0.0791
33470SOL    HW2 2949   3.971   6.447   7.471 -1.2202 -0.1290 -0.2877
33471SOL     OW 2950  10.104   9.117   3.945 -0.0444  0.0292  0.1443
33471SOL    HW1 2951  10.148   9.069   4.016  0.0505  0.6539  0.5130
33471SOL    HW2 2952  10.150   9.091   3.866  0.5476  0.1451  0.4443
33472SOL     OW 2953   6.373   4.305   6.350 -0.1794 -0.7153  0.0476
33472SOL    HW1 2954   6.324   4.238   6.303 -0.8248 -0.9070  0.9829
33472SOL    HW2 2955   6.331   4.310   6.436 -0.7520  1.5508 -0.3295
33473SOL     OW 2956  10.117   0.569   4.358  0.4613  0.4369 -0.1008
33473SOL    HW1 2957  10.027   0.593   4.336 -0.0834 -0.8770  0.6244
33473SOL    HW2 2958  10.152   0.534   4.277 -0.4338 -1.1703  0.1753
33474SOL     OW 2959   3.900   9.771   4.827 -0.8149 -0.2662  0.7686
33474SOL    HW1 2960   3.903   9.866   4.841 -3.0239 -0.0666  0.1138
33474SOL    HW2 2961   3.907   9.733   4.914  1.1456  0.4348  0.9521
33475SOL     OW 2962   6.365   1.639   5.550 -0.3200 -0.0945  0.1348
33475SOL    HW1 2963   6.304   1.598   5.611  0.4519  1.8307  2.2331
33475SOL    HW2 2964   6.319   1.637   5.466 -2.5588 -0.2253  1.3288
33476SOL     OW 2965   7.115   0.457   8.105 -0.1201  0.2769  0.3130
33476SOL    HW1 2966   7.170   0.484   8.179  0.2364 -0.1120  0.1896
33476SOL    HW2 2967   7.046   0.404   8.144  0.6829 -0.8305  0.2374
33477SOL     OW 2968   8.465   8.715   9.249 -0.2832 -0.2007 -0.1114
33477SOL    HW1 2969   8.502   8.658   9.181  2.0010  1.3523 -0.2380
33477SOL    HW2 2970   8.517   8.796   9.243 -2.9394  1.6158  0.5754
33478SOL     OW 2971   7.017   2.581   5.557  0.1746  0.2958  0.0873
33478SOL    HW1 2972   6.996   2.657   5.612  0.3807 -2.1962  3.8364
33478SOL    HW2 2973   7.109   2.591   5.536 -0.1788  1.8720 -0.7878
33479SOL     OW 2974   0.010   9.605   8.504  0.0263  0.0756  0.0478
33479SOL    HW1 2975   0.020   9.513   8.529 -0.5416  0.1460  0.5519
33479SOL    HW2 2976   0.061   9.654   8.569  0.1849  0.1290 -0.1159
33480SOL     OW 2977   2.983   7.087   5.895  0.2518 -0.2192 -0.0722
33480SOL    HW1 2978   2.977   7.119   5.804 -1.0622 -0.3890 -0.0542
33480SOL    HW2 2979   3.046   7.016   5.891  0.3480 -0.1016 -0.8305
33481SOL     OW 2980   7.423   3.500   6.754 -0.5237 -0.2073  0.0312
33481SOL    HW1 2981   7.468   3.584   6.765  0.0792 -0.5335  0.1203
33481SOL    HW2 2982   7.332   3.523   6.739 -0.5393  0.4274  1.0598
33482SOL     OW 2983   2.693   5.273   1.110  0.2850 -0.3871 -0.1337
33482SOL    HW1 2984   2.625   5.263   1.044  0.2575  2.4370 -0.6165
33482SOL    HW2 2985   2.647   5.312   1.185  0.7366 -1.5860  0.7830
33483SOL     OW 2986  10.034   9.936   8.036 -1.3919 -0.3286  0.2802
33483SOL    HW1 2987  10.064  10.026   8.048 -2.6283  0.0097  0.9054
33483SOL    HW2 2988   9.984   9.916   8.115 -0.6416 -1.7702  0.4124
33484SOL     OW 2989   1.763   8.090   1.628 -0.0778 -0.8001 -0.2538
33484SOL    HW1 2990   1.800   8.023   1.570  1.6691  0.6692 -0.8781
33484SOL    HW2 2991   1.838   8.141   1.657 -1.4079  1.1195 -0.0695
33485SOL     OW 2992   6.364   5.025   9.420  0.5818 -0.0302 -0.2295
33485SOL    HW1 2993   6.450   5.026   9.461  0.9522 -0.2068 -0.9858
33485SOL    HW2 2994   6.359   4.941   9.375 -0.1442 -0.1912  0.1365
33486SOL     OW 2995   6.279   6.801   4.386  0.8528 -0.2696  0.0564
33486SOL    HW1 2996   6.331   6.873   4.420  0.7191 -0.0940 -0.1061
33486SOL    HW2 2997   6.338   6.726   4.385  0.8687 -0.2655  0.6274
33487SOL     OW 2998   8.103   5.003   9.183  0.3505 -0.4559 -0.0289
33487SOL    HW1 2999   8.112   4.959   9.099  1.5504 -0.7469  0.2453
33487SOL    HW2 3000   8.191   5.003   9.220  0.1734  1.2226  0.4422
33488SOL     OW 3001   6.118   3.105   3.528  0.0392 -0.0053 -0.1955
33488SOL    HW1 3002   6.123   3.171   3.458  1.5100  1.0481  0.8653
33488SOL    HW2 3003   6.047   3.136   3.584 -0.9351 -0.6834 -1.0451
33489SOL     OW 3004   0.303   6.209   9.575 -0.6042  0.0318  0.6431
33489SOL    HW1 3005   0.328   6.247   9.491 -1.2545 -0.1014  0.3894
33489SOL    HW2 3006   0.375   6.149   9.596 -1.2099 -1.1741 -0.6127
33490SOL     OW 3007   7.290   0.497   5.191  0.2382 -0.3851 -0.4902
33490SOL    HW1 3008   7.273   0.444   5.114 -1.2873  0.1533 -0.5441
33490SOL    HW2 3009   7.383   0.518   5.186 -0.0592  0.5045 -2.7496
33491SOL     OW 3010   2.470   0.141   6.032 -0.2796  0.4296 -0.1861
33491SOL    HW1 3011   2.478   0.141   5.937  0.1722  1.2127 -0.1429
33491SOL    HW2 3012   2.377   0.160   6.048 -0.1884  1.0962 -0.4523
33492SOL     OW 3013   7.718   1.018   6.699 -0.7512  0.3124 -1.0508
33492SOL    HW1 3014   7.714   0.995   6.791 -1.8008  0.5193 -1.0380
33492SOL    HW2 3015   7.786   0.961   6.662  0.0495  0.6147 -0.0489
33493SOL     OW 3016   1.682   6.390   9.486  0.5334 -0.1467 -0.5867
33493SOL    HW1 3017   1.663   6.474   9.529  0.4372 -0.2496 -0.4280
33493SOL    HW2 3018   1.638   6.325   9.541  0.0012 -0.2310 -1.1059
33494SOL     OW 3019   7.127   6.665   4.630 -0.2716 -0.4498  0.2277
33494SOL    HW1 3020   7.127   6.677   4.535  1.5336 -0.9916  0.1583
33494SOL    HW2 3021   7.150   6.751   4.665  0.8000 -0.6995  0.1240
33495SOL     OW 3022   1.820   1.437   9.157  0.5187 -1.0181  0.4425
33495SOL    HW1 3023   1.910   1.470   9.154 -0.3470  1.2725 -1.1372
33495SOL    HW2 3024   1.772   1.503   9.207 -0.6799 -1.2184 -0.4197
33496SOL     OW 3025   9.861   2.946   8.949 -0.0686  0.2466 -0.5505
33496SOL    HW1 3026   9.906   3.012   8.896  0.1719 -0.2436 -0.9603
33496SOL    HW2 3027   9.786   2.920   8.895 -0.8574  1.0607  0.1274
33497SOL     OW 3028   9.102   7.994   1.549  0.1924 -0.5418 -0.2527
33497SOL    HW1 3029   9.095   8.086   1.573  1.3515 -1.3518  3.5602
33497SOL    HW2 3030   9.176   7.990   1.488  1.1982  0.8625  0.8407
33498SOL     OW 3031   2.098   9.507   0.794  0.1753 -0.5603 -0.3714
33498SOL    HW1 3032   2.139   9.422   0.809 -0.2478 -0.5456  0.9639
33498SOL    HW2 3033   2.097   9.549   0.881 -0.0152  0.6234 -0.9325
33499SOL     OW 3034   2.717   1.618   2.190 -0.3859 -0.1608 -0.0935
33499SOL    HW1 3035   2.711   1.680   2.263  0.0936 -1.3401  0.9545
33499SOL    HW2 3036   2.708   1.673   2.112  0.5496  1.3061  0.7967
33500SOL     OW 3037   3.014   8.292   1.482 -0.0787 -0.3420 -0.0234
33500SOL    HW1 3038   2.978   8.312   1.396 -1.5601  1.7987  1.0674
33500SOL    HW2 3039   2.970   8.211   1.508 -1.4513  0.3196 -0.2503
33501SOL     OW 3040   2.616   8.949   1.424 -0.6027 -0.1857 -0.2424
33501SOL    HW1 3041   2.563   8.930   1.501 -1.7728  2.4981 -0.3409
33501SOL    HW2 3042   2.703   8.967   1.459 -0.9309  0.2205  0.3670
33502SOL     OW 3043   0.184   7.432   2.872 -0.4896  0.4735 -0.2661
33502SOL    HW1 3044   0.167   7.340   2.852  0.5188 -0.2409  2.0607
33502SOL    HW2 3045   0.098   7.474   2.866 -0.7892 -0.3745 -2.4037
33503SOL     OW 3046   9.661   6.998   5.281  0.2058 -0.4010  0.2393
33503SOL    HW1 3047   9.597   6.952   5.227  1.1018 -1.4286  0.0310
33503SOL    HW2 3048   9.670   7.084   5.240  1.5569 -1.4878 -1.8259
33504SOL     OW 3049   1.835   7.941   1.341  0.1357  0.0216  0.1703
33504SOL    HW1 3050   1.744   7.912   1.349  0.3807 -1.1419 -1.2044
33504SOL    HW2 3051   1.834   8.003   1.268  0.1687  1.2110  1.1643
33505SOL     OW 3052   1.217   6.929   7.478  0.0318  0.2421 -0.2721
33505SOL    HW1 3053   1.243   6.841   7.451 -1.3073 -0.6838  1.3539
33505SOL    HW2 3054   1.194   6.973   7.396  0.3921 -1.0305 -1.0734
33506SOL     OW 3055   8.469   7.722   8.877  0.4166 -0.2437 -0.1010
33506SOL    HW1 3056   8.496   7.808   8.845 -0.4478  0.1152  0.1086
33506SOL    HW2 3057   8.539   7.695   8.935  1.2486 -0.1954 -1.0574
33507SOL     OW 3058   8.839   2.190   3.032 -0.0897  0.0975  0.3441
33507SOL    HW1 3059   8.903   2.236   2.977  0.1144  0.5692  0.9762
33507SOL    HW2 3060   8.890   2.154   3.105 -0.7179  1.5153  1.5002
33508SOL     OW 3061   5.812   2.791   9.308  0.2583  0.1111  0.1239
33508SOL    HW1 3062   5.821   2.886   9.312  0.9685  0.0345  0.3700
33508SOL    HW2 3063   5.723   2.775   9.341 -0.2930  0.7658 -1.0185
33509SOL     OW 3064   9.814   2.177   9.402  0.0732  0.6399  0.4762
33509SOL    HW1 3065   9.819   2.272   9.413 -0.4953  0.6829  0.3768
33509SOL    HW2 3066   9.865   2.159   9.324  0.4723  0.8243  0.6912
33510SOL     OW 3067   4.104   8.991   0.175  0.2147 -0.0312 -0.6577
33510SOL    HW1 3068   4.079   8.902   0.152  2.0332 -0.2007 -2.1132
33510SOL    HW2 3069   4.101   9.039   0.092  2.6039  0.4059 -0.5343
33511SOL     OW 3070   4.841   4.399   2.300 -0.2591  0.3664  0.3430
33511SOL    HW1 3071   4.782   4.474   2.306 -1.4785 -0.5515 -0.0834
33511SOL    HW2 3072   4.883   4.395   2.386 -2.5368 -0.3618  1.4594
33512SOL     OW 3073   3.271  10.034   9.241  0.2051 -0.1441  0.6696
33512SOL    HW1 3074   3.356  10.074   9.221  0.7707 -1.4709  0.3039
33512SOL    HW2 3075   3.275   9.948   9.199 -0.6566 -0.9023  2.0775
33513SOL     OW 3076  10.072   7.505   0.586  0.3035  0.0488  0.2942
33513SOL    HW1 3077   9.979   7.481   0.577  0.1865  1.4671 -2.5864
33513SOL    HW2 3078  10.074   7.562   0.663 -1.1486 -0.2679  0.5860
33514SOL     OW 3079   3.777   7.449   9.717 -0.2004  0.0449  0.0154
33514SOL    HW1 3080   3.763   7.430   9.810 -0.0523 -1.8209 -0.3139
33514SOL    HW2 3081   3.702   7.409   9.674  0.2685 -0.0185 -0.7465
33515SOL     OW 3082   0.093   2.286   4.677 -0.4102  0.1167 -0.0874
33515SOL    HW1 3083   0.129   2.345   4.611 -2.1868 -0.3191 -1.5032
33515SOL    HW2 3084   0.003   2.317   4.690 -0.3105 -0.2598  1.5986
33516SOL     OW 3085   8.502   7.485   1.837  0.0745  0.1042 -0.4463
33516SOL    HW1 3086   8.503   7.403   1.885 -0.7743  0.5612  0.3507
33516SOL    HW2 3087   8.594   7.500   1.815  0.1454 -1.4607 -1.3103
33517SOL     OW 3088   2.766   0.551   7.071  0.1464  0.0931  0.3405
33517SOL    HW1 3089   2.695   0.599   7.114  0.0415  0.3648 -0.1314
33517SOL    HW2 3090   2.843   0.606   7.084  0.2967 -0.2545  0.9477
33518SOL     OW 3091   6.255   8.371   6.396 -0.4821 -0.0135 -0.4865
33518SOL    HW1 3092   6.245   8.343   6.305 -0.8832  0.5153 -0.6093
33518SOL    HW2 3093   6.318   8.443   6.393  0.1472 -0.5534 -0.2400
33519SOL     OW 3094   7.670   7.122   3.790  0.6546 -0.1666 -0.1125
33519SOL    HW1 3095   7.674   7.096   3.882  0.2307  1.8702  0.5050
33519SOL    HW2 3096   7.619   7.052   3.748  1.1037 -1.2704  1.1174
33520SOL     OW 3097   5.127   7.411   6.494  0.1146  0.2182 -0.3443
33520SOL    HW1 3098   5.191   7.378   6.432  0.8861 -0.7119  0.9226
33520SOL    HW2 3099   5.083   7.483   6.448  0.3155 -0.7740 -2.1368
33521SOL     OW 3100   4.372   1.633   9.069  0.3114  0.5834  0.4443
33521SOL    HW1 3101   4.293   1.687   9.075 -0.1449  0.0545 -0.8236
33521SOL    HW2 3102   4.342   1.543   9.080  0.7773  0.3961  0.2250
33522SOL     OW 3103   5.196   1.527   5.931  0.5380  0.3782  0.2309
33522SOL    HW1 3104   5.107   1.523   5.895  0.5081  1.4728  0.1811
33522SOL    HW2 3105   5.202   1.451   5.989 -0.6609  0.6901  0.7637
33523SOL     OW 3106   4.610   0.864   1.612  0.2509 -0.2238 -0.1657
33523SOL    HW1 3107   4.548   0.841   1.542  0.0478  0.4300 -0.1991
33523SOL    HW2 3108   4.596   0.957   1.627  0.1769 -0.3947  0.8695
33524SOL     OW 3109   6.069   7.671   1.515 -0.1272 -0.0539 -0.6070
33524SOL    HW1 3110   6.058   7.741   1.451  0.5000  0.2319 -0.4034
33524SOL    HW2 3111   6.146   7.696   1.565 -1.4178  0.4339  1.1979
33525SOL     OW 3112   7.929   4.367  10.097 -0.1858 -0.1958 -0.0296
33525SOL    HW1 3113   7.919   4.446  10.149  2.2580  0.0475  0.1052
33525SOL    HW2 3114   7.907   4.296  10.157  2.0298  0.1177  1.1899
33526SOL     OW 3115   5.765   8.315   1.534  0.1954  0.6206 -0.5731
33526SOL    HW1 3116   5.733   8.234   1.574 -0.1862 -0.1234 -2.3524
33526SOL    HW2 3117   5.719   8.385   1.580  0.3799 -0.1795  0.8486
33527SOL     OW 3118   0.988   8.104   9.215 -0.1949 -0.2388 -0.1323
33527SOL    HW1 3119   1.018   8.030   9.268 -1.3063 -0.7252 -0.1525
33527SOL    HW2 3120   1.046   8.176   9.238  1.3053 -1.2939 -0.5793
33528SOL     OW 3121   6.663   9.377   9.356 -0.1533 -0.3710 -0.1670
33528SOL    HW1 3122   6.645   9.330   9.438  3.4123  0.9074  1.4423
33528SOL    HW2 3123   6.755   9.360   9.338 -0.1053  1.8522 -2.2631
33529SOL     OW 3124   6.187   9.648   1.210 -0.0958  0.6521  0.2776
33529SOL    HW1 3125   6.235   9.697   1.276 -2.3322  1.2610  1.4943
33529SOL    HW2 3126   6.122   9.599   1.259 -2.0230  1.3761 -1.4672
33530SOL     OW 3127   1.682   5.811   0.391  0.2102  0.0048 -0.4204
33530SOL    HW1 3128   1.710   5.805   0.300  1.6113 -0.5066  0.0376
33530SOL    HW2 3129   1.710   5.898   0.419  2.1581 -0.8394  0.2984
33531SOL     OW 3130   9.102   1.067   9.183 -0.5686 -0.4716 -0.5149
33531SOL    HW1 3131   9.194   1.065   9.210 -0.1098  2.4865 -1.6813
33531SOL    HW2 3132   9.105   1.090   9.090 -2.5170  1.5256 -0.1191
33532SOL     OW 3133   4.105   9.598   9.267  0.2309  0.5647  0.4834
33532SOL    HW1 3134   4.049   9.629   9.196 -0.6326 -0.0181  0.9004
33532SOL    HW2 3135   4.193   9.629   9.244  0.3605 -1.4945 -1.9868
33533SOL     OW 3136   6.503   4.447   7.603 -0.2288 -0.1309  0.4840
33533SOL    HW1 3137   6.584   4.419   7.561 -0.6126 -1.9205  0.8528
33533SOL    HW2 3138   6.438   4.445   7.533  0.0095  1.1359  0.2256
33534SOL     OW 3139   0.791   9.357   8.820 -0.5644  0.3617 -0.4140
33534SOL    HW1 3140   0.874   9.387   8.856 -0.5864 -0.0619 -0.0109
33534SOL    HW2 3141   0.725   9.417   8.856 -0.1847  2.0949 -2.4944
33535SOL     OW 3142   9.696   0.106   7.131  0.0482  0.4568 -0.1539
33535SOL    HW1 3143   9.631   0.157   7.083 -0.3350  0.3500  0.2426
33535SOL    HW2 3144   9.708   0.154   7.213  1.3954  1.1480 -0.7435
33536SOL     OW 3145   1.472   7.566   0.750 -0.6072  0.1821  0.4669
33536SOL    HW1 3146   1.528   7.528   0.682  0.8153  1.6910  0.7863
33536SOL    HW2 3147   1.463   7.658   0.726 -1.9549  0.2385  1.1039
33537SOL     OW 3148   8.459   4.965   7.678  0.6856 -0.8366 -0.2760
33537SOL    HW1 3149   8.546   4.941   7.646  0.7235 -0.2653 -0.6167
33537SOL    HW2 3150   8.399   4.909   7.628  0.7938 -0.5012 -0.7872
33538SOL     OW 3151   5.345   0.117   7.907 -0.2440  0.2823  0.2106
33538SOL    HW1 3152   5.294   0.190   7.942 -0.5789  1.1676 -2.0200
33538SOL    HW2 3153   5.389   0.079   7.983 -1.9805  1.2837  1.7498
33539SOL     OW 3154   7.165   2.390   7.098  0.0541 -0.2097  0.3676
33539SOL    HW1 3155   7.201   2.478   7.085 -1.1232  0.3191  0.6711
33539SOL    HW2 3156   7.167   2.350   7.011  0.3943  0.1944  0.1910
33540SOL     OW 3157   7.695   6.571   7.913  0.1690 -0.3055 -0.0828
33540SOL    HW1 3158   7.626   6.623   7.955 -0.9731 -0.2795 -1.8989
33540SOL    HW2 3159   7.683   6.483   7.948 -0.0764 -0.0651  0.4481
33541SOL     OW 3160   6.837   3.161   0.285 -0.0058  0.3950  0.2747
33541SOL    HW1 3161   6.889   3.199   0.215 -0.1009 -2.2760 -1.3023
33541SOL    HW2 3162   6.881   3.079   0.306 -2.9151 -1.3878 -0.3172
33542SOL     OW 3163  10.109   3.683   2.647  0.1006  0.2431 -0.2274
33542SOL    HW1 3164  10.147   3.740   2.715 -0.8785  2.3881 -1.4162
33542SOL    HW2 3165  10.173   3.684   2.577  0.0143 -0.0067 -0.3085
33543SOL     OW 3166   5.446   8.342   0.397 -0.0572  0.5584  0.0387
33543SOL    HW1 3167   5.442   8.431   0.432  1.1212  0.1947  1.1256
33543SOL    HW2 3168   5.485   8.352   0.310  0.7977  1.0340  0.4671
33544SOL     OW 3169  10.094   3.414   5.300  0.1243  0.4712  0.3450
33544SOL    HW1 3170  10.173   3.444   5.345 -1.3564  2.3694  1.7402
33544SOL    HW2 3171  10.071   3.486   5.242 -1.5008  0.6247  1.1686
33545SOL     OW 3172   2.837   5.219   0.724  0.3792  0.1759  0.4499
33545SOL    HW1 3173   2.925   5.258   0.731  0.3375  0.1920  0.9397
33545SOL    HW2 3174   2.828   5.166   0.803 -0.6875  1.4955  1.2414
33546SOL     OW 3175   5.870   4.534   7.429  0.1633  0.5417 -0.1698
33546SOL    HW1 3176   5.799   4.498   7.377  0.7645 -0.0147 -0.6177
33546SOL    HW2 3177   5.879   4.624   7.398  0.2943  0.3163 -0.8025
33547SOL     OW 3178   4.265   1.746   3.157  0.0750 -0.0394  0.0122
33547SOL    HW1 3179   4.243   1.653   3.166 -1.0679  0.1495 -0.7510
33547SOL    HW2 3180   4.212   1.790   3.223  1.6987 -0.0623  1.3670
33548SOL     OW 3181   2.563   0.713   7.226 -0.1019 -0.1288 -0.0331
33548SOL    HW1 3182   2.581   0.649   7.294  0.1484 -0.0028  0.0201
33548SOL    HW2 3183   2.469   0.727   7.230 -0.4894 -2.1351 -1.5000
33549SOL     OW 3184   1.969   6.213   1.564  0.1057 -0.0152  0.3343
33549SOL    HW1 3185   1.930   6.297   1.590 -0.5368  0.3275 -1.5782
33549SOL    HW2 3186   1.898   6.150   1.573 -0.0611  0.0692 -0.3162
33550SOL     OW 3187   5.209   8.854   7.799  0.2533  0.0663 -0.1869
33550SOL    HW1 3188   5.271   8.841   7.870  0.8331  2.9609 -0.0923
33550SOL    HW2 3189   5.124   8.863   7.842  0.3815  0.3052  0.0135
33551SOL     OW 3190   1.891   0.896   8.367 -0.5468  0.0116 -0.0663
33551SOL    HW1 3191   1.944   0.873   8.291 -0.0385 -2.5047  0.9830
33551SOL    HW2 3192   1.829   0.823   8.376 -1.2768  0.7798  1.2948
33552SOL     OW 3193   8.529   4.169   4.805  0.5839 -0.0512 -0.5605
33552SOL    HW1 3194   8.610   4.212   4.779 -0.2583  1.8228 -0.1681
33552SOL    HW2 3195   8.495   4.223   4.877  0.0618 -1.9899  0.6769
33553SOL     OW 3196   2.247   5.684   5.024  0.4893  0.5025  0.9951
33553SOL    HW1 3197   2.156   5.712   5.033  0.5762  0.8846  0.6873
33553SOL    HW2 3198   2.242   5.589   5.016 -0.3430  0.8468 -4.3269
33554SOL     OW 3199   8.789   2.841   9.525 -0.1864  1.0709  0.6455
33554SOL    HW1 3200   8.878   2.807   9.538 -0.7523 -1.5689 -1.7261
33554SOL    HW2 3201   8.786   2.864   9.432 -2.4586 -0.4816  0.2912
33555SOL     OW 3202   8.054  10.194   9.124 -0.0602  0.3127  0.4298
33555SOL    HW1 3203   8.035  10.207   9.217 -1.2573 -1.8940  0.5164
33555SOL    HW2 3204   7.995  10.255   9.080  0.0369  0.8952  1.0845
33556SOL     OW 3205   2.993   0.476   3.890  0.1421 -0.4581  0.0645
33556SOL    HW1 3206   2.946   0.559   3.902 -1.4196 -1.3507  0.2531
33556SOL    HW2 3207   2.945   0.414   3.944  1.3212 -1.4877 -0.0678
33557SOL     OW 3208   2.053   4.637   9.374  0.0001  0.3670 -0.1926
33557SOL    HW1 3209   2.142   4.602   9.378  0.3148  1.1781 -0.0817
33557SOL    HW2 3210   2.019   4.628   9.463  0.6343  1.7692  0.2027
33558SOL     OW 3211   8.428   6.657   4.021 -0.2854  0.4223  0.3204
33558SOL    HW1 3212   8.425   6.653   3.925 -2.0889  1.1246  0.3196
33558SOL    HW2 3213   8.459   6.745   4.040  2.1803 -0.4448  0.3895
33559SOL     OW 3214   4.862   7.174   5.803 -0.8265  0.0723 -0.3836
33559SOL    HW1 3215   4.809   7.225   5.864  1.3710  0.9070  0.8582
33559SOL    HW2 3216   4.932   7.138   5.856  0.5090 -0.1012 -2.2236
33560SOL     OW 3217   9.112   5.672   6.706 -0.0520 -0.3051  0.4995
33560SOL    HW1 3218   9.023   5.666   6.671 -0.0301 -1.9300  0.6814
33560SOL    HW2 3219   9.101   5.698   6.797 -0.3565 -0.8428  0.6153
33561SOL     OW 3220   8.380   1.889   8.596  0.3844 -0.5825  0.1684
33561SOL    HW1 3221   8.361   1.975   8.559 -0.8086 -0.3465  1.2822
33561SOL    HW2 3222   8.360   1.827   8.526  1.9902  0.0880 -0.8948
33562SOL     OW 3223   0.893   0.365   8.364  0.0175  0.0432  0.6472
33562SOL    HW1 3224   0.811   0.318   8.379 -0.4385  0.3967 -0.7120
33562SOL    HW2 3225   0.899   0.428   8.436 -0.5163 -0.5092  1.1777
33563SOL     OW 3226   3.925   8.423   5.679 -0.0424  0.3525  0.6548
33563SOL    HW1 3227   3.995   8.481   5.709 -0.0408  0.0401  1.2793
33563SOL    HW2 3228   3.853   8.482   5.657  0.3036  0.6537  0.3313
33564SOL     OW 3229   4.828   8.063   0.082  0.2424 -0.4142 -0.3945
33564SOL    HW1 3230   4.877   8.053   0.163 -0.2319  1.9519  0.2148
33564SOL    HW2 3231   4.894   8.078   0.015  0.4448  1.3993  0.1962
33565SOL     OW 3232   7.859   0.820   5.991  0.0211  0.0805  0.0070
33565SOL    HW1 3233   7.891   0.878   6.060  0.3547  0.6197 -0.5910
33565SOL    HW2 3234   7.937   0.777   5.957 -0.1935 -0.5138  0.2538
33566SOL     OW 3235   4.094   0.862   2.997 -0.3338 -0.5007  0.2641
33566SOL    HW1 3236   4.051   0.793   3.048 -0.9459 -0.4055 -0.1086
33566SOL    HW2 3237   4.073   0.841   2.906 -1.6439  0.8789  0.2065
33567SOL     OW 3238   8.181   8.159   0.739  0.3968 -0.3252  0.3131
33567SOL    HW1 3239   8.097   8.206   0.734  1.7955  2.6920  3.1808
33567SOL    HW2 3240   8.225   8.180   0.657  0.1134  1.6931  0.6469
33568SOL     OW 3241   0.100   6.650   6.770  0.0951  0.6963  0.1253
33568SOL    HW1 3242   0.071   6.719   6.711 -0.6877 -1.6259 -2.3046
33568SOL    HW2 3243   0.030   6.642   6.834 -0.4705  1.1441 -0.4364
33569SOL     OW 3244   2.775   4.090   7.638  0.0986  0.6902  0.0976
33569SOL    HW1 3245   2.843   4.086   7.705  0.2914  0.9075 -0.0818
33569SOL    HW2 3246   2.783   4.007   7.590 -0.9435 -0.0733  1.2021
33570SOL     OW 3247   9.252   5.038   8.284  0.2848 -0.6581  0.1608
33570SOL    HW1 3248   9.340   5.076   8.279 -0.6167  1.5724  0.6630
33570SOL    HW2 3249   9.215   5.054   8.197  0.3961 -1.6780 -0.0793
33571SOL     OW 3250   8.836   7.435   7.470 -0.1125 -0.6275 -0.9029
33571SOL    HW1 3251   8.799   7.522   7.485 -0.3330 -1.1499  1.8401
33571SOL    HW2 3252   8.764   7.384   7.434  0.2786  0.5273 -3.4540
33572SOL     OW 3253   7.735   9.675   5.344  0.2426 -0.4101 -0.6007
33572SOL    HW1 3254   7.682   9.720   5.410 -1.5167  0.8098 -2.8045
33572SOL    HW2 3255   7.699   9.586   5.341  1.2138 -0.8842  1.0094
33573SOL     OW 3256   5.937   3.800   2.059  0.6438 -0.3655  0.2892
33573SOL    HW1 3257   5.944   3.891   2.090  1.5491  0.0791 -1.1869
33573SOL    HW2 3258   5.845   3.791   2.034  0.8352  0.5569 -0.7898
33574SOL     OW 3259   4.145   6.009   9.405  0.2952  0.0235  0.4438
33574SOL    HW1 3260   4.188   6.089   9.435  2.0618 -0.1978 -1.4077
33574SOL    HW2 3261   4.082   5.989   9.474  0.7685  2.2594  1.5802
33575SOL     OW 3262   6.625   2.977   5.745  0.3323 -0.7226  0.0637
33575SOL    HW1 3263   6.689   2.958   5.677  0.4885  0.0626 -0.0203
33575SOL    HW2 3264   6.559   3.032   5.702  0.3469 -0.3532  0.4976
33576SOL     OW 3265   9.444   0.051   6.138  0.2290  0.0796  0.0163
33576SOL    HW1 3266   9.361   0.052   6.185  0.1776 -1.0358 -0.0387
33576SOL    HW2 3267   9.466  -0.042   6.129 -0.0365  0.2465 -2.6687
33577SOL     OW 3268   5.104   5.665   7.685 -0.6201  0.2645 -0.4411
33577SOL    HW1 3269   5.117   5.571   7.701  0.9059  0.5604  0.0817
33577SOL    HW2 3270   5.183   5.693   7.640 -0.5133  1.5612  0.5203
33578SOL     OW 3271   2.238   3.061   2.198 -0.1547 -0.2039  0.2051
33578SOL    HW1 3272   2.286   3.096   2.123 -0.1560 -1.0323 -0.1831
33578SOL    HW2 3273   2.147   3.061   2.169 -0.0900 -1.0604 -0.0061
33579SOL     OW 3274   7.264   8.291   1.267  0.3620  0.6508 -0.3868
33579SOL    HW1 3275   7.286   8.248   1.350  1.7954  1.5769 -0.2714
33579SOL    HW2 3276   7.178   8.329   1.282  0.4468  0.4860  0.5447
33580SOL     OW 3277   9.276   7.138   4.244  0.3306  0.9164 -0.5752
33580SOL    HW1 3278   9.322   7.171   4.167  1.8596 -0.6319 -0.3536
33580SOL    HW2 3279   9.338   7.078   4.285 -0.8690  0.9072  1.2762
33581SOL     OW 3280   0.224   6.767   4.429  0.0455  0.4159  0.0602
33581SOL    HW1 3281   0.317   6.748   4.442 -0.1003 -0.9760 -0.8675
33581SOL    HW2 3282   0.220   6.863   4.424  1.4128  0.4931  0.1943
33582SOL     OW 3283   0.593   3.130   5.432 -0.7629  0.3437  0.0951
33582SOL    HW1 3284   0.583   3.225   5.437 -0.4099  0.2965  2.2067
33582SOL    HW2 3285   0.504   3.098   5.415 -1.1097  0.9791  0.6923
33583SOL     OW 3286   7.889   9.002   5.057  0.5078 -0.5561  0.1624
33583SOL    HW1 3287   7.815   8.968   5.106 -0.6421 -2.2227 -2.6104
33583SOL    HW2 3288   7.901   8.940   4.985  3.2733  0.8140 -0.6504
33584SOL     OW 3289   7.910   5.418   6.405  0.3696  0.5294  0.0248
33584SOL    HW1 3290   7.901   5.404   6.311 -1.7370  0.0144  0.2899
33584SOL    HW2 3291   8.004   5.419   6.420  0.7472  1.4849 -2.2192
33585SOL     OW 3292   7.702   2.127   9.603  0.2771  0.1784 -0.4373
33585SOL    HW1 3293   7.760   2.057   9.576  0.7631  0.0442  0.9273
33585SOL    HW2 3294   7.758   2.189   9.650 -0.3833  0.8415 -0.4921
33586SOL     OW 3295   0.642   3.803   6.874 -0.1519 -0.5387 -0.3718
33586SOL    HW1 3296   0.719   3.781   6.926 -0.6634 -0.0264  0.6137
33586SOL    HW2 3297   0.596   3.869   6.925 -2.0682 -1.9573 -0.1873
33587SOL     OW 3298   7.583   9.447   7.601  0.1631 -0.2862  0.0351
33587SOL    HW1 3299   7.635   9.385   7.551  1.3391  1.9783 -1.6302
33587SOL    HW2 3300   7.631   9.459   7.683  1.2368  0.2943 -0.6730
33588SOL     OW 3301   7.880   6.374   5.513  0.1093 -0.4443 -0.5503
33588SOL    HW1 3302   7.815   6.433   5.551  0.0509 -0.1890 -1.0412
33588SOL    HW2 3303   7.843   6.287   5.525  0.4217 -0.4244  0.6237
33589SOL     OW 3304   8.541   2.082   1.662 -0.3175  0.7540  0.2373
33589SOL    HW1 3305   8.569   2.169   1.632 -2.7324  1.4504 -0.1311
33589SOL    HW2 3306   8.566   2.080   1.754  1.7490  0.9711 -0.3076
33590SOL     OW 3307   7.374   5.591   4.970 -0.3607  0.7729  0.0962
33590SOL    HW1 3308   7.347   5.674   5.010 -1.9544  1.3241 -2.0652
33590SOL    HW2 3309   7.445   5.560   5.026 -1.2951  2.4347  2.2898
33591SOL     OW 3310   9.629   3.479   3.536  0.4871  0.5069  0.1396
33591SOL    HW1 3311   9.624   3.463   3.631 -0.8752  0.9332  0.1495
33591SOL    HW2 3312   9.650   3.572   3.528 -0.3778  0.6960  0.0221
33592SOL     OW 3313   8.926   2.193   7.540 -0.1675 -0.4318  0.3447
33592SOL    HW1 3314   9.010   2.158   7.572  0.9097  0.7864 -1.0715
33592SOL    HW2 3315   8.921   2.281   7.579 -0.0446  0.0834 -0.7821
33593SOL     OW 3316   8.930   3.534   2.001  0.1954 -0.2327 -0.0881
33593SOL    HW1 3317   9.001   3.471   1.990  2.3890  2.2983 -0.8571
33593SOL    HW2 3318   8.865   3.508   1.936  1.2229 -1.4905 -0.6423
33594SOL     OW 3319   3.056   6.757   3.668 -0.4665 -0.3555  0.7141
33594SOL    HW1 3320   3.057   6.672   3.624  0.6069 -0.6396  1.2724
33594SOL    HW2 3321   3.148   6.778   3.684 -0.6983  1.0922  0.2538
33595SOL     OW 3322   6.220   0.187   5.521 -0.2849  0.6662  0.8338
33595SOL    HW1 3323   6.214   0.279   5.497 -2.3251  0.2077 -0.6009
33595SOL    HW2 3324   6.161   0.179   5.596 -1.4047  0.2351 -0.0738
33596SOL     OW 3325   6.546   6.067   7.462 -0.1046 -0.6114  0.2640
33596SOL    HW1 3326   6.473   6.014   7.432 -0.1737 -0.4594  0.1603
33596SOL    HW2 3327   6.624   6.013   7.447 -0.4039 -1.7666  2.6547
33597SOL     OW 3328   0.005   3.773   7.447 -0.0774  0.4522 -0.4581
33597SOL    HW1 3329   0.047   3.847   7.403 -1.0831  1.6422  0.5650
33597SOL    HW2 3330   0.073   3.738   7.505  0.6218  0.1170 -1.4710
33598SOL     OW 3331   9.462   3.098   1.153  0.0699  0.1200  0.2784
33598SOL    HW1 3332   9.426   3.039   1.219  0.0831 -0.7532 -0.4989
33598SOL    HW2 3333   9.556   3.076   1.150  0.2194  0.7037  0.5324
33599SOL     OW 3334   2.719   5.080   0.131 -0.4144  0.2407 -0.3199
33599SOL    HW1 3335   2.748   5.151   0.074 -1.2736  0.8244 -0.0373
33599SOL    HW2 3336   2.792   5.067   0.192 -0.6439  1.5510  0.2495
33600SOL     OW 3337   6.058   4.445   4.271  0.7594 -0.2303 -0.4290
33600SOL    HW1 3338   6.045   4.350   4.275  0.4104 -0.1912 -0.6125
33600SOL    HW2 3339   6.145   4.458   4.308 -0.1203 -0.4034  1.7935
33601SOL     OW 3340   1.829   8.562   8.010 -0.1797  0.0865  0.7393
33601SOL    HW1 3341   1.758   8.524   8.062 -0.1591 -0.3684  0.4401
33601SOL    HW2 3342   1.808   8.655   8.005  0.1258  0.2412  2.0556
33602SOL     OW 3343   6.972   5.026   0.393  0.5849 -0.4199  0.1024
33602SOL    HW1 3344   6.988   4.931   0.394 -0.4699 -0.6195 -0.7006
33602SOL    HW2 3345   7.044   5.062   0.342  1.0961 -0.7675  0.5719
33603SOL     OW 3346   7.596   9.530   6.188  0.1018 -0.1375  0.3472
33603SOL    HW1 3347   7.618   9.598   6.124 -1.3751  0.9427  0.9560
33603SOL    HW2 3348   7.670   9.530   6.249  0.1135  0.9377  0.3426
33604SOL     OW 3349   8.891   9.989   8.551 -0.1506  0.1969 -0.0767
33604SOL    HW1 3350   8.871   9.901   8.583 -1.3387  0.1895 -0.8438
33604SOL    HW2 3351   8.836  10.000   8.474  0.7984  1.2057 -0.6268
33605SOL     OW 3352   9.741   3.876   4.610 -0.5187 -0.1169  0.1112
33605SOL    HW1 3353   9.712   3.785   4.617  0.0524 -0.3595 -0.6733
33605SOL    HW2 3354   9.749   3.905   4.701  1.2210 -1.4764  0.4268
33606SOL     OW 3355   5.705   1.952   3.515  0.0979 -0.5037 -0.0785
33606SOL    HW1 3356   5.763   1.877   3.526 -0.4737 -0.8721  0.4902
33606SOL    HW2 3357   5.743   2.020   3.571  0.1014 -0.6735  0.1282
33607SOL     OW 3358   8.172   0.835   7.991 -0.1539  0.0405  0.4948
33607SOL    HW1 3359   8.167   0.741   7.974 -2.2738 -0.0266  1.3519
33607SOL    HW2 3360   8.121   0.848   8.070  2.8070  1.4919  2.2620
33608SOL     OW 3361   9.739   0.676   1.252 -0.3671  0.1757  0.1671
33608SOL    HW1 3362   9.702   0.603   1.201  1.3976 -1.0780  0.6401
33608SOL    HW2 3363   9.798   0.720   1.190  2.1517 -1.6379  1.1906
33609SOL     OW 3364   8.776   8.128   9.762 -0.0894 -0.6448 -0.5521
33609SOL    HW1 3365   8.760   8.052   9.818 -0.3999 -0.0927  0.1171
33609SOL    HW2 3366   8.829   8.186   9.815 -0.2433 -0.1888 -0.8944
33610SOL     OW 3367   4.723   5.156   5.871 -0.0134  0.2215  0.1161
33610SOL    HW1 3368   4.747   5.160   5.778  0.2890 -1.0236  0.1309
33610SOL    HW2 3369   4.646   5.099   5.873  0.5086 -0.4513  0.7365
33611SOL     OW 3370   6.801   1.276   8.308  0.2411 -0.2053  0.6157
33611SOL    HW1 3371   6.726   1.309   8.260 -0.1792 -2.4585 -0.3695
33611SOL    HW2 3372   6.877   1.313   8.263 -0.2338  0.3126  0.2419
33612SOL     OW 3373   9.115   6.028   2.043 -0.6210 -0.3780  0.1875
33612SOL    HW1 3374   9.176   5.966   2.004 -0.3453 -1.3757  2.1198
33612SOL    HW2 3375   9.133   6.111   1.998  0.3359 -1.2534 -1.0784
33613SOL     OW 3376   7.502   6.358   9.902 -0.2798  0.0560  0.3038
33613SOL    HW1 3377   7.487   6.445   9.941 -0.4609  0.4033 -0.5283
33613SOL    HW2 3378   7.560   6.314   9.964  0.8259  1.2297  0.1397
33614SOL     OW 3379   1.540  10.125   8.631  0.0260 -0.0298  0.3252
33614SOL    HW1 3380   1.593  10.128   8.552 -1.8663 -1.0304 -1.0082
33614SOL    HW2 3381   1.533  10.217   8.658  2.8613  0.0679  0.8519
33615SOL     OW 3382   8.638   7.957   7.499  0.4711 -0.0995 -1.0751
33615SOL    HW1 3383   8.721   7.942   7.453  0.7672  1.7175 -1.1656
33615SOL    HW2 3384   8.650   8.042   7.542 -1.4281  0.2711 -1.2612
33616SOL     OW 3385   9.768   5.712   1.814  0.2459  0.6346 -0.2971
33616SOL    HW1 3386   9.827   5.646   1.850  0.1406  1.4238  1.3838
33616SOL    HW2 3387   9.785   5.791   1.866 -0.5999  1.5408 -1.3685
33617SOL     OW 3388  10.058   6.895   1.384  0.6595  0.8378 -0.1227
33617SOL    HW1 3389  10.082   6.824   1.324 -1.5721 -0.1827  0.1537
33617SOL    HW2 3390  10.141   6.939   1.403  1.4896  0.9730 -3.6769
33618SOL     OW 3391   7.760   9.597   8.402 -0.0017 -0.1761 -0.6471
33618SOL    HW1 3392   7.666   9.616   8.401  0.0757  0.3154  0.5938
33618SOL    HW2 3393   7.768   9.510   8.363 -0.8383  0.3529 -1.9988
33619SOL     OW 3394   9.268   9.553   0.015  0.4778  0.5143  0.0600
33619SOL    HW1 3395   9.233   9.623   0.070 -2.2136  1.2961 -2.4584
33619SOL    HW2 3396   9.331   9.596  -0.043  2.4307 -0.0858  1.7029
33620SOL     OW 3397   0.099   1.303   3.889  0.3035 -0.5062 -0.3593
33620SOL    HW1 3398   0.156   1.246   3.941 -0.7047 -0.0220  1.3396
33620SOL    HW2 3399   0.034   1.243   3.852  1.6258 -0.9935 -1.9119
33621SOL     OW 3400   1.665   7.691   9.716  0.3962 -0.0608 -0.3574
33621SOL    HW1 3401   1.604   7.735   9.656 -1.0295  1.9016  2.4527
33621SOL    HW2 3402   1.751   7.705   9.676 -0.3204  2.8963 -0.9731
33622SOL     OW 3403   4.027   6.022   0.786  0.1904  0.5840 -0.1885
33622SOL    HW1 3404   3.941   5.997   0.751 -0.4077  0.8541  1.0601
33622SOL    HW2 3405   4.025   6.118   0.788 -0.7366  0.5730  2.8031
33623SOL     OW 3406   1.031   5.173   8.355 -0.7161 -0.2346 -0.5982
33623SOL    HW1 3407   1.038   5.104   8.421  0.2228 -0.0345 -0.4813
33623SOL    HW2 3408   0.938   5.178   8.336 -0.8173 -1.4121 -0.4732
33624SOL     OW 3409   2.175   2.032   6.874  0.6205 -0.1388  0.3493
33624SOL    HW1 3410   2.128   2.104   6.831  0.6598 -0.6409 -0.5522
33624SOL    HW2 3411   2.194   2.064   6.962 -1.6232 -0.0205  0.8081
33625SOL     OW 3412   8.005   0.918   7.362  0.0721  0.2677 -0.4254
33625SOL    HW1 3413   7.956   0.876   7.292  0.4806  0.4769 -0.8334
33625SOL    HW2 3414   7.951   0.903   7.440  0.0984 -0.8258 -0.6035
33626SOL     OW 3415   1.007   0.782   2.996  0.2341 -0.1773  0.2209
33626SOL    HW1 3416   0.985   0.873   3.013 -0.2566  0.1883 -2.1827
33626SOL    HW2 3417   1.041   0.749   3.079  0.2676  2.1405  1.1506
33627SOL     OW 3418   3.606   9.389   5.996  1.1562  0.8383  0.4273
33627SOL    HW1 3419   3.539   9.458   5.989 -0.5687 -0.9709 -1.5003
33627SOL    HW2 3420   3.579   9.339   6.073  0.8853  0.7298  0.2627
33628SOL     OW 3421   9.596   7.185   8.349 -0.3202 -0.0650 -0.1189
33628SOL    HW1 3422   9.654   7.183   8.273  0.6248  0.4409  0.5833
33628SOL    HW2 3423   9.580   7.278   8.365  0.0491 -0.1364  0.7178
33629SOL     OW 3424   3.014   6.808   1.883  0.0094  0.7848  1.2679
33629SOL    HW1 3425   3.008   6.771   1.971  0.0411  1.2286  1.4627
33629SOL    HW2 3426   3.039   6.735   1.827  1.1838  0.7421  1.8297
33630SOL     OW 3427   0.891   5.180   3.819  0.3332 -0.0601 -0.0249
33630SOL    HW1 3428   0.976   5.207   3.785  0.4002  0.0648  0.2377
33630SOL    HW2 3429   0.908   5.159   3.911  0.2242 -0.7168 -0.1512
33631SOL     OW 3430   4.993   9.446   1.270 -0.1260 -0.0259  0.3365
33631SOL    HW1 3431   4.968   9.499   1.194 -0.1873  1.4611  1.3585
33631SOL    HW2 3432   5.052   9.380   1.235 -0.8652  0.0742 -1.1502
33632SOL     OW 3433   4.008   6.151   2.509 -0.6273  0.5522  0.2103
33632SOL    HW1 3434   4.024   6.219   2.444 -0.6228  1.2362  0.9146
33632SOL    HW2 3435   3.918   6.167   2.539 -1.1379 -0.6456 -0.6586
33633SOL     OW 3436   0.976   3.022   0.670 -0.0359 -0.5798 -0.4873
33633SOL    HW1 3437   0.882   3.032   0.657  0.0070  1.5768  0.6124
33633SOL    HW2 3438   0.992   3.056   0.758  1.4668 -3.0217  0.2282
33634SOL     OW 3439   2.773   6.259   0.779  0.6015  0.5521 -0.1840
33634SOL    HW1 3440   2.823   6.284   0.701  1.6033 -3.2147 -0.8789
33634SOL    HW2 3441   2.840   6.234   0.843 -0.2330  2.9769  1.6979
33635SOL     OW 3442   2.832   9.754   8.399 -0.3080  0.1171 -0.7060
33635SOL    HW1 3443   2.871   9.743   8.486 -0.8902  0.1022 -0.4434
33635SOL    HW2 3444   2.771   9.827   8.410  0.2323  0.6707 -1.3146
33636SOL     OW 3445   7.809   1.995   7.260  0.1964  0.4196 -0.1106
33636SOL    HW1 3446   7.816   1.929   7.190  0.1779 -1.1561  1.3288
33636SOL    HW2 3447   7.869   1.964   7.328 -2.4740 -0.0912  2.1207
33637SOL     OW 3448   1.069   5.208   3.428  0.1963  0.3556 -0.3045
33637SOL    HW1 3449   1.129   5.252   3.367  0.0655  2.2805  0.9168
33637SOL    HW2 3450   1.126   5.165   3.491  0.3183 -0.8994 -1.2463
33638SOL     OW 3451   1.300   7.656   3.296  0.2095  0.2832 -0.0968
33638SOL    HW1 3452   1.386   7.617   3.281 -0.9608 -2.6925  0.7430
33638SOL    HW2 3453   1.290   7.658   3.391 -0.2584  1.5444 -0.1606
33639SOL     OW 3454   8.264   1.682   2.216 -0.7343 -0.1321 -0.6501
33639SOL    HW1 3455   8.179   1.639   2.216 -1.7214  1.7620 -1.9869
33639SOL    HW2 3456   8.303   1.658   2.133  0.0635 -1.0335 -0.0204
33640SOL     OW 3457   0.071   0.887   3.986 -0.1277 -0.3498  0.0943
33640SOL    HW1 3458   0.116   0.803   3.992 -1.4030 -0.9988  0.6935
33640SOL    HW2 3459   0.112   0.930   3.911  0.7298 -1.3844 -0.0465
33641SOL     OW 3460   6.654   0.548   0.140  0.0297  0.1716  0.2057
33641SOL    HW1 3461   6.565   0.560   0.107 -0.0420  1.2366  0.7778
33641SOL    HW2 3462   6.698   0.631   0.123  1.0428 -0.4778 -0.4355
33642SOL     OW 3463   4.771   0.405   1.688  0.0530 -0.1919  0.3728
33642SOL    HW1 3464   4.800   0.490   1.722  1.6557 -0.0921 -1.1579
33642SOL    HW2 3465   4.751   0.422   1.596  0.6573 -1.5230 -0.0158
33643SOL     OW 3466   8.970   9.688   6.049 -0.1053  0.4805 -0.1161
33643SOL    HW1 3467   8.975   9.766   5.994 -1.7130  0.2680 -0.6052
33643SOL    HW2 3468   8.883   9.694   6.090  0.4763 -0.1288  1.2440
33644SOL     OW 3469   1.323   2.821   6.798  0.4208  0.0332  0.5402
33644SOL    HW1 3470   1.319   2.848   6.889  0.2378  0.0160  0.5380
33644SOL    HW2 3471   1.398   2.762   6.794  0.8242  0.5463  0.5423
33645SOL     OW 3472   5.739   6.478   4.270  0.0301  0.1644  0.0122
33645SOL    HW1 3473   5.753   6.399   4.323 -0.7799 -0.7690 -1.1547
33645SOL    HW2 3474   5.706   6.542   4.333  0.6863 -0.4117  0.9727
33646SOL     OW 3475   0.646   3.058   6.713  1.0999 -0.9476 -0.0380
33646SOL    HW1 3476   0.706   3.119   6.669  0.9433 -1.0833 -0.4450
33646SOL    HW2 3477   0.657   3.077   6.806  1.5300 -0.7390 -0.1256
33647SOL     OW 3478   9.962   0.680   8.204  0.1415  0.2532 -0.3801
33647SOL    HW1 3479   9.880   0.634   8.181  0.6951 -0.5332 -0.8127
33647SOL    HW2 3480   9.967   0.672   8.299  0.2356 -0.6262 -0.4468
33648SOL     OW 3481   1.508   0.967   0.746  0.2371 -0.5807  0.7229
33648SOL    HW1 3482   1.464   1.046   0.777 -1.7432 -1.2170 -0.3697
33648SOL    HW2 3483   1.574   0.948   0.813  0.9774  2.1551  0.8345
33649SOL     OW 3484   7.458   0.479   7.143  0.2120  0.4172 -0.1404
33649SOL    HW1 3485   7.480   0.557   7.194  2.0582 -1.0334  1.3801
33649SOL    HW2 3486   7.529   0.417   7.163 -1.1258 -1.5849 -1.4315
33650SOL     OW 3487   7.889   8.052   7.137  0.6965 -0.3066  0.4419
33650SOL    HW1 3488   7.931   7.966   7.146  3.0191  0.7463  0.0707
33650SOL    HW2 3489   7.944   8.111   7.189 -0.2661  1.1501 -0.1535
33651SOL     OW 3490   7.981   1.048   5.145 -0.0690  0.0015  0.6707
33651SOL    HW1 3491   8.044   0.982   5.174 -0.2193 -0.0748  0.8235
33651SOL    HW2 3492   7.970   1.031   5.051 -0.0276 -0.1255  0.6886
33652SOL     OW 3493   3.958   2.440   2.849  0.0212  0.1055 -0.0149
33652SOL    HW1 3494   3.994   2.526   2.870 -2.0978  0.8207  0.8310
33652SOL    HW2 3495   3.984   2.384   2.922 -0.0786  0.4758  0.3056
33653SOL     OW 3496   2.337   9.140   3.492  0.1207 -0.3379 -0.2828
33653SOL    HW1 3497   2.279   9.064   3.499 -0.6395  0.1471 -1.1780
33653SOL    HW2 3498   2.413   9.109   3.444  0.6849 -1.0177  1.0217
33654SOL     OW 3499   7.329   4.432   3.094  0.0662 -0.1149  0.6428
33654SOL    HW1 3500   7.259   4.401   3.037  0.7707 -1.4744  0.4740
33654SOL    HW2 3501   7.297   4.514   3.131 -1.3050 -0.3623  0.0140
33655SOL     OW 3502   5.316   2.165   4.112  0.4898  0.1974  0.1530
33655SOL    HW1 3503   5.353   2.219   4.181  1.2858 -0.7181  0.4571
33655SOL    HW2 3504   5.239   2.214   4.081  2.0866  2.2478 -0.6525
33656SOL     OW 3505   0.375   4.405   4.084  0.1035  0.4222 -0.8084
33656SOL    HW1 3506   0.331   4.393   4.000 -1.7558 -0.6380  0.2729
33656SOL    HW2 3507   0.414   4.319   4.103  0.9165  0.7853 -0.7916
33657SOL     OW 3508   5.475   6.174   9.958  0.6309  0.1923  0.2003
33657SOL    HW1 3509   5.546   6.226   9.922  0.8879  0.3774  0.9610
33657SOL    HW2 3510   5.506   6.147  10.045 -0.2849  0.3971  0.5982
33658SOL     OW 3511   5.230   0.964   3.097 -0.3969  0.8349 -0.2141
33658SOL    HW1 3512   5.299   0.920   3.047 -0.2285  0.9016 -0.0412
33658SOL    HW2 3513   5.222   0.913   3.177 -1.1630  0.3122 -0.6169
33659SOL     OW 3514   2.557   5.990   0.447  0.2657 -0.2310  0.0940
33659SOL    HW1 3515   2.503   5.911   0.443 -1.1482  0.6531  1.3361
33659SOL    HW2 3516   2.548   6.021   0.537  1.1571  1.1142 -0.2636
33660SOL     OW 3517   3.480   8.427   5.320 -0.0636 -0.8540  0.8891
33660SOL    HW1 3518   3.477   8.337   5.290  1.0796 -1.0132  1.2259
33660SOL    HW2 3519   3.428   8.428   5.400 -0.8403 -1.0115  0.3901
33661SOL     OW 3520   6.888   6.778   8.977  0.2892 -0.0306  0.0626
33661SOL    HW1 3521   6.849   6.750   8.894 -0.0080 -0.8793  0.4877
33661SOL    HW2 3522   6.975   6.810   8.953  0.2987 -0.5082 -0.5421
33662SOL     OW 3523   6.015   1.220   1.543 -0.7844 -0.3412 -0.1190
33662SOL    HW1 3524   6.039   1.135   1.579 -0.3130 -0.0804  0.1789
33662SOL    HW2 3525   6.089   1.277   1.563 -1.1155  0.1502 -0.2828
33663SOL     OW 3526   7.794   2.873   3.189 -0.2935  0.0875 -0.0334
33663SOL    HW1 3527   7.848   2.870   3.110  0.5428 -0.4955  0.5545
33663SOL    HW2 3528   7.849   2.835   3.258 -0.5385  1.7441  1.1109
33664SOL     OW 3529   0.445   4.538   5.405 -0.2903 -0.3547 -0.2329
33664SOL    HW1 3530   0.505   4.608   5.431 -0.2345 -0.4047 -0.2250
33664SOL    HW2 3531   0.416   4.499   5.488 -1.4895  0.6278 -0.1789
33665SOL     OW 3532   2.614   2.090   5.187  0.1527  0.5169  0.1653
33665SOL    HW1 3533   2.523   2.096   5.156  0.3502 -0.1405 -0.5681
33665SOL    HW2 3534   2.609   2.109   5.281 -0.5849  1.6165 -0.0812
33666SOL     OW 3535   1.094   5.952   5.692 -0.3301 -0.5117  0.6598
33666SOL    HW1 3536   1.090   5.864   5.655 -1.1285 -0.0635 -0.3387
33666SOL    HW2 3537   1.173   5.991   5.655 -0.3384 -0.5778  0.5748
33667SOL     OW 3538   5.238   8.942   3.809 -0.1603 -0.7268  0.2687
33667SOL    HW1 3539   5.169   9.002   3.781  1.5143  1.7029  1.1649
33667SOL    HW2 3540   5.308   8.954   3.746  1.2878  0.3609  2.0267
33668SOL     OW 3541   1.197   4.280   7.310 -0.6604 -0.2111 -0.0853
33668SOL    HW1 3542   1.186   4.356   7.367 -1.7912  1.4023 -2.3632
33668SOL    HW2 3543   1.118   4.228   7.323 -1.7879  1.0951 -1.4787
33669SOL     OW 3544  10.034   3.669   1.300 -0.4691  0.3645  0.2751
33669SOL    HW1 3545  10.024   3.724   1.222 -1.5818  1.3329  1.0843
33669SOL    HW2 3546  10.033   3.580   1.266  1.7533  0.8081 -1.0975
33670SOL     OW 3547   7.494   8.906   0.563  0.0545  0.2269  0.2115
33670SOL    HW1 3548   7.405   8.939   0.573 -0.0467  0.1213 -0.3602
33670SOL    HW2 3549   7.520   8.929   0.474 -0.0926 -1.3801 -0.2680
33671SOL     OW 3550   5.610   5.913  10.144  0.1660 -0.3452  0.3170
33671SOL    HW1 3551   5.629   5.823  10.172 -0.1463 -0.1840  1.0490
33671SOL    HW2 3552   5.641   5.916  10.053 -0.9300 -1.5633 -0.1214
33672SOL     OW 3553   2.848   6.646   7.399  0.0829  0.5531 -0.7197
33672SOL    HW1 3554   2.812   6.728   7.432 -0.1393  0.2053 -0.0896
33672SOL    HW2 3555   2.913   6.621   7.464 -0.5564 -0.2825 -0.3938
33673SOL     OW 3556   6.188   2.857   5.716 -0.1599  0.3735 -0.1552
33673SOL    HW1 3557   6.283   2.864   5.729 -0.0913  2.2046 -1.4385
33673SOL    HW2 3558   6.154   2.943   5.740 -1.2797  0.3253 -1.5027
33674SOL     OW 3559   4.344   1.991   1.203  0.8691 -0.1454 -0.3477
33674SOL    HW1 3560   4.313   2.052   1.135  1.8461  0.1752 -0.5029
33674SOL    HW2 3561   4.430   2.024   1.228  0.3763 -0.0678  1.2954
33675SOL     OW 3562   4.635   2.031   1.604  0.2436  0.6465 -0.0889
33675SOL    HW1 3563   4.697   2.074   1.663  1.4347  1.7108 -2.0509
33675SOL    HW2 3564   4.683   1.956   1.569 -0.7298 -0.4403  0.9038
33676SOL     OW 3565   0.990   4.756   6.849 -0.0311 -0.4707 -0.6881
33676SOL    HW1 3566   1.054   4.769   6.919  0.4221  3.0622 -1.6669
33676SOL    HW2 3567   0.910   4.727   6.895  0.7312  0.1798  1.1064
33677SOL     OW 3568   8.806   9.746   3.001  0.3715  0.5311  0.5122
33677SOL    HW1 3569   8.791   9.701   3.085 -2.9534 -0.0649 -0.2998
33677SOL    HW2 3570   8.840   9.832   3.026 -1.7421  0.8212  2.5897
33678SOL     OW 3571   3.375   8.967   4.738 -0.1536  0.0391 -1.0710
33678SOL    HW1 3572   3.444   8.904   4.716 -0.0559  0.1310 -1.0275
33678SOL    HW2 3573   3.312   8.916   4.789 -0.3144 -0.1417 -1.4467
33679SOL     OW 3574   1.452   3.234   5.610  0.2143 -0.0664  0.1296
33679SOL    HW1 3575   1.384   3.263   5.669  0.0025  1.5533 -0.8917
33679SOL    HW2 3576   1.527   3.215   5.667 -0.4936 -0.0887  1.0611
33680SOL     OW 3577   0.415   0.426   7.518  0.0601 -0.7761  0.2736
33680SOL    HW1 3578   0.408   0.383   7.433 -0.7220 -2.6577  1.2579
33680SOL    HW2 3579   0.447   0.357   7.577 -1.4012 -0.0829  1.9224
33681SOL     OW 3580   1.159   4.090   9.142  0.2422 -0.1915 -0.4067
33681SOL    HW1 3581   1.152   4.097   9.046  0.7593  0.5392 -0.3947
33681SOL    HW2 3582   1.165   4.180   9.172 -1.2587 -0.3566  0.4381
33682SOL     OW 3583   3.731   4.288   6.856 -0.1442  0.6466 -0.6379
33682SOL    HW1 3584   3.755   4.255   6.769 -0.6854 -1.2089 -0.0930
33682SOL    HW2 3585   3.789   4.244   6.916 -0.7262  0.8546  0.0832
33683SOL     OW 3586   7.193   0.808   5.718  0.1810  0.6439 -0.0920
33683SOL    HW1 3587   7.198   0.750   5.794 -0.8598 -0.6766 -1.0048
33683SOL    HW2 3588   7.278   0.852   5.716  0.8513 -0.5699  0.8415
33684SOL     OW 3589   6.581   5.851   7.190  0.2798  0.1338 -0.7333
33684SOL    HW1 3590   6.567   5.807   7.107  0.9894 -0.0859 -0.7420
33684SOL    HW2 3591   6.554   5.942   7.175  1.6110  0.3985 -1.5814
33685SOL     OW 3592   4.828   8.931   9.332  0.1380  0.4981  0.2104
33685SOL    HW1 3593   4.826   8.988   9.409  2.5240  0.5025  0.3156
33685SOL    HW2 3594   4.739   8.897   9.325 -1.0313  3.2564  0.8728
33686SOL     OW 3595   8.394   4.906   2.728  0.1655  0.0160 -0.4804
33686SOL    HW1 3596   8.488   4.916   2.747 -0.0065  0.5946  0.0818
33686SOL    HW2 3597   8.355   4.881   2.811 -0.0530 -1.0953 -0.9172
33687SOL     OW 3598   1.756   3.159   3.108  0.2501  0.0280  0.0978
33687SOL    HW1 3599   1.698   3.174   3.032  1.3447 -1.0434 -0.9789
33687SOL    HW2 3600   1.796   3.244   3.125  0.5316  0.1292 -0.9934
33688SOL     OW 3601   7.770   3.181   3.445  0.4365 -0.0139 -0.6121
33688SOL    HW1 3602   7.848   3.237   3.451  1.6078 -1.2521 -3.0778
33688SOL    HW2 3603   7.781   3.135   3.362 -1.4524 -2.4893  0.4565
33689SOL     OW 3604   1.481   1.298   4.313 -0.0291 -0.1132 -0.1509
33689SOL    HW1 3605   1.410   1.248   4.353 -0.6920  3.1622  2.9534
33689SOL    HW2 3606   1.441   1.338   4.235 -1.0822  0.1956  0.5355
33690SOL     OW 3607   9.499   2.506   6.797  0.6072 -0.0694 -0.3470
33690SOL    HW1 3608   9.538   2.567   6.859  0.7620  0.2042 -0.7145
33690SOL    HW2 3609   9.428   2.464   6.846 -1.7736  2.8938 -1.1308
33691SOL     OW 3610   4.174   6.677   7.509  0.0495  0.7477 -0.0316
33691SOL    HW1 3611   4.107   6.740   7.482 -1.0108  0.0834  1.0327
33691SOL    HW2 3612   4.126   6.608   7.554  1.1714 -0.9737 -1.3977
33692SOL     OW 3613   4.419   6.354   0.813  0.3074  0.6478 -0.0339
33692SOL    HW1 3614   4.334   6.386   0.783 -0.2470  0.3856  1.2230
33692SOL    HW2 3615   4.402   6.265   0.842  0.7338  0.9943  1.3486
33693SOL     OW 3616   0.219   4.095   5.042  0.1636  0.6442 -0.4343
33693SOL    HW1 3617   0.232   4.020   4.984 -2.1525  0.7067 -1.0579
33693SOL    HW2 3618   0.301   4.144   5.035  1.4729 -1.4755 -0.5012
33694SOL     OW 3619   7.536   9.673   2.216  0.1915 -0.0775  0.0455
33694SOL    HW1 3620   7.565   9.724   2.141  0.4434 -0.6812 -0.2706
33694SOL    HW2 3621   7.616   9.637   2.253  0.2818  1.8847  1.8336
33695SOL     OW 3622   8.846   0.717   7.095  0.3150 -0.6328  0.2606
33695SOL    HW1 3623   8.908   0.706   7.166 -0.8025 -0.0814  1.3426
33695SOL    HW2 3624   8.879   0.661   7.025  1.5038 -1.0642  1.1517
33696SOL     OW 3625   0.844   8.315   3.347 -0.0795 -0.3773  0.3296
33696SOL    HW1 3626   0.866   8.375   3.418  0.0906 -0.0915  0.0394
33696SOL    HW2 3627   0.928   8.297   3.304 -0.1611 -0.6614  0.2875
33697SOL     OW 3628   4.694   8.196   6.954  0.1338 -0.0976 -0.1981
33697SOL    HW1 3629   4.671   8.289   6.951 -2.5544 -0.6651  1.6821
33697SOL    HW2 3630   4.782   8.195   6.992 -0.3558  1.6225  1.0697
33698SOL     OW 3631   7.973   0.695  10.066  0.2467 -0.2286 -0.1708
33698SOL    HW1 3632   8.029   0.746  10.124 -0.3402 -0.6732  0.7938
33698SOL    HW2 3633   7.892   0.684  10.115 -0.2566 -0.6096 -1.0825
33699SOL     OW 3634   9.183   5.800   9.795  0.5209 -0.2878  0.0672
33699SOL    HW1 3635   9.163   5.730   9.858 -1.2407 -0.4448 -0.6507
33699SOL    HW2 3636   9.145   5.878   9.833 -0.3732 -0.3449 -0.7056
33700SOL     OW 3637   1.447   9.777   5.368  0.0898  0.3584  0.4147
33700SOL    HW1 3638   1.370   9.773   5.311  0.3413  0.6963  0.0409
33700SOL    HW2 3639   1.463   9.686   5.393  1.1782 -0.0770 -1.7156
33701SOL     OW 3640   7.595   8.764   2.902 -0.2029 -0.3508 -0.6421
33701SOL    HW1 3641   7.525   8.732   2.846 -0.2293 -1.6289  0.0931
33701SOL    HW2 3642   7.655   8.690   2.909  0.7859  0.4469 -0.5659
33702SOL     OW 3643   1.736   5.503   8.027  0.0283  0.2688  0.3345
33702SOL    HW1 3644   1.823   5.537   8.006  0.1608  0.2335  0.8263
33702SOL    HW2 3645   1.676   5.573   8.000  0.1169 -0.2425 -1.2210
33703SOL     OW 3646   9.077  10.201   1.946  0.1304 -0.2196  0.3476
33703SOL    HW1 3647   9.003  10.143   1.934  0.4008 -0.2402 -1.4030
33703SOL    HW2 3648   9.062  10.272   1.883  0.3098  1.0827  1.7513
33704SOL     OW 3649   7.761   1.052   5.701 -0.5701  0.0496 -0.5954
33704SOL    HW1 3650   7.699   0.997   5.749  0.3100 -1.2164 -0.8706
33704SOL    HW2 3651   7.786   1.120   5.763 -0.3297 -0.8862  0.3566
33705SOL     OW 3652   5.946   8.078   3.332 -0.2131  0.2491  0.0452
33705SOL    HW1 3653   5.858   8.051   3.359 -1.0060  1.2511 -1.4689
33705SOL    HW2 3654   5.934   8.112   3.244  1.5878  1.0621  0.1042
33706SOL     OW 3655   1.200   1.835   2.992 -0.1902  0.7461  0.4818
33706SOL    HW1 3656   1.171   1.877   3.073  0.2273  0.5440  0.7378
33706SOL    HW2 3657   1.234   1.750   3.020  1.9957  1.5552  0.3982
33707SOL     OW 3658   5.442   5.344   0.662  0.0166 -0.0369 -0.4128
33707SOL    HW1 3659   5.472   5.338   0.752  0.3859  0.6308 -0.4888
33707SOL    HW2 3660   5.419   5.254   0.638  0.8721 -0.3752  0.0198
33708SOL     OW 3661   1.259   8.260   1.721  0.0304  0.5390  0.1363
33708SOL    HW1 3662   1.318   8.305   1.662  0.4202 -1.1654 -0.8208
33708SOL    HW2 3663   1.176   8.256   1.674  0.5229 -1.4157 -0.6220
33709SOL     OW 3664   5.638   7.118   2.530  0.0670 -0.1338  0.0316
33709SOL    HW1 3665   5.604   7.072   2.453  0.0205 -2.2974  1.3004
33709SOL    HW2 3666   5.562   7.129   2.587  0.1680  1.1732 -0.0681
33710SOL     OW 3667   6.476   6.407   9.918 -0.2429 -0.7382  0.1587
33710SOL    HW1 3668   6.420   6.441   9.988  1.3825  0.6102  0.8404
33710SOL    HW2 3669   6.439   6.445   9.838 -0.9009 -0.6765  0.4856
33711SOL     OW 3670   8.185   6.711   7.662  0.0956 -0.1410 -0.0434
33711SOL    HW1 3671   8.157   6.719   7.753 -1.2884 -1.0492 -0.3614
33711SOL    HW2 3672   8.104   6.726   7.611 -0.1675 -4.1981 -0.9643
33712SOL     OW 3673   8.851   0.013   3.990  0.0004  0.2779 -0.3701
33712SOL    HW1 3674   8.873   0.095   4.034 -0.1878  0.4920 -0.6643
33712SOL    HW2 3675   8.852  -0.053   4.059  1.8030  0.2252 -0.4110
33713SOL     OW 3676   9.157   6.408   0.330  0.6077 -0.4082 -0.4368
33713SOL    HW1 3677   9.162   6.414   0.425 -0.6376 -0.9622 -0.3261
33713SOL    HW2 3678   9.195   6.322   0.310 -1.5875 -1.4688 -0.1985
33714SOL     OW 3679   9.317   3.296   7.226  0.1533  0.1100 -0.4164
33714SOL    HW1 3680   9.247   3.349   7.188  0.3009 -0.4235 -1.4344
33714SOL    HW2 3681   9.287   3.206   7.217  0.4096 -0.0450  0.2866
33715SOL     OW 3682  10.007   4.043   2.598  0.2953  0.3693 -0.1036
33715SOL    HW1 3683   9.990   3.962   2.550 -3.6894  0.6110  0.7297
33715SOL    HW2 3684   9.945   4.106   2.561  1.0421  2.0955  1.5206
33716SOL     OW 3685   8.727   9.512   9.482 -0.0607  0.2396  0.1328
33716SOL    HW1 3686   8.675   9.585   9.449  0.8952  0.9628  0.1792
33716SOL    HW2 3687   8.664   9.441   9.497 -0.8268  0.6660 -1.0433
33717SOL     OW 3688   1.464   9.499   1.104  0.0769  0.8149  0.1963
33717SOL    HW1 3689   1.435   9.507   1.013  0.9869  0.5760 -0.1192
33717SOL    HW2 3690   1.544   9.446   1.100 -0.7350 -0.5373  1.2946
33718SOL     OW 3691   6.470   2.324   3.422 -0.8838 -0.2774 -0.6319
33718SOL    HW1 3692   6.395   2.335   3.363 -1.6726  1.8401  0.7101
33718SOL    HW2 3693   6.466   2.232   3.448 -2.1667 -0.5456 -1.7076
33719SOL     OW 3694   4.600   5.109   4.448 -0.1221  0.2691 -0.0922
33719SOL    HW1 3695   4.640   5.122   4.362 -0.9536  1.7183 -0.2819
33719SOL    HW2 3696   4.624   5.020   4.473 -0.7401 -0.5458 -2.2900
33720SOL     OW 3697   4.348   2.423   2.777 -0.2198 -0.0169 -0.4001
33720SOL    HW1 3698   4.379   2.336   2.802  2.4628  0.6260 -1.3532
33720SOL    HW2 3699   4.320   2.463   2.860  0.3112 -1.0706  0.3017
33721SOL     OW 3700   7.037   6.956   5.781  0.0478  0.3165  0.3493
33721SOL    HW1 3701   7.048   6.907   5.700  0.8493  2.2313 -0.7286
33721SOL    HW2 3702   7.006   6.891   5.844 -1.3781 -1.0205 -1.6792
33722SOL     OW 3703   3.124   6.188   0.808 -0.0423 -0.0974  0.8064
33722SOL    HW1 3704   3.107   6.117   0.746 -0.8840  1.0159 -0.2565
33722SOL    HW2 3705   3.049   6.187   0.867  0.6047 -0.9535  1.6234
33723SOL     OW 3706   1.778   5.782   2.170  0.4618  0.0634 -0.4454
33723SOL    HW1 3707   1.849   5.743   2.221 -2.2728 -2.5774  1.5138
33723SOL    HW2 3708   1.802   5.765   2.079  1.0574 -3.2518  0.2543
33724SOL     OW 3709   5.517   9.745   8.887 -0.0170  0.0436  0.5843
33724SOL    HW1 3710   5.506   9.665   8.835  0.4401 -0.5896  1.4440
33724SOL    HW2 3711   5.512   9.816   8.823  0.3561 -0.7092 -0.2972
33725SOL     OW 3712   2.699   8.316   0.376 -0.1432  0.0649  0.5961
33725SOL    HW1 3713   2.670   8.394   0.329  0.8974 -0.7176 -1.4264
33725SOL    HW2 3714   2.643   8.246   0.343 -0.6186 -0.1612  1.8890
33726SOL     OW 3715   7.175   2.539   7.463  0.1709 -0.9021 -0.6998
33726SOL    HW1 3716   7.248   2.598   7.481  0.0714 -0.0592 -2.8603
33726SOL    HW2 3717   7.103   2.572   7.518  0.8415 -0.5352 -0.0382
33727SOL     OW 3718   5.049   8.352   1.306 -0.4919  0.3924 -0.1501
33727SOL    HW1 3719   5.058   8.434   1.353  1.8029 -0.1599  0.4433
33727SOL    HW2 3720   5.084   8.286   1.366 -1.8137 -0.9631 -0.8213
33728SOL     OW 3721   7.635   2.207   1.746  0.3146  0.3476  0.4236
33728SOL    HW1 3722   7.637   2.122   1.791 -1.9919 -0.3198 -0.6428
33728SOL    HW2 3723   7.548   2.210   1.706  0.5939  2.9821 -0.0308
33729SOL     OW 3724   2.336   2.638   6.101  0.3486 -0.0501  0.2215
33729SOL    HW1 3725   2.344   2.558   6.049  3.2131  0.6662 -0.5755
33729SOL    HW2 3726   2.307   2.705   6.039 -1.3357 -0.2869  0.7291
33730SOL     OW 3727   4.572   4.154   0.998 -0.0522 -0.0276 -0.3168
33730SOL    HW1 3728   4.528   4.229   1.038 -0.8181 -0.2512 -0.7364
33730SOL    HW2 3729   4.534   4.147   0.911 -0.5180 -1.3464 -0.0239
33731SOL     OW 3730   2.278   4.524   7.701  0.2576 -0.2272  0.2112
33731SOL    HW1 3731   2.230   4.594   7.656 -1.3952 -1.4107  0.0715
33731SOL    HW2 3732   2.320   4.567   7.775 -0.9581  0.8807  0.2745
33732SOL     OW 3733   1.043   3.717   7.649  0.0960  0.1171  0.0577
33732SOL    HW1 3734   1.083   3.642   7.606 -1.7328 -0.9111  0.1337
33732SOL    HW2 3735   1.023   3.687   7.737 -1.4002  0.4205 -0.1694
33733SOL     OW 3736   2.609   9.939   8.067  0.2683 -0.1992 -0.3272
33733SOL    HW1 3737   2.597   9.890   7.986  0.9327 -0.8059 -0.0596
33733SOL    HW2 3738   2.693   9.909   8.101 -0.2267 -0.2942  0.8336
33734SOL     OW 3739   3.209   4.480   1.479  0.4764 -0.1734 -0.1247
33734SOL    HW1 3740   3.136   4.467   1.418 -0.5016 -1.5817  1.2809
33734SOL    HW2 3741   3.174   4.539   1.546  0.8753 -0.2222  0.1270
33735SOL     OW 3742   8.768   2.741   3.429  0.3400 -0.0776  0.5345
33735SOL    HW1 3743   8.855   2.779   3.429  0.5686 -0.5877  0.2074
33735SOL    HW2 3744   8.712   2.808   3.391  0.2306  1.0163  2.5527
33736SOL     OW 3745   7.907   1.623   9.846  0.0166 -0.6019  0.5273
33736SOL    HW1 3746   7.815   1.611   9.869 -0.1404  1.2134  0.8776
33736SOL    HW2 3747   7.953   1.560   9.901 -1.0045 -1.6448  0.2367
33737SOL     OW 3748   8.732   8.625   6.335 -0.1660  0.2549  0.2988
33737SOL    HW1 3749   8.684   8.595   6.258  0.4973 -0.0133 -0.0136
33737SOL    HW2 3750   8.771   8.546   6.372  0.5596  0.5574  0.1829
33738SOL     OW 3751   4.047   6.574   4.804 -0.0521  0.1079  0.2410
33738SOL    HW1 3752   4.106   6.646   4.827  0.1705 -0.8443  2.7397
33738SOL    HW2 3753   3.971   6.617   4.764  1.0362  1.5601 -0.3073
33739SOL     OW 3754   9.800   4.388   8.953 -0.9997  0.6107  0.0235
33739SOL    HW1 3755   9.787   4.360   8.862  0.0098 -0.1197  0.0978
33739SOL    HW2 3756   9.876   4.446   8.949 -1.3934  1.1482  0.2978
33740SOL     OW 3757   8.320   3.176   1.619 -0.2507  0.0542  0.5975
33740SOL    HW1 3758   8.318   3.235   1.694  1.8602 -0.6395  1.2241
33740SOL    HW2 3759   8.327   3.235   1.543  2.0016  0.6622  1.2311
33741SOL     OW 3760   0.322   0.027   5.054  0.3818 -0.0914 -0.1377
33741SOL    HW1 3761   0.289  -0.061   5.071 -0.1348  0.5413  2.4400
33741SOL    HW2 3762   0.414   0.024   5.079  0.4997 -0.0609 -0.5784
33742SOL     OW 3763   3.373   1.247   1.965  0.9774  0.2646  0.9190
33742SOL    HW1 3764   3.456   1.292   1.948  0.6690 -0.0453 -1.5424
33742SOL    HW2 3765   3.318   1.312   2.008  1.0884  1.7548 -1.1596
33743SOL     OW 3766   7.614   6.151   2.005 -0.3302  0.2428  0.6881
33743SOL    HW1 3767   7.598   6.203   1.926  1.1149 -0.5626 -0.1560
33743SOL    HW2 3768   7.646   6.214   2.070  2.3572  0.2860 -0.6328
33744SOL     OW 3769   1.352   2.055   8.729  0.2312 -0.2800  0.1931
33744SOL    HW1 3770   1.414   1.989   8.762  1.7741  0.6353 -0.8020
33744SOL    HW2 3771   1.405   2.112   8.673 -1.1072  1.7050  0.8752
33745SOL     OW 3772   2.007   3.266   1.663 -0.1866  0.6135 -0.3061
33745SOL    HW1 3773   2.068   3.232   1.730  0.6115 -0.1372 -1.3944
33745SOL    HW2 3774   1.921   3.259   1.704  0.2098 -0.5980  0.3662
33746SOL     OW 3775   1.928   0.604   4.616  0.0101  0.0490  0.5338
33746SOL    HW1 3776   1.990   0.672   4.591 -0.6699  1.1663  1.8165
33746SOL    HW2 3777   1.866   0.600   4.544  1.9881 -1.6574 -1.1605
33747SOL     OW 3778   4.680   1.933   2.422  0.1552 -0.4613  0.9504
33747SOL    HW1 3779   4.679   1.841   2.395 -1.0083  0.0770 -0.9307
33747SOL    HW2 3780   4.757   1.941   2.478  1.5220 -2.0624 -0.6590
33748SOL     OW 3781   3.849   5.725   6.202 -0.0147  0.8872  0.1623
33748SOL    HW1 3782   3.808   5.727   6.289 -1.5590 -2.3607 -0.3966
33748SOL    HW2 3783   3.928   5.672   6.214 -1.5511 -1.7075 -0.8780
33749SOL     OW 3784   4.516   9.940   9.911  1.1080  0.1706 -0.1619
33749SOL    HW1 3785   4.458   9.864   9.923 -0.3312  0.8755 -2.4215
33749SOL    HW2 3786   4.562   9.947   9.995 -1.5963 -0.8084  1.4873
33750SOL     OW 3787   5.852   9.041   9.570  0.5902  0.4145 -0.3109
33750SOL    HW1 3788   5.891   8.968   9.618 -2.1344 -0.2012  1.0622
33750SOL    HW2 3789   5.895   9.119   9.605  0.6527 -0.2419  1.0862
33751SOL     OW 3790   4.398   6.153   1.459  0.2231 -0.2518  0.2447
33751SOL    HW1 3791   4.365   6.068   1.488 -3.2769  0.9140  0.0252
33751SOL    HW2 3792   4.346   6.217   1.509  0.0899  1.7358 -2.3079
33752SOL     OW 3793   3.386   6.462   1.012 -0.0692  0.0226  0.6336
33752SOL    HW1 3794   3.357   6.395   0.949 -0.9270  1.4984 -0.5628
33752SOL    HW2 3795   3.421   6.411   1.086 -1.5400 -1.7595  0.1478
33753SOL     OW 3796   8.047   7.240   0.099 -0.2316  0.3548 -0.1092
33753SOL    HW1 3797   8.038   7.279   0.186  0.9482 -0.6509  0.4792
33753SOL    HW2 3798   7.957   7.220   0.072 -0.4294 -1.7130  1.9819
33754SOL     OW 3799   7.116   4.969   7.606 -0.0836 -0.4508  0.2859
33754SOL    HW1 3800   7.147   5.049   7.562 -1.2576  0.2907  0.7841
33754SOL    HW2 3801   7.184   4.950   7.670  0.3822 -0.0510 -0.0811
33755SOL     OW 3802   9.791   6.097   6.234 -0.6058 -0.1201  0.2966
33755SOL    HW1 3803   9.750   6.036   6.174 -1.2679  0.1765  0.4383
33755SOL    HW2 3804   9.858   6.046   6.279  1.0927  0.0891 -1.9217
33756SOL     OW 3805   4.400   2.510   6.119 -0.0632 -0.1848  0.4322
33756SOL    HW1 3806   4.415   2.556   6.036  0.1760 -1.0016  0.0163
33756SOL    HW2 3807   4.412   2.577   6.186 -0.9071  0.6447 -0.2178
33757SOL     OW 3808  10.074   5.611   3.226 -0.6047 -0.0434 -0.5606
33757SOL    HW1 3809  10.060   5.572   3.312  0.6124 -0.8740 -0.7347
33757SOL    HW2 3810   9.987   5.641   3.199 -1.0066  0.1627  0.9229
33758SOL     OW 3811   7.233   8.738   7.389 -0.3624  0.1931 -0.2718
33758SOL    HW1 3812   7.261   8.748   7.298 -0.8621  1.3377 -0.3035
33758SOL    HW2 3813   7.315   8.727   7.438 -0.1558 -2.0288 -1.0238
33759SOL     OW 3814   3.690   5.950   1.563 -0.5655 -0.0370  0.2064
33759SOL    HW1 3815   3.662   6.037   1.536 -0.3589  0.5372  1.7939
33759SOL    HW2 3816   3.699   5.956   1.658  0.3415 -1.5299  0.2324
33760SOL     OW 3817   5.495   1.732   4.777  0.7144  0.3874 -0.6154
33760SOL    HW1 3818   5.559   1.691   4.719  0.9925  0.5612 -0.4313
33760SOL    HW2 3819   5.476   1.665   4.843 -2.1049 -1.0750 -2.7625
33761SOL     OW 3820   9.811   1.433   1.119 -0.1417 -0.0293  0.6979
33761SOL    HW1 3821   9.851   1.520   1.114 -1.6183  0.6103 -0.2816
33761SOL    HW2 3822   9.853   1.384   1.048  0.2649  0.0685  0.8699
33762SOL     OW 3823   7.725   9.905   9.938 -0.5036 -0.1867  0.2142
33762SOL    HW1 3824   7.698   9.949  10.019 -0.7587 -0.3842  0.2352
33762SOL    HW2 3825   7.651   9.848   9.915  0.2019 -1.2949  0.6764
33763SOL     OW 3826   5.654   0.983   7.580 -0.3160 -0.2061 -0.9916
33763SOL    HW1 3827   5.698   0.959   7.661 -1.4386  0.6360 -0.0955
33763SOL    HW2 3828   5.626   0.900   7.542  2.0238 -0.7511 -1.6025
33764SOL     OW 3829   5.034   1.384   2.937  0.0438  0.0259 -0.0069
33764SOL    HW1 3830   5.073   1.462   2.898 -0.9102  0.5878  0.1576
33764SOL    HW2 3831   5.108   1.323   2.948  0.3848 -0.0593 -2.4679
33765SOL     OW 3832   8.679   4.976   8.705 -0.1033 -0.0153 -0.0667
33765SOL    HW1 3833   8.631   4.903   8.745 -0.1679 -1.4980 -2.6790
33765SOL    HW2 3834   8.771   4.959   8.727 -0.1257 -0.8821 -0.5919
33766SOL     OW 3835   0.016   5.638   8.758 -0.0810 -0.0522 -0.1747
33766SOL    HW1 3836  -0.047   5.586   8.708 -0.5111 -0.8412  1.1723
33766SOL    HW2 3837   0.083   5.662   8.694 -0.3276 -1.5236 -1.0040
33767SOL     OW 3838   3.889   2.034   0.866  0.0741  0.7170 -0.3663
33767SOL    HW1 3839   3.804   1.990   0.858  0.1448  0.7143 -1.2267
33767SOL    HW2 3840   3.942   1.995   0.797  0.5267  1.2803 -0.3405
33768SOL     OW 3841   0.998   7.797   5.979 -0.2616  0.0050 -0.6988
33768SOL    HW1 3842   1.068   7.816   5.917  1.9975 -4.0604  0.4214
33768SOL    HW2 3843   1.032   7.827   6.064 -1.0465  0.5359 -0.5646
33769SOL     OW 3844   1.886   2.733   2.486 -0.1042 -0.0176  0.3549
33769SOL    HW1 3845   1.799   2.695   2.470 -0.3932  0.6346  0.3814
33769SOL    HW2 3846   1.868   2.821   2.518  0.5699  0.0853  0.4480
33770SOL     OW 3847   2.482   6.573   1.102 -0.2615  0.3108 -0.1059
33770SOL    HW1 3848   2.425   6.497   1.085  0.2888 -0.3360  0.9007
33770SOL    HW2 3849   2.568   6.546   1.072  0.4263 -0.3293  2.3245
33771SOL     OW 3850   8.348   1.043   4.861 -0.3804 -0.0180  0.0459
33771SOL    HW1 3851   8.302   0.983   4.803  2.0793 -2.2220  0.2540
33771SOL    HW2 3852   8.430   1.063   4.816 -0.6606  2.3385  0.4936
33772SOL     OW 3853   6.059   2.313   6.808  0.3962  0.3372 -0.2817
33772SOL    HW1 3854   6.018   2.387   6.762  0.3136  1.1453  1.0558
33772SOL    HW2 3855   6.128   2.353   6.861  1.4085 -0.7496 -0.7427
33773SOL     OW 3856   7.921  10.032   6.685 -0.1170 -0.1440  0.3697
33773SOL    HW1 3857   7.957  10.069   6.766 -0.4666 -2.3515  1.5672
33773SOL    HW2 3858   7.826  10.037   6.696 -0.1644 -0.8044  0.2704
33774SOL     OW 3859   8.036   1.542   2.227  0.2459 -0.0808 -0.0314
33774SOL    HW1 3860   7.982   1.485   2.281  0.9505  0.2781  1.0884
33774SOL    HW2 3861   8.022   1.512   2.137 -0.0001 -1.4940  0.4690
33775SOL     OW 3862   6.881   7.013   6.191 -0.4009 -0.0610 -0.2825
33775SOL    HW1 3863   6.938   6.941   6.217  0.4302  0.8194  0.3556
33775SOL    HW2 3864   6.882   7.073   6.266  0.0010  1.2873 -1.3498
33776SOL     OW 3865   6.678   4.244   5.972  0.2149  0.3807 -0.1026
33776SOL    HW1 3866   6.653   4.187   6.044 -0.3984  1.0963  0.2575
33776SOL    HW2 3867   6.753   4.295   6.005  0.4574  0.1287 -0.2584
33777SOL     OW 3868   2.856   6.878   4.407 -0.0420 -0.2400  0.2005
33777SOL    HW1 3869   2.913   6.914   4.339 -0.8861 -0.8745 -0.8586
33777SOL    HW2 3870   2.778   6.933   4.405  1.4963  2.1590  3.3334
33778SOL     OW 3871   9.122   6.299   7.408  0.3455  0.6522  0.8182
33778SOL    HW1 3872   9.055   6.230   7.402  1.0510 -0.1381  1.9353
33778SOL    HW2 3873   9.125   6.337   7.320  1.1348 -1.8636 -0.2942
33779SOL     OW 3874   8.265   0.577   1.427 -0.1432  0.0631 -0.1297
33779SOL    HW1 3875   8.261   0.640   1.355  0.4086  0.2144 -0.0348
33779SOL    HW2 3876   8.190   0.519   1.414  0.2547 -0.2401 -1.1420
33780SOL     OW 3877   1.455   4.960   4.902  0.3542  0.0307 -0.7697
33780SOL    HW1 3878   1.476   5.047   4.870  2.8493  0.4573  1.8000
33780SOL    HW2 3879   1.498   4.900   4.841 -2.0975  0.5118 -3.0433
33781SOL     OW 3880   2.743   2.355   5.018  0.6233 -0.0900 -0.0445
33781SOL    HW1 3881   2.676   2.359   4.950  0.3411  1.7066  0.3415
33781SOL    HW2 3882   2.822   2.387   4.975  0.8670 -0.6355 -0.0148
33782SOL     OW 3883   4.978   2.061   4.125 -0.0981  0.5159 -0.0964
33782SOL    HW1 3884   5.049   2.124   4.113  2.7261 -1.7524  3.5171
33782SOL    HW2 3885   4.995   1.992   4.061  1.0773 -0.0573  0.8091
33783SOL     OW 3886   5.829   1.643   4.999  0.1052 -0.2991 -0.4332
33783SOL    HW1 3887   5.821   1.735   5.023 -1.6993 -0.7523  0.7396
33783SOL    HW2 3888   5.897   1.642   4.931  2.8252  1.4331  2.1218
33784SOL     OW 3889   1.093   0.344   4.571 -0.1223  0.5371  0.1624
33784SOL    HW1 3890   1.145   0.274   4.531  1.2278  1.8627 -0.4508
33784SOL    HW2 3891   1.156   0.412   4.590 -1.3531  1.3891  1.2332
33785SOL     OW 3892   0.304   0.139   7.882  0.2947  0.1671 -0.4382
33785SOL    HW1 3893   0.232   0.148   7.945 -0.3849  0.7833 -1.2848
33785SOL    HW2 3894   0.352   0.062   7.911  0.0115  0.4657  0.8616
33786SOL     OW 3895   1.403   3.278   9.317  0.4867 -0.1250  0.0632
33786SOL    HW1 3896   1.491   3.298   9.283  0.5954 -0.7451 -0.0384
33786SOL    HW2 3897   1.415   3.272   9.412  0.1912  1.5673  0.2141
33787SOL     OW 3898   1.532   5.807   2.286 -0.3382  0.7528 -0.0468
33787SOL    HW1 3899   1.464   5.802   2.219 -0.8402 -0.2060  0.5191
33787SOL    HW2 3900   1.612   5.778   2.242 -0.5063  0.9046 -0.4480
33788SOL     OW 3901   9.007   5.453   1.682  0.2988 -0.3377  0.0725
33788SOL    HW1 3902   8.921   5.428   1.646  0.0712  1.1203 -0.4069
33788SOL    HW2 3903   9.064   5.380   1.659 -0.4815 -0.6637 -0.8776
33789SOL     OW 3904   7.756   6.058   3.144  0.0601  0.1354 -0.0080
33789SOL    HW1 3905   7.738   6.078   3.236  1.7709  0.0363  0.3548
33789SOL    HW2 3906   7.679   6.008   3.115  0.3760 -1.5663  1.9328
33790SOL     OW 3907   1.761   9.970   3.694 -0.5304 -0.1525  0.2229
33790SOL    HW1 3908   1.773  10.001   3.783  1.9026 -0.0986 -0.0726
33790SOL    HW2 3909   1.814   9.889   3.690 -1.5988 -0.8137 -0.8115
33791SOL     OW 3910   8.349   1.343   8.287  0.2776 -0.1510 -0.1069
33791SOL    HW1 3911   8.439   1.346   8.318 -0.0230 -0.5162  0.8309
33791SOL    HW2 3912   8.348   1.400   8.210  1.3034 -0.1422 -0.1227
33792SOL     OW 3913   5.757   9.907  10.191 -0.0843  0.8492 -0.1080
33792SOL    HW1 3914   5.818   9.980  10.205  0.3895  0.5066 -0.3599
33792SOL    HW2 3915   5.763   9.888  10.097 -0.3390  0.6007 -0.0751
33793SOL     OW 3916   9.921   0.041   1.160 -0.1319  0.0625  0.0724
33793SOL    HW1 3917  10.014   0.039   1.180  0.1747  0.8507 -1.2679
33793SOL    HW2 3918   9.880   0.070   1.242  0.8701  0.6130  0.3846
33794SOL     OW 3919   6.771   8.146   5.371  0.4151 -0.2163 -0.2577
33794SOL    HW1 3920   6.725   8.221   5.334 -0.1512 -0.2122  0.4422
33794SOL    HW2 3921   6.830   8.118   5.301 -0.0196  0.3147 -0.8544
33795SOL     OW 3922  10.191   8.676   7.678 -0.2289 -0.4061 -0.2379
33795SOL    HW1 3923  10.203   8.581   7.674 -1.8438 -0.6576  0.4631
33795SOL    HW2 3924  10.277   8.712   7.656  0.7297 -2.0385  0.7396
33796SOL     OW 3925   9.254   2.387   3.783  0.4289  0.8636 -0.3434
33796SOL    HW1 3926   9.299   2.341   3.854 -2.5920 -0.1643  0.9851
33796SOL    HW2 3927   9.200   2.452   3.827 -0.7883  0.8307 -1.7491
33797SOL     OW 3928   8.048   3.347   1.753  0.9307 -0.0696 -0.5564
33797SOL    HW1 3929   8.124   3.319   1.804  2.0481  1.7933 -1.1291
33797SOL    HW2 3930   8.081   3.417   1.696 -1.4521  1.6135  0.0149
33798SOL     OW 3931   8.527   7.197   3.353  0.5024 -0.3191  0.0687
33798SOL    HW1 3932   8.585   7.268   3.383  1.1468 -0.7980 -0.0330
33798SOL    HW2 3933   8.547   7.188   3.260  0.6238 -0.8230  0.1429
33799SOL     OW 3934   0.791   3.195   7.490 -0.1720  0.1524  0.1121
33799SOL    HW1 3935   0.807   3.138   7.414  0.1274  0.5971 -0.1600
33799SOL    HW2 3936   0.779   3.134   7.563 -1.0676 -0.2976 -0.4003
33800SOL     OW 3937   0.145   1.484   8.186  0.8172  0.3428 -0.1434
33800SOL    HW1 3938   0.190   1.435   8.117  0.2135 -1.5348  0.7618
33800SOL    HW2 3939   0.052   1.475   8.165  0.7391  1.8337 -0.4462
33801SOL     OW 3940   7.867   9.343   5.908 -0.6500 -0.1238  0.0480
33801SOL    HW1 3941   7.777   9.329   5.938 -1.0368  1.3275 -0.3818
33801SOL    HW2 3942   7.905   9.402   5.973 -0.0911 -0.5206  0.0831
33802SOL     OW 3943   3.299  10.006   5.294 -0.1845 -0.1717  0.1765
33802SOL    HW1 3944   3.270   9.916   5.278  1.0665 -0.1989 -2.1870
33802SOL    HW2 3945   3.218  10.055   5.308 -1.0848 -1.1591 -1.3446
33803SOL     OW 3946   1.226   2.735   5.790  0.0567 -0.1025 -0.4562
33803SOL    HW1 3947   1.252   2.644   5.783  1.0872  0.2422 -1.2190
33803SOL    HW2 3948   1.261   2.776   5.711 -1.2602  0.7464 -0.6243
33804SOL     OW 3949   7.994   8.081   9.599 -0.0258 -0.5887 -0.5295
33804SOL    HW1 3950   8.089   8.072   9.593  0.2296  1.0027  0.7520
33804SOL    HW2 3951   7.961   7.994   9.582  1.5770 -0.7967 -2.8757
33805SOL     OW 3952   8.966   3.355   4.574 -0.2150  0.4908 -0.3158
33805SOL    HW1 3953   8.883   3.367   4.527  0.5001  2.3690 -1.1210
33805SOL    HW2 3954   8.940   3.353   4.666 -1.3549 -0.8201 -0.6486
33806SOL     OW 3955   3.419   7.690   5.942  0.0404 -0.3275  0.3560
33806SOL    HW1 3956   3.370   7.738   5.876  0.3178 -0.4565  0.0515
33806SOL    HW2 3957   3.353   7.651   5.998 -0.2103 -0.5825 -0.1104
33807SOL     OW 3958   0.881   4.929   5.742 -0.3923 -0.0921 -0.3566
33807SOL    HW1 3959   0.790   4.954   5.757  0.3106  1.2432  1.8765
33807SOL    HW2 3960   0.928   4.960   5.819  1.7910 -1.7304 -0.9614
33808SOL     OW 3961  10.022   5.998   5.271  0.1681 -0.3284  0.7906
33808SOL    HW1 3962  10.062   5.944   5.203  0.8146 -1.3701  1.9795
33808SOL    HW2 3963   9.999   6.080   5.226  2.1945 -0.3147 -0.2781
33809SOL     OW 3964   5.868   5.198   2.029  0.3289  0.1193  0.7567
33809SOL    HW1 3965   5.804   5.243   2.084 -0.8152 -0.4183 -0.0991
33809SOL    HW2 3966   5.947   5.195   2.081 -0.3219  0.8746  1.8109
33810SOL     OW 3967  10.110   5.397   0.506  0.0183  0.3527 -0.5111
33810SOL    HW1 3968  10.079   5.458   0.574 -1.2398 -0.3272 -0.4661
33810SOL    HW2 3969  10.199   5.427   0.486 -0.0350  1.2875  0.5891
33811SOL     OW 3970   1.118   4.081   4.589  0.3455 -0.6213  0.2294
33811SOL    HW1 3971   1.168   4.036   4.657  0.5337 -0.0492  0.4777
33811SOL    HW2 3972   1.069   4.148   4.637 -1.0020 -1.4692  0.0460
33812SOL     OW 3973   1.916   8.408   7.328  0.6708 -0.2238 -0.8109
33812SOL    HW1 3974   2.007   8.384   7.348 -0.2670 -2.8535  0.5105
33812SOL    HW2 3975   1.885   8.338   7.270 -1.0923 -0.3770  0.2834
33813SOL     OW 3976   9.359   9.103   5.384 -0.6860  0.5158 -0.6372
33813SOL    HW1 3977   9.293   9.168   5.407 -2.7715 -1.7446 -0.0369
33813SOL    HW2 3978   9.396   9.075   5.468 -0.3629  0.3242 -0.8407
33814SOL     OW 3979   5.168   7.129   7.521  0.0958  0.0267 -0.2459
33814SOL    HW1 3980   5.141   7.129   7.613 -1.4254 -1.9212 -0.6565
33814SOL    HW2 3981   5.123   7.205   7.484 -0.3478  0.0523  0.3243
33815SOL     OW 3982   9.495   2.055  10.079  0.1732 -0.3749  0.8653
33815SOL    HW1 3983   9.441   2.134  10.082 -0.9339 -1.0103 -1.1744
33815SOL    HW2 3984   9.585   2.087  10.081 -0.2677  0.8894  0.8400
33816SOL     OW 3985   6.861   8.979   4.187 -0.8247  0.1780 -0.4459
33816SOL    HW1 3986   6.823   8.899   4.151  1.1104 -0.7681 -0.4951
33816SOL    HW2 3987   6.810   8.997   4.265 -0.8552 -1.5034 -0.0602
33817SOL     OW 3988   7.581  10.196   2.773 -0.1039  0.1620 -0.1440
33817SOL    HW1 3989   7.501  10.189   2.720 -1.3040  1.0830  1.4979
33817SOL    HW2 3990   7.611  10.105   2.783 -1.7324 -0.3401  0.3665
33818SOL     OW 3991   5.651  10.050   0.608 -0.0713 -0.4598 -0.5430
33818SOL    HW1 3992   5.578  10.107   0.630 -0.9004 -0.4533 -3.1056
33818SOL    HW2 3993   5.659   9.991   0.683 -1.7694  0.4714  0.3947
33819SOL     OW 3994   1.830   9.594   8.014  0.4902 -0.1659 -0.0256
33819SOL    HW1 3995   1.765   9.661   8.035  0.9661  0.6278 -0.9959
33819SOL    HW2 3996   1.896   9.641   7.963  0.3037 -1.6037 -1.6384
33820SOL     OW 3997   8.786   0.052   1.496 -0.6299  0.3712  0.0445
33820SOL    HW1 3998   8.751  -0.032   1.468 -3.1326  1.1280  0.7600
33820SOL    HW2 3999   8.777   0.108   1.419  0.4945  0.1516 -0.2526
33821SOL     OW 4000   6.797   2.974   3.629  0.2836 -1.0171  0.3759
33821SOL    HW1 4001   6.758   2.910   3.570  1.8326 -2.6634  1.0828
33821SOL    HW2 4002   6.862   3.020   3.575  1.1442 -1.9859  0.5623
33822SOL     OW 4003   7.741   4.559   5.618  0.3158 -0.1191 -0.5954
33822SOL    HW1 4004   7.686   4.603   5.684  0.7618  0.5464 -0.6683
33822SOL    HW2 4005   7.691   4.480   5.595 -0.4441  0.2947 -0.3947
33823SOL     OW 4006   0.970   0.638   7.312  0.7470 -0.4748  0.3625
33823SOL    HW1 4007   0.984   0.704   7.244 -1.0037 -0.5253 -0.0722
33823SOL    HW2 4008   1.055   0.629   7.355  1.1688  1.5843 -0.0052
33824SOL     OW 4009   6.096   7.259   3.140 -0.5777 -0.3308 -0.1344
33824SOL    HW1 4010   6.138   7.229   3.221 -1.4669  0.0379  0.4733
33824SOL    HW2 4011   6.163   7.311   3.096  0.4285 -1.8113 -0.3958
33825SOL     OW 4012   5.252   9.363   8.353  0.5808  0.4499  0.5524
33825SOL    HW1 4013   5.314   9.435   8.344 -0.3417  0.9935 -2.0335
33825SOL    HW2 4014   5.171   9.405   8.383 -0.0687  0.6208 -1.3173
33826SOL     OW 4015   9.319   0.526   0.557  0.1781  0.3131  0.0378
33826SOL    HW1 4016   9.304   0.556   0.646  0.4839  1.9279 -0.4402
33826SOL    HW2 4017   9.363   0.599   0.514  0.6985 -0.7296 -1.2349
33827SOL     OW 4018  10.021   9.750   5.164  0.0853 -0.2183  0.4780
33827SOL    HW1 4019   9.940   9.794   5.187  0.5405  1.2535 -0.6169
33827SOL    HW2 4020  10.088   9.791   5.219  0.9307  2.2912 -2.3080
33828SOL     OW 4021   2.207   1.309   5.274  0.5339  0.1187  0.0823
33828SOL    HW1 4022   2.177   1.384   5.221  2.4092 -0.2563 -1.5859
33828SOL    HW2 4023   2.240   1.348   5.355  1.3620  1.1123 -0.7169
33829SOL     OW 4024   0.210   4.494   9.430  0.7404 -0.7292 -0.1212
33829SOL    HW1 4025   0.126   4.450   9.416  1.6397 -2.3398 -0.5503
33829SOL    HW2 4026   0.274   4.423   9.436  1.9226  0.4299  1.3617
33830SOL     OW 4027   0.948   2.624   8.351 -0.8503 -0.0533 -0.4667
33830SOL    HW1 4028   0.993   2.687   8.407  2.2424 -0.8232 -1.9949
33830SOL    HW2 4029   1.004   2.615   8.274 -2.4352 -2.8698 -1.3753
33831SOL     OW 4030   5.087   8.728   7.593 -0.5558  0.3290 -0.6546
33831SOL    HW1 4031   4.996   8.744   7.616  0.0629  1.3768  1.1357
33831SOL    HW2 4032   5.137   8.783   7.653  1.3633 -2.2263  0.1424
33832SOL     OW 4033   5.873   6.938   8.450 -0.5952  0.6819  0.5630
33832SOL    HW1 4034   5.866   7.000   8.522  0.4867  0.8270  0.5418
33832SOL    HW2 4035   5.917   6.862   8.487 -0.4698  0.5619  0.1739
33833SOL     OW 4036   1.434   8.736   2.151 -0.3090 -0.3926  0.8501
33833SOL    HW1 4037   1.467   8.696   2.231 -0.9746 -1.8018  0.4545
33833SOL    HW2 4038   1.338   8.731   2.159 -0.4303 -3.0459 -1.1435
33834SOL     OW 4039   9.480   9.490   4.012 -0.1747  0.6068  0.4786
33834SOL    HW1 4040   9.522   9.404   4.009 -1.2086  0.1040  0.2827
33834SOL    HW2 4041   9.518   9.538   3.939 -1.2580 -0.4640 -0.8144
33835SOL     OW 4042   6.149   6.932   8.271  0.2877  0.3657 -0.5951
33835SOL    HW1 4043   6.054   6.947   8.275 -0.0647 -1.7999 -0.4024
33835SOL    HW2 4044   6.174   6.962   8.183 -0.7702 -0.0862 -1.0676
33836SOL     OW 4045   3.202  10.043   6.801  0.3943 -1.1717  0.6523
33836SOL    HW1 4046   3.277  10.080   6.755 -0.6197  1.2367  0.8549
33836SOL    HW2 4047   3.237  10.016   6.886  1.4344 -1.8702  0.0055
33837SOL     OW 4048   5.468   3.323   6.450  0.2738  0.0555  0.4130
33837SOL    HW1 4049   5.428   3.276   6.377 -0.5055  1.2908  0.0161
33837SOL    HW2 4050   5.554   3.350   6.417 -0.0668  0.5860 -0.0414
33838SOL     OW 4051   0.047   4.711   4.702 -0.7496 -0.5529 -0.3837
33838SOL    HW1 4052   0.056   4.624   4.663 -2.2612 -1.9573  2.2649
33838SOL    HW2 4053   0.090   4.769   4.640  4.3118 -3.6944 -0.1698
33839SOL     OW 4054   6.728   2.297   7.631 -0.3207 -0.4488  0.2976
33839SOL    HW1 4055   6.790   2.335   7.693 -1.0301  0.2294  0.5988
33839SOL    HW2 4056   6.759   2.327   7.545 -2.4407  3.2434  0.6874
33840SOL     OW 4057   1.345   0.805   5.775 -0.6155 -0.4496  0.2783
33840SOL    HW1 4058   1.392   0.797   5.858 -0.3099 -2.1786 -0.0430
33840SOL    HW2 4059   1.339   0.716   5.742 -1.1088  0.1682 -1.3584
33841SOL     OW 4060   5.814   9.246   4.704  0.2393  0.0826 -0.3875
33841SOL    HW1 4061   5.850   9.297   4.776 -0.0398  1.4323 -1.1730
33841SOL    HW2 4062   5.854   9.160   4.713  0.9769  0.5325  0.7826
33842SOL     OW 4063   0.134   5.702   6.448  0.5120  0.1125 -0.2627
33842SOL    HW1 4064   0.077   5.765   6.492  0.6996  1.5025 -1.9537
33842SOL    HW2 4065   0.114   5.618   6.490 -1.6030  0.8579  0.2878
33843SOL     OW 4066   9.454   9.985   6.072  0.3580  0.1651  0.2191
33843SOL    HW1 4067   9.406   9.988   5.989 -1.6457  0.0138  1.3656
33843SOL    HW2 4068   9.507   9.905   6.065  0.2294  0.1614 -0.9143
33844SOL     OW 4069   1.221   3.875   1.244 -0.1017 -0.1740 -0.3899
33844SOL    HW1 4070   1.214   3.956   1.296  0.6024  0.1208 -0.7546
33844SOL    HW2 4071   1.130   3.850   1.227 -0.3382  1.4470 -1.6597
33845SOL     OW 4072   7.375   0.082   5.513  0.0472  0.4359 -0.4276
33845SOL    HW1 4073   7.378   0.105   5.606 -1.2408 -1.0942  0.0261
33845SOL    HW2 4074   7.282   0.089   5.490  0.5536  2.1603 -1.9642
33846SOL     OW 4075   1.002   9.730   8.804  0.2851  0.4011 -0.5409
33846SOL    HW1 4076   1.093   9.726   8.774 -0.1064 -0.5382 -1.6200
33846SOL    HW2 4077   0.971   9.816   8.777  0.6155  0.4147 -0.8722
33847SOL     OW 4078   9.668   3.710   0.086  0.2816 -0.0085  0.2129
33847SOL    HW1 4079   9.699   3.734  -0.001  0.3428 -0.5294  0.0889
33847SOL    HW2 4080   9.611   3.782   0.112  0.8135  0.4870  0.0311
33848SOL     OW 4081   7.180   5.758   9.087 -0.2097  0.6200 -0.4219
33848SOL    HW1 4082   7.221   5.732   9.004  0.1303  0.1475 -0.1065
33848SOL    HW2 4083   7.249   5.803   9.135 -0.3127  0.5948 -0.2511
33849SOL     OW 4084   0.576  10.061   8.588  0.7115 -0.4523  0.5214
33849SOL    HW1 4085   0.515   9.991   8.611  0.1887  0.1403  0.9631
33849SOL    HW2 4086   0.633  10.023   8.522  1.2566 -1.7054  1.7086
33850SOL     OW 4087  10.194   5.700   7.606 -0.3830  0.4278  1.0907
33850SOL    HW1 4088  10.266   5.664   7.555 -1.3426 -0.1336  0.0919
33850SOL    HW2 4089  10.117   5.653   7.575 -1.5534  2.7361  0.3778
33851SOL     OW 4090   8.626   6.866   5.765 -0.6550  0.1980 -0.0731
33851SOL    HW1 4091   8.607   6.958   5.747  2.4212  0.8801 -0.0504
33851SOL    HW2 4092   8.591   6.851   5.853 -0.3149  1.6160  0.3105
33852SOL     OW 4093   7.858   0.444   3.418  0.4660 -0.1956 -0.1880
33852SOL    HW1 4094   7.872   0.380   3.349 -1.6460 -0.8806 -0.0136
33852SOL    HW2 4095   7.909   0.520   3.390  0.0246 -0.6220 -2.2773
33853SOL     OW 4096   9.979   2.356   3.773  0.3103 -0.2685  0.2544
33853SOL    HW1 4097   9.896   2.358   3.726  2.0224 -1.1386 -2.9874
33853SOL    HW2 4098  10.017   2.443   3.759  0.1253 -0.0041  1.3838
33854SOL     OW 4099   5.111   5.449   2.873 -0.5930 -0.8258 -0.2762
33854SOL    HW1 4100   5.054   5.466   2.798 -1.5614  0.2883  0.6961
33854SOL    HW2 4101   5.200   5.463   2.838 -1.0328 -0.2369 -1.2009
33855SOL     OW 4102   8.061   2.160   5.651 -0.1234  0.4317  0.6981
33855SOL    HW1 4103   8.096   2.077   5.683 -0.0455  0.0015 -0.4691
33855SOL    HW2 4104   8.100   2.170   5.564 -1.3052  0.9683  0.2283
33856SOL     OW 4105   8.663   2.892   0.238  0.7884 -0.2692 -0.1279
33856SOL    HW1 4106   8.658   2.798   0.256  0.2328 -0.1360  0.4111
33856SOL    HW2 4107   8.642   2.899   0.144  2.3934 -0.8274 -0.5314
33857SOL     OW 4108   9.426   9.689   8.141  0.2462 -0.2852 -0.2502
33857SOL    HW1 4109   9.460   9.623   8.080 -0.9598  0.5265 -1.8211
33857SOL    HW2 4110   9.455   9.658   8.227  0.7119 -2.2300 -1.0665
33858SOL     OW 4111   3.442   2.501   7.624 -0.1156  0.1427 -0.3012
33858SOL    HW1 4112   3.460   2.442   7.696 -1.3013  1.3975  1.0499
33858SOL    HW2 4113   3.405   2.445   7.555  0.8336 -1.0217  0.1243
33859SOL     OW 4114   6.467   2.351   2.832  0.0869  0.0436  0.4762
33859SOL    HW1 4115   6.522   2.290   2.784  2.0856  1.8466  0.3875
33859SOL    HW2 4116   6.449   2.422   2.770 -0.1353  0.7443  1.3214
33860SOL     OW 4117   3.124   4.903   8.383 -0.0047 -0.3012  0.7201
33860SOL    HW1 4118   3.110   4.993   8.352  3.1129 -0.2401 -0.6786
33860SOL    HW2 4119   3.036   4.871   8.402 -1.4130  2.2009 -1.2104
33861SOL     OW 4120   4.706   0.126   6.684  0.6433 -0.2618 -0.1971
33861SOL    HW1 4121   4.634   0.068   6.710  0.4159 -0.3200 -0.9519
33861SOL    HW2 4122   4.742   0.157   6.767  0.3903 -1.0226  0.2075
33862SOL     OW 4123   6.753   1.782   0.725 -0.2035 -0.4603 -0.0255
33862SOL    HW1 4124   6.733   1.696   0.762  0.9609 -0.7983 -0.1664
33862SOL    HW2 4125   6.831   1.811   0.772  0.2948 -0.1482 -1.0293
33863SOL     OW 4126   4.559   1.665   6.556  0.6907  0.0299  0.2547
33863SOL    HW1 4127   4.538   1.748   6.514 -1.3792 -0.9747 -0.8089
33863SOL    HW2 4128   4.484   1.647   6.613  1.5467 -0.6568  1.1858
33864SOL     OW 4129   5.386   7.975   3.047 -0.6100  0.0489  0.3842
33864SOL    HW1 4130   5.391   7.915   3.122 -0.6923 -1.4408 -0.7684
33864SOL    HW2 4131   5.348   7.922   2.977 -0.4353  1.3917 -0.7533
33865SOL     OW 4132   6.372   6.398   8.933  0.4249 -0.3342  0.2585
33865SOL    HW1 4133   6.440   6.441   8.881 -1.0606  0.3627 -1.1676
33865SOL    HW2 4134   6.342   6.325   8.878 -0.3253 -0.3242  0.6428
33866SOL     OW 4135   7.029   4.736   3.581  0.0748 -0.1505  0.5897
33866SOL    HW1 4136   6.949   4.778   3.611 -0.1000 -1.3399  1.8216
33866SOL    HW2 4137   7.045   4.666   3.645  0.1770 -2.1690 -1.5748
33867SOL     OW 4138   2.233   6.450   8.496  0.0142 -0.6007  0.0073
33867SOL    HW1 4139   2.181   6.414   8.568 -1.8612  0.7362 -0.6562
33867SOL    HW2 4140   2.321   6.458   8.533 -1.4002  2.2889  2.9787
33868SOL     OW 4141   6.586   4.892   9.675  0.1811 -0.7327  0.1357
33868SOL    HW1 4142   6.499   4.851   9.683 -0.0591 -0.3615 -0.5698
33868SOL    HW2 4143   6.628   4.874   9.759 -0.7448 -0.5329  0.6481
33869SOL     OW 4144   3.093   1.251   9.756 -0.2787  0.2094 -0.3702
33869SOL    HW1 4145   3.138   1.326   9.797  0.8796  1.0494 -3.0670
33869SOL    HW2 4146   3.164   1.194   9.726 -1.1378 -1.2378  0.3043
33870SOL     OW 4147   5.599   1.792   2.146  0.1052 -0.2827 -0.5360
33870SOL    HW1 4148   5.535   1.721   2.137  1.9975 -2.1513  0.1027
33870SOL    HW2 4149   5.561   1.865   2.098 -1.4086 -2.0862 -2.1903
33871SOL     OW 4150   5.571  10.116   6.372 -0.0275  0.2952  0.4679
33871SOL    HW1 4151   5.517  10.173   6.317  0.6488  1.4035  0.9496
33871SOL    HW2 4152   5.549  10.140   6.462 -0.2788 -0.7194  0.6916
33872SOL     OW 4153   9.987   1.783   8.232  0.1653  0.1512 -0.4597
33872SOL    HW1 4154   9.917   1.828   8.185 -0.4533 -0.3021  0.0148
33872SOL    HW2 4155   9.947   1.702   8.264  1.4453 -1.0615 -1.8651
33873SOL     OW 4156   8.294   6.631   9.762 -0.0921  0.1854  0.5046
33873SOL    HW1 4157   8.215   6.626   9.709  0.8542 -0.9490 -0.8570
33873SOL    HW2 4158   8.333   6.715   9.741 -0.8595  0.6900  1.0831
33874SOL     OW 4159   6.570   9.854   7.808 -0.5476 -0.1139  1.0452
33874SOL    HW1 4160   6.588   9.942   7.843 -1.4160  1.4985 -2.3054
33874SOL    HW2 4161   6.477   9.840   7.827 -1.0714  0.8483 -0.6603
33875SOL     OW 4162   4.293   5.501   7.390  0.1634 -0.1820 -0.3175
33875SOL    HW1 4163   4.327   5.412   7.380 -0.2136 -0.4849  0.9847
33875SOL    HW2 4164   4.198   5.491   7.379  0.3006  0.3578 -2.0407
33876SOL     OW 4165   2.469   7.438   8.636 -0.3384 -0.2732  0.0686
33876SOL    HW1 4166   2.381   7.476   8.642 -0.6974 -0.7923 -1.8752
33876SOL    HW2 4167   2.469   7.390   8.554  1.9788  0.2455 -0.2490
33877SOL     OW 4168   8.345   2.101   9.216 -0.0545  0.0051  0.1976
33877SOL    HW1 4169   8.424   2.151   9.237  0.6981 -0.7949 -0.7196
33877SOL    HW2 4170   8.377   2.018   9.182 -1.2943 -0.1493 -0.6089
33878SOL     OW 4171   7.380   1.556   5.721 -0.5439  0.1403 -0.5409
33878SOL    HW1 4172   7.289   1.530   5.708 -0.2617 -1.0236 -0.2878
33878SOL    HW2 4173   7.415   1.490   5.781 -0.2546  2.0782  1.5233
33879SOL     OW 4174   4.489   9.604   1.898  0.3893 -0.0978  0.0431
33879SOL    HW1 4175   4.477   9.695   1.928  0.0263 -0.4572  1.0225
33879SOL    HW2 4176   4.573   9.605   1.852  1.3350  0.3383  1.7227
33880SOL     OW 4177   7.246   0.203   7.600 -0.1704 -0.1144  0.5594
33880SOL    HW1 4178   7.264   0.136   7.534 -1.6744  0.2429 -0.2524
33880SOL    HW2 4179   7.237   0.154   7.682  2.3060 -0.5012  0.6333
33881SOL     OW 4180   1.144   1.162   3.631 -0.5801 -0.8267 -0.2966
33881SOL    HW1 4181   1.062   1.158   3.681 -1.7085 -1.2486 -2.1495
33881SOL    HW2 4182   1.121   1.206   3.550  0.3489 -3.5010 -2.0930
33882SOL     OW 4183   1.563   0.938   4.146 -0.4478  0.3672 -0.7304
33882SOL    HW1 4184   1.625   0.866   4.157 -1.5434 -0.2350  1.8171
33882SOL    HW2 4185   1.618   1.016   4.141  0.6646 -0.4636 -2.0720
33883SOL     OW 4186   5.626   4.030   6.665  0.5415  0.2924 -0.1452
33883SOL    HW1 4187   5.673   3.995   6.589 -0.4314  1.0243 -1.1125
33883SOL    HW2 4188   5.613   4.123   6.644 -1.2031  0.1346  0.1548
33884SOL     OW 4189   4.865   0.777   9.543  0.4323  0.2876 -1.7429
33884SOL    HW1 4190   4.789   0.762   9.486 -0.4720  0.0264 -0.4925
33884SOL    HW2 4191   4.938   0.790   9.483 -0.6770  0.9228 -2.9840
33885SOL     OW 4192   5.409   0.683   3.737 -0.0524  0.3725  0.0595
33885SOL    HW1 4193   5.489   0.725   3.706  1.1557 -1.5225  0.5430
33885SOL    HW2 4194   5.434   0.640   3.819 -1.3427 -0.9647 -0.2177
33886SOL     OW 4195   3.321   1.535   2.535  0.0125  0.4023 -0.0030
33886SOL    HW1 4196   3.292   1.583   2.458  0.2872  1.7119  0.6708
33886SOL    HW2 4197   3.412   1.563   2.547  0.1070 -0.1239  0.5310
33887SOL     OW 4198   1.243   7.590   5.337  0.1245 -0.6538 -0.0300
33887SOL    HW1 4199   1.157   7.550   5.330 -0.1177 -0.9433  3.8747
33887SOL    HW2 4200   1.305   7.517   5.333  0.1877 -0.5439 -1.6542
33888SOL     OW 4201   0.340   2.328   2.818 -0.0952 -0.4007 -0.0042
33888SOL    HW1 4202   0.254   2.346   2.780 -0.4677  1.0952  1.5093
33888SOL    HW2 4203   0.321   2.290   2.904  0.6578  3.6372  2.0885
33889SOL     OW 4204   3.188   8.961   1.332  0.0303 -0.1751 -0.5979
33889SOL    HW1 4205   3.230   8.875   1.335  0.5978  0.0939 -0.7882
33889SOL    HW2 4206   3.201   8.991   1.242  1.4418  0.9060 -0.0522
33890SOL     OW 4207   7.008   4.113   0.498 -0.2267  0.1440 -0.0529
33890SOL    HW1 4208   7.063   4.119   0.576  1.1445  0.8999 -1.0579
33890SOL    HW2 4209   7.059   4.156   0.430 -2.4423  1.6865 -0.7907
33891SOL     OW 4210   7.012   5.837   7.755 -0.1719 -0.5077  0.7978
33891SOL    HW1 4211   6.925   5.877   7.759 -0.3276 -0.6451 -0.9615
33891SOL    HW2 4212   7.021   5.809   7.664  1.7509 -0.4053  0.9465
33892SOL     OW 4213   3.830   4.620   2.528  0.5493 -0.1591 -0.6636
33892SOL    HW1 4214   3.822   4.561   2.454  2.2036 -1.4967  0.1930
33892SOL    HW2 4215   3.909   4.671   2.510  2.1998 -1.9806  1.1602
33893SOL     OW 4216   7.508   0.817   1.455  0.5993 -0.3484  0.8313
33893SOL    HW1 4217   7.468   0.742   1.501  0.5855 -0.8455  0.0176
33893SOL    HW2 4218   7.460   0.822   1.373  1.7709 -0.5408  0.1290
33894SOL     OW 4219   9.249   6.022   1.013 -0.3109  0.1769  0.6384
33894SOL    HW1 4220   9.202   6.061   0.939 -0.4227  0.9241  1.1037
33894SOL    HW2 4221   9.330   6.072   1.019  2.0345 -3.0726 -2.1211
33895SOL     OW 4222   6.826   6.280   9.500  0.4684 -0.1213 -0.3328
33895SOL    HW1 4223   6.772   6.238   9.433  1.6887  0.9733 -2.0468
33895SOL    HW2 4224   6.904   6.310   9.453  2.0515 -0.6483  1.8735
33896SOL     OW 4225   4.820   4.255   3.133 -0.4340  0.1925 -0.8190
33896SOL    HW1 4226   4.811   4.349   3.148  0.9484  0.3298 -0.8053
33896SOL    HW2 4227   4.851   4.248   3.042  0.6664 -0.1810 -0.4238
33897SOL     OW 4228   7.619   2.096   4.163 -0.6647  0.4386 -0.0068
33897SOL    HW1 4229   7.604   2.075   4.255  2.1518 -4.3934 -0.4745
33897SOL    HW2 4230   7.669   2.178   4.166 -1.2292  0.7606  2.6805
33898SOL     OW 4231   7.418   2.309   7.418 -0.3243  0.9877  0.6026
33898SOL    HW1 4232   7.409   2.220   7.450 -0.2464  0.2937 -1.2226
33898SOL    HW2 4233   7.395   2.365   7.492  0.8409 -0.5308  2.1350
33899SOL     OW 4234  10.185   1.133   7.977 -0.2234  0.2842  0.0894
33899SOL    HW1 4235  10.256   1.176   7.929  0.0401  1.7094  1.7242
33899SOL    HW2 4236  10.155   1.064   7.918 -0.4041  2.4355 -2.4097
33900SOL     OW 4237   5.287   2.992   6.957 -0.1308 -0.3775  0.0232
33900SOL    HW1 4238   5.309   3.045   6.880  2.7000 -0.2995  0.8375
33900SOL    HW2 4239   5.202   2.954   6.936 -0.4310  1.4023 -2.2072
33901SOL     OW 4240   2.530   2.837   1.284 -0.1162 -0.3155 -0.0747
33901SOL    HW1 4241   2.447   2.871   1.317  0.1929 -1.2011  1.6264
33901SOL    HW2 4242   2.505   2.763   1.229 -0.4153 -0.9172  0.8687
33902SOL     OW 4243   1.747   1.138   7.472  0.1157  0.3940  0.6878
33902SOL    HW1 4244   1.672   1.078   7.476  0.8780 -0.5948  0.3173
33902SOL    HW2 4245   1.708   1.225   7.477 -1.4753  0.1078 -4.1168
33903SOL     OW 4246   6.372   5.154   6.185  0.1595  0.0094  0.7898
33903SOL    HW1 4247   6.316   5.093   6.233 -0.8585  0.8367  0.6598
33903SOL    HW2 4248   6.317   5.186   6.113  0.7002  1.0728  0.8384
33904SOL     OW 4249   5.244   7.781   6.964  0.9364  0.4522  0.0295
33904SOL    HW1 4250   5.153   7.806   6.953  0.8237  0.0085 -0.0482
33904SOL    HW2 4251   5.253   7.767   7.059  0.3200 -1.7896 -0.2131
33905SOL     OW 4252   1.214   2.730   1.453 -0.4073  0.2498 -0.4905
33905SOL    HW1 4253   1.246   2.664   1.393 -1.6771  0.0947 -1.0048
33905SOL    HW2 4254   1.288   2.790   1.465  0.1162 -0.1858 -1.5326
33906SOL     OW 4255   3.554   6.285   5.436  0.2274 -0.4574  0.6536
33906SOL    HW1 4256   3.515   6.369   5.410  0.3435 -1.3472 -2.4881
33906SOL    HW2 4257   3.492   6.251   5.501  0.5936  2.3847  2.6154
33907SOL     OW 4258   2.158   0.918   9.837  0.2258  0.2370 -0.0243
33907SOL    HW1 4259   2.226   0.934   9.772  0.4790  1.3005  0.4922
33907SOL    HW2 4260   2.161   0.994   9.894 -0.9084 -0.0480  0.4344
33908SOL     OW 4261   0.129   6.407   2.086 -1.0340  0.0049 -0.0061
33908SOL    HW1 4262   0.148   6.435   2.176 -0.0324  0.8783 -0.4768
33908SOL    HW2 4263   0.198   6.447   2.033 -1.8529 -0.1512 -1.2263
33909SOL     OW 4264   4.433   2.221   8.441  0.1633  0.9377  0.2087
33909SOL    HW1 4265   4.405   2.169   8.516  0.9490 -0.7294 -0.6189
33909SOL    HW2 4266   4.516   2.259   8.469  0.9920 -0.5381 -0.1581
33910SOL     OW 4267   8.712   4.533   6.726 -0.5860  0.1588  0.6125
33910SOL    HW1 4268   8.742   4.588   6.654 -0.3297 -0.3256  0.3466
33910SOL    HW2 4269   8.618   4.550   6.732 -0.6460  0.0436  0.0278
33911SOL     OW 4270   6.042   7.272   8.518 -0.1283  0.1153 -0.3947
33911SOL    HW1 4271   5.993   7.198   8.555  1.9989 -0.3556  1.5470
33911SOL    HW2 4272   6.056   7.247   8.427  2.0215 -2.7228  0.6285
33912SOL     OW 4273   9.619   2.177   6.165 -0.0077 -0.7278  0.5554
33912SOL    HW1 4274   9.602   2.117   6.092  0.3229 -0.3262  0.1466
33912SOL    HW2 4275   9.545   2.237   6.165 -1.1813 -2.1165  1.9830
33913SOL     OW 4276   1.047   1.181   3.298 -0.0328  0.0693 -0.8367
33913SOL    HW1 4277   1.037   1.275   3.310  2.7166  0.2243  0.7366
33913SOL    HW2 4278   1.115   1.173   3.231 -0.5383 -0.8024 -1.2556
33914SOL     OW 4279   7.020   8.711   3.273 -0.0767  0.4869 -0.2650
33914SOL    HW1 4280   7.083   8.641   3.290 -0.9041  0.4567  3.0164
33914SOL    HW2 4281   7.073   8.788   3.253  0.9091 -0.1684 -0.1838
33915SOL     OW 4282   7.286   6.425   5.487  0.6379 -0.3145 -0.2164
33915SOL    HW1 4283   7.315   6.335   5.469 -0.3037 -0.4251 -1.2365
33915SOL    HW2 4284   7.198   6.429   5.450  1.0919  1.3630 -1.1707
33916SOL     OW 4285   0.171   5.959   1.569  0.2517 -0.0127 -0.0052
33916SOL    HW1 4286   0.259   5.980   1.536  0.2896  0.1665  0.2103
33916SOL    HW2 4287   0.118   6.036   1.545 -0.0335 -0.4568 -0.8413
33917SOL     OW 4288   9.408   5.116   0.130  0.4250  0.6435  0.1211
33917SOL    HW1 4289   9.366   5.160   0.057 -0.7849 -3.3615 -1.7172
33917SOL    HW2 4290   9.375   5.162   0.208 -3.6352  0.7035 -1.5052
33918SOL     OW 4291   1.526   9.998   6.132 -0.0562 -0.8865 -0.1127
33918SOL    HW1 4292   1.513   9.903   6.141 -1.9877 -0.7884 -1.3346
33918SOL    HW2 4293   1.438  10.035   6.140  0.2717  0.5339 -2.3627
33919SOL     OW 4294   8.508   2.208   7.167 -0.0513  0.1921  0.4712
33919SOL    HW1 4295   8.486   2.294   7.203 -1.5837  0.8504 -1.8770
33919SOL    HW2 4296   8.603   2.202   7.172 -0.1018  1.1392  2.5834
33920SOL     OW 4297   1.837   1.193   7.891 -0.2164  0.1187  0.4249
33920SOL    HW1 4298   1.770   1.142   7.935  0.1231  0.7799  1.7440
33920SOL    HW2 4299   1.813   1.284   7.907  0.1286  0.3726 -0.4349
33921SOL     OW 4300   8.004   5.039   3.429 -0.1242 -0.4526 -0.2872
33921SOL    HW1 4301   8.080   5.012   3.481 -0.5672 -0.4955  0.3505
33921SOL    HW2 4302   7.996   5.133   3.445  0.2250 -0.3183 -0.9215
33922SOL     OW 4303   2.056  10.180   4.823 -0.3861  0.2647 -0.1919
33922SOL    HW1 4304   2.013  10.167   4.738  1.6269  0.2373 -1.2436
33922SOL    HW2 4305   2.056  10.275   4.835 -0.7108  0.2656 -0.1789
33923SOL     OW 4306   4.702   7.378   7.510 -0.4786 -0.1206 -0.2631
33923SOL    HW1 4307   4.637   7.316   7.477 -1.9796  0.1331  2.1613
33923SOL    HW2 4308   4.692   7.455   7.455 -2.6567  0.1404  0.4708
33924SOL     OW 4309   3.316   1.694   3.849 -0.2170  0.0619  0.6613
33924SOL    HW1 4310   3.242   1.636   3.833 -0.4115 -0.0250  1.8100
33924SOL    HW2 4311   3.304   1.724   3.940  1.0204  0.2331  0.7809
33925SOL     OW 4312   3.855   0.060   3.189 -0.5105 -0.2955 -0.4590
33925SOL    HW1 4313   3.847  -0.031   3.217 -0.3694 -0.3413 -0.5649
33925SOL    HW2 4314   3.914   0.099   3.254 -0.5054 -0.3002 -0.4608
33926SOL     OW 4315   6.856   3.163   4.623 -0.0221 -0.1624 -0.7944
33926SOL    HW1 4316   6.921   3.092   4.629 -0.4316 -0.5004 -0.2944
33926SOL    HW2 4317   6.822   3.171   4.712  0.8179  1.4211 -0.5997
33927SOL     OW 4318   8.144   2.160   3.025 -0.0330 -0.3287  0.0406
33927SOL    HW1 4319   8.195   2.211   2.961 -0.8032 -0.3762 -0.6188
33927SOL    HW2 4320   8.171   2.194   3.110  0.6650  0.0552 -0.3304
33928SOL     OW 4321   6.920   0.297   8.219 -0.0368 -0.3151 -0.2676
33928SOL    HW1 4322   6.979   0.230   8.255 -0.6904 -1.0253 -0.5051
33928SOL    HW2 4323   6.867   0.250   8.155 -1.8247  0.0029  0.9403
33929SOL     OW 4324   6.381   8.541   4.359  0.4561  0.3094  0.3379
33929SOL    HW1 4325   6.435   8.614   4.388  0.6020  0.4417 -0.2379
33929SOL    HW2 4326   6.405   8.469   4.416  0.6739  0.5821  0.5899
33930SOL     OW 4327   0.091   7.272   3.974 -0.2769  0.0186 -0.2335
33930SOL    HW1 4328   0.153   7.336   3.940 -0.3387 -0.1622 -0.6927
33930SOL    HW2 4329   0.016   7.278   3.915 -0.0566 -0.8636 -0.6098
33931SOL     OW 4330   0.762   4.672   1.078  0.1234  0.0859  0.4310
33931SOL    HW1 4331   0.690   4.617   1.046 -1.1814  1.3752  1.1096
33931SOL    HW2 4332   0.761   4.749   1.022  1.2175 -0.0377  0.2227
33932SOL     OW 4333   0.403   4.332   4.463 -0.3304  0.5725  0.5641
33932SOL    HW1 4334   0.336   4.297   4.522  1.8158  0.9836  3.3347
33932SOL    HW2 4335   0.388   4.426   4.461 -3.0799  0.2060 -3.0938
33933SOL     OW 4336   8.514   8.421   8.991  0.1268 -0.0069 -0.1450
33933SOL    HW1 4337   8.609   8.425   8.980  0.0566 -0.7210 -1.0637
33933SOL    HW2 4338   8.501   8.394   9.082  0.8120 -0.7742 -0.2787
33934SOL     OW 4339   3.581   9.572   8.609 -0.1386 -0.5454  0.4793
33934SOL    HW1 4340   3.589   9.558   8.515  0.3154 -1.5078  0.6566
33934SOL    HW2 4341   3.490   9.600   8.621 -0.1357 -0.2097 -0.2650
33935SOL     OW 4342   3.354   1.012   1.618 -0.3278 -0.0670 -0.0834
33935SOL    HW1 4343   3.353   1.059   1.534 -0.4044 -0.5500 -0.3560
33935SOL    HW2 4344   3.310   0.929   1.599  1.3159 -0.9673 -0.0314
33936SOL     OW 4345  10.092   3.781   5.983 -0.4705 -0.2686  0.0629
33936SOL    HW1 4346  10.104   3.696   5.940 -0.1795 -0.7488  1.0576
33936SOL    HW2 4347  10.180   3.819   5.985 -0.5205 -0.1506  0.0450
33937SOL     OW 4348   6.343   1.311   8.863  0.3060  0.1733 -0.2566
33937SOL    HW1 4349   6.327   1.405   8.858 -0.1998  0.0682 -0.6385
33937SOL    HW2 4350   6.274   1.278   8.921  1.0652  0.1742  0.6543
33938SOL     OW 4351   7.368   6.523   0.791  0.1910 -0.3416 -0.1606
33938SOL    HW1 4352   7.403   6.513   0.702 -0.3994 -0.5302 -0.3739
33938SOL    HW2 4353   7.436   6.488   0.848  0.1723 -1.1050 -0.6013
33939SOL     OW 4354   6.063   1.400   5.884  0.1603  0.5680  0.1911
33939SOL    HW1 4355   6.012   1.353   5.819  3.1683 -2.3438 -0.2176
33939SOL    HW2 4356   6.018   1.383   5.967 -0.4907 -0.4986 -0.3747
33940SOL     OW 4357   3.980   2.315   1.966 -0.4861 -0.0382 -0.6392
33940SOL    HW1 4358   4.056   2.364   1.933  0.2801  0.3258  1.6101
33940SOL    HW2 4359   4.000   2.298   2.058 -1.8595 -2.4805 -0.7691
33941SOL     OW 4360   6.506   1.894   7.667  0.1857  0.6702 -0.2995
33941SOL    HW1 4361   6.450   1.859   7.597 -1.2703  0.2884  1.0278
33941SOL    HW2 4362   6.453   1.962   7.709  0.6507  0.1877  1.0967
33942SOL     OW 4363   1.846   8.259   9.776 -0.2385  0.5487  0.2803
33942SOL    HW1 4364   1.932   8.293   9.799 -0.3813  2.3230 -1.7220
33942SOL    HW2 4365   1.855   8.227   9.687 -1.0963 -1.2592  0.8319
33943SOL     OW 4366   7.888   5.764   7.348  0.6024 -0.4153  0.1869
33943SOL    HW1 4367   7.922   5.805   7.428 -0.8816  0.3888  0.4202
33943SOL    HW2 4368   7.962   5.712   7.315  2.0858  1.3228  0.6601
33944SOL     OW 4369   0.821   8.382  10.032  0.3091  0.4516 -0.5615
33944SOL    HW1 4370   0.891   8.436   9.996  0.2099  1.1719  0.3077
33944SOL    HW2 4371   0.799   8.423  10.115 -1.2230  0.2948 -0.8671
33945SOL     OW 4372   5.509   0.140   9.278  0.0197  0.4234  0.4164
33945SOL    HW1 4373   5.419   0.108   9.283 -0.1946  1.1262  1.2334
33945SOL    HW2 4374   5.562   0.065   9.305 -0.3514  0.1259  0.3233
33946SOL     OW 4375   2.232   1.346   7.444 -0.1155 -0.0762  0.2183
33946SOL    HW1 4376   2.198   1.299   7.368  1.7210  0.5711 -1.0373
33946SOL    HW2 4377   2.199   1.297   7.519 -0.6185 -1.6686 -1.0161
33947SOL     OW 4378   6.249   2.319   3.630  0.0618 -0.2346  0.1694
33947SOL    HW1 4379   6.328   2.325   3.576  1.6233 -0.9830  2.2930
33947SOL    HW2 4380   6.195   2.254   3.585  0.5317  0.4792 -1.4575
33948SOL     OW 4381   7.898   5.873   6.376  0.4106  0.7135 -0.1406
33948SOL    HW1 4382   7.869   5.964   6.385  0.4005  0.6314  0.7094
33948SOL    HW2 4383   7.841   5.824   6.435  0.6921  0.2081 -0.2844
33949SOL     OW 4384   1.718   3.613   5.400  0.0329  0.1229 -0.7876
33949SOL    HW1 4385   1.660   3.657   5.462  0.0888 -1.2899  0.2967
33949SOL    HW2 4386   1.755   3.684   5.348 -2.3146  1.0749 -1.2191
33950SOL     OW 4387   3.183   8.390   1.161 -0.7049  0.4156 -0.4645
33950SOL    HW1 4388   3.100   8.436   1.161 -1.2681 -0.5704 -1.1499
33950SOL    HW2 4389   3.159   8.298   1.144  0.7243  0.5263 -3.2408
33951SOL     OW 4390   0.491   9.165   4.454  0.6523 -0.2502  0.1487
33951SOL    HW1 4391   0.400   9.194   4.443  1.1740  0.7924 -1.6626
33951SOL    HW2 4392   0.507   9.108   4.379  1.5907 -0.1474  0.2669
33952SOL     OW 4393   2.812   8.164  10.123 -0.0335 -0.2307 -0.5118
33952SOL    HW1 4394   2.844   8.194  10.207  2.2572 -1.6310 -0.8442
33952SOL    HW2 4395   2.793   8.071  10.136 -0.0933 -0.3526 -1.4213
33953SOL     OW 4396   1.009   9.573   0.483  0.1616  0.8023  0.1876
33953SOL    HW1 4397   0.951   9.600   0.412 -1.9804 -1.1830  1.1140
33953SOL    HW2 4398   0.961   9.596   0.563  0.6928 -0.7535  0.9702
33954SOL     OW 4399   7.658   8.089   5.366  0.5296 -0.1285  0.0808
33954SOL    HW1 4400   7.729   8.054   5.419  0.0585  0.5701  1.1877
33954SOL    HW2 4401   7.667   8.045   5.282  1.1455 -1.4200  0.8124
33955SOL     OW 4402   8.157   9.404   0.222 -0.5090  0.2134  0.3719
33955SOL    HW1 4403   8.110   9.322   0.211 -1.2817  0.6636  0.2614
33955SOL    HW2 4404   8.094   9.462   0.265  0.4422  0.3644  1.5992
33956SOL     OW 4405   5.114   0.520   6.075 -0.1809 -0.6297  0.0518
33956SOL    HW1 4406   5.022   0.510   6.049 -0.2402  0.6300 -0.2661
33956SOL    HW2 4407   5.162   0.461   6.017 -0.7478 -1.0373 -0.0101
33957SOL     OW 4408   7.818   7.803   5.314 -0.4672 -0.6957 -0.5222
33957SOL    HW1 4409   7.884   7.737   5.337 -1.3654 -1.9258 -1.3788
33957SOL    HW2 4410   7.770   7.764   5.241 -2.4262 -0.0107  0.3677
33958SOL     OW 4411   1.447   2.046   0.338 -0.2656  0.2808  0.2055
33958SOL    HW1 4412   1.379   1.989   0.375 -2.5570  1.9589 -1.2635
33958SOL    HW2 4413   1.446   2.124   0.394 -2.9736  2.3506 -2.5175
33959SOL     OW 4414   4.679   8.763   2.171 -0.2719 -0.5094  0.2783
33959SOL    HW1 4415   4.630   8.820   2.112  1.6493  2.0479  1.0641
33959SOL    HW2 4416   4.615   8.739   2.239 -1.0792  0.8497  0.0196
33960SOL     OW 4417   9.305   3.239   0.176 -0.3839  0.3307 -0.2223
33960SOL    HW1 4418   9.236   3.299   0.149 -1.1270 -0.5924 -0.3816
33960SOL    HW2 4419   9.346   3.282   0.251  0.1896  1.8219 -1.3617
33961SOL     OW 4420   5.592   8.900   5.243 -0.3963 -0.1946 -0.0506
33961SOL    HW1 4421   5.617   8.809   5.227 -2.3243 -0.7238 -0.0860
33961SOL    HW2 4422   5.597   8.910   5.338  1.2465  0.0931 -0.1547
33962SOL     OW 4423   8.251   5.284   0.551 -0.0897 -0.1976  0.1043
33962SOL    HW1 4424   8.224   5.194   0.568 -1.3916 -0.2573 -2.0984
33962SOL    HW2 4425   8.318   5.275   0.483  0.6477  0.4253  0.7438
33963SOL     OW 4426   3.699   4.315   1.321  0.3307  0.2962  0.3201
33963SOL    HW1 4427   3.707   4.354   1.408  0.4118  2.7618 -0.7407
33963SOL    HW2 4428   3.726   4.224   1.332  0.1708  0.5304  2.8919
33964SOL     OW 4429   2.129   7.305   6.160 -0.5245 -0.2461  0.4522
33964SOL    HW1 4430   2.130   7.356   6.241  0.0401  0.0115  0.2878
33964SOL    HW2 4431   2.177   7.360   6.097  1.8712 -1.8559  0.8217
33965SOL     OW 4432   1.895   6.319   3.464  0.1660  0.1150 -0.3033
33965SOL    HW1 4433   1.832   6.326   3.393  0.3546 -0.5291 -0.5402
33965SOL    HW2 4434   1.862   6.378   3.532  0.8342  1.9528 -1.5380
33966SOL     OW 4435   1.715   4.876  10.092 -0.5609 -0.3690 -1.0672
33966SOL    HW1 4436   1.778   4.931  10.139 -0.8051 -0.3718 -0.7380
33966SOL    HW2 4437   1.750   4.870  10.003  0.6507 -1.5144 -0.5292
33967SOL     OW 4438   6.983   2.181   9.225 -0.1329 -0.2812  0.0227
33967SOL    HW1 4439   6.924   2.250   9.255  0.6298 -0.0942  1.1398
33967SOL    HW2 4440   7.070   2.222   9.225  0.1235 -0.8162 -0.7063
33968SOL     OW 4441   7.566   4.354   6.434  0.0271 -0.2628 -0.4851
33968SOL    HW1 4442   7.597   4.265   6.419  0.9538 -0.1190  0.5344
33968SOL    HW2 4443   7.483   4.359   6.387 -1.2206 -2.4020  1.4691
33969SOL     OW 4444   6.328   9.943   0.464  0.5409  0.3215 -0.1303
33969SOL    HW1 4445   6.320   9.989   0.381  0.9022 -1.9277 -1.4294
33969SOL    HW2 4446   6.397   9.990   0.511  2.0412  0.1394 -2.0920
33970SOL     OW 4447   1.332  10.194   6.640 -0.0052  0.1911 -0.3837
33970SOL    HW1 4448   1.265  10.192   6.707 -0.4247 -1.0389 -0.8297
33970SOL    HW2 4449   1.415  10.187   6.688 -0.2271  0.8341  0.0973
33971SOL     OW 4450   1.686   4.378   4.706  0.0648 -0.2867 -0.3505
33971SOL    HW1 4451   1.617   4.411   4.765 -0.5472 -0.8356 -0.7484
33971SOL    HW2 4452   1.740   4.454   4.688  0.9649 -0.3532  1.8748
33972SOL     OW 4453   7.189   8.957   2.194 -0.3253 -0.5772  0.2188
33972SOL    HW1 4454   7.142   8.994   2.268  0.2849  0.7241 -0.0184
33972SOL    HW2 4455   7.121   8.927   2.134 -0.8814  1.5665 -0.2580
33973SOL     OW 4456   5.647   2.390   1.554  0.5208 -0.0785 -0.1439
33973SOL    HW1 4457   5.623   2.433   1.636  0.6598  1.5835 -0.9638
33973SOL    HW2 4458   5.563   2.361   1.517  0.3271  0.3973 -0.0792
33974SOL     OW 4459   5.736   2.249   5.026  0.0728  0.3393 -0.5659
33974SOL    HW1 4460   5.734   2.345   5.020 -2.2495  0.2411 -1.6149
33974SOL    HW2 4461   5.695   2.230   5.110  1.5456  0.2803  0.1622
33975SOL     OW 4462   0.088   9.789   6.597  0.3895 -0.3921  0.2531
33975SOL    HW1 4463   0.127   9.708   6.629  1.6560  0.6538  1.4340
33975SOL    HW2 4464  -0.006   9.776   6.604  0.5554 -2.2102 -0.7131
33976SOL     OW 4465   4.622   9.149   0.609 -0.2365 -0.2975 -0.0277
33976SOL    HW1 4466   4.714   9.153   0.583  0.0578 -0.4186  0.9825
33976SOL    HW2 4467   4.581   9.093   0.543  0.1829  0.6701 -1.1246
33977SOL     OW 4468   6.179   6.689   8.398 -0.0657  0.0887 -0.3796
33977SOL    HW1 4469   6.176   6.777   8.360 -0.5378  0.3137  0.1688
33977SOL    HW2 4470   6.265   6.655   8.374 -0.1046  0.4807 -1.0865
33978SOL     OW 4471   6.402   8.470   0.781 -0.1458 -0.0571 -0.1873
33978SOL    HW1 4472   6.362   8.390   0.813 -0.4681  0.0939 -0.2107
33978SOL    HW2 4473   6.416   8.523   0.860  1.1320 -0.6055 -0.0285
33979SOL     OW 4474   5.937   7.833   2.605 -0.3899  0.0738  0.5808
33979SOL    HW1 4475   5.986   7.790   2.535 -0.5800 -0.4816  0.7794
33979SOL    HW2 4476   5.999   7.894   2.644  0.0165 -0.3199  0.5623
33980SOL     OW 4477   3.524   5.075   8.963 -0.3006 -0.0181  0.4081
33980SOL    HW1 4478   3.489   5.096   9.049  1.1667  0.7551  0.8540
33980SOL    HW2 4479   3.587   5.146   8.946 -0.7554 -0.0212 -1.4048
33981SOL     OW 4480   4.006   3.320   6.385 -0.2464  1.0376  0.2040
33981SOL    HW1 4481   3.964   3.234   6.383 -1.5115  1.6755 -0.7429
33981SOL    HW2 4482   4.057   3.324   6.304 -1.4980  1.8354 -0.5460
33982SOL     OW 4483   2.714   7.407   6.054 -0.2510 -0.1872  0.3908
33982SOL    HW1 4484   2.628   7.383   6.019 -0.5605 -0.7313  1.5118
33982SOL    HW2 4485   2.726   7.349   6.129  0.6676  0.5664  0.8276
33983SOL     OW 4486   0.227   8.855   4.741  0.5031  0.1151 -0.0182
33983SOL    HW1 4487   0.199   8.852   4.832 -1.9944  0.3974 -0.7492
33983SOL    HW2 4488   0.243   8.948   4.724 -1.2037  0.3318 -0.4888
33984SOL     OW 4489   2.636   0.470   6.260 -0.3810 -0.0243  0.0243
33984SOL    HW1 4490   2.590   0.550   6.285  1.5707  0.9348  0.6152
33984SOL    HW2 4491   2.717   0.472   6.311  0.5641 -1.3991 -1.3886
33985SOL     OW 4492   5.208   3.314   1.990 -0.5159  0.7746  0.2475
33985SOL    HW1 4493   5.254   3.366   1.923  0.0495 -0.2464 -0.1610
33985SOL    HW2 4494   5.258   3.328   2.070 -0.7975  1.4516  0.3115
33986SOL     OW 4495   3.837   5.931   7.496 -0.3669 -0.5222 -0.0196
33986SOL    HW1 4496   3.792   5.881   7.563  2.1015 -1.2916  1.1085
33986SOL    HW2 4497   3.909   5.975   7.542 -0.3678  1.2351 -1.6273
33987SOL     OW 4498   9.985   5.053   1.245  0.2379 -0.7369  0.4022
33987SOL    HW1 4499  10.009   5.126   1.302  1.3824 -0.3338 -0.5680
33987SOL    HW2 4500  10.012   5.081   1.158 -0.3613 -1.8526 -0.1517
33988SOL     OW 4501   0.855   3.395   3.425 -0.0298 -0.1343 -0.7440
33988SOL    HW1 4502   0.764   3.366   3.440 -0.2510  0.6910 -0.4724
33988SOL    HW2 4503   0.848   3.489   3.410  0.5813 -0.3822 -2.6636
33989SOL     OW 4504   4.701   8.910   7.446  0.5188  0.1545  0.5186
33989SOL    HW1 4505   4.619   8.949   7.416  0.8264 -0.1956 -0.8341
33989SOL    HW2 4506   4.761   8.983   7.455  0.5532  0.2257 -0.2082
33990SOL     OW 4507   5.342   7.928   6.755  0.0344 -0.2909  0.2135
33990SOL    HW1 4508   5.301   7.876   6.824 -0.4451 -0.1857  0.0104
33990SOL    HW2 4509   5.380   7.863   6.696  0.9042 -0.3698  0.8522
33991SOL     OW 4510   7.370   8.024   0.764  0.3235  0.1619 -0.2451
33991SOL    HW1 4511   7.401   8.073   0.687 -1.4548  0.5317 -0.7436
33991SOL    HW2 4512   7.343   8.091   0.826 -0.9782 -0.1674 -0.4506
33992SOL     OW 4513   0.986   8.779   9.133 -0.3362 -0.1818  0.4443
33992SOL    HW1 4514   0.897   8.813   9.127 -0.6722 -1.3389 -2.2404
33992SOL    HW2 4515   0.975   8.684   9.142  0.4799 -0.9849 -4.9114
33993SOL     OW 4516   4.314   6.562   4.039 -0.5314 -0.7038  0.0366
33993SOL    HW1 4517   4.230   6.604   4.057 -0.0597  0.7447 -1.0052
33993SOL    HW2 4518   4.308   6.536   3.947  1.2189  2.0571 -0.9240
33994SOL     OW 4519   8.632   2.672   5.154  0.3527  0.5519 -0.2394
33994SOL    HW1 4520   8.648   2.669   5.060  0.9170 -1.2152 -0.1013
33994SOL    HW2 4521   8.611   2.582   5.178 -0.4118  1.1094  1.2230
33995SOL     OW 4522   6.442   7.868   2.670  0.4513  0.3257  0.1700
33995SOL    HW1 4523   6.354   7.902   2.686  0.4879  1.8339 -2.3700
33995SOL    HW2 4524   6.429   7.782   2.632  0.1626 -0.4089  1.9216
33996SOL     OW 4525   1.564   2.401   2.653  0.5222  0.1673  0.7834
33996SOL    HW1 4526   1.515   2.384   2.573 -0.1959 -1.2996  1.5018
33996SOL    HW2 4527   1.500   2.386   2.723  1.3846  0.5329  1.6579
33997SOL     OW 4528   0.358   3.339   7.080 -0.6676  0.3865  0.4648
33997SOL    HW1 4529   0.272   3.380   7.076 -0.9064 -0.0046  1.3572
33997SOL    HW2 4530   0.419   3.408   7.055 -1.0082  1.5187  2.5817
33998SOL     OW 4531   9.046   7.777   2.239 -0.4280  0.5634 -0.4293
33998SOL    HW1 4532   8.958   7.742   2.228 -0.2259  0.3186 -1.3294
33998SOL    HW2 4533   9.071   7.807   2.151  0.9463 -0.7140 -0.5018
33999SOL     OW 4534   1.841   6.018   3.121  0.3688 -0.2141 -0.6200
33999SOL    HW1 4535   1.895   6.050   3.193 -1.4297  0.7969  0.3161
33999SOL    HW2 4536   1.900   5.963   3.069  2.4728  1.4343 -0.0458
34000SOL     OW 4537   8.934   2.504   1.885  0.1886 -0.2371 -0.4114
34000SOL    HW1 4538   8.990   2.555   1.826  0.2712 -0.0535 -0.1776
34000SOL    HW2 4539   8.856   2.558   1.898  0.1217 -0.3253 -0.4372
34001SOL     OW 4540   6.072   0.326   9.877  0.3556  0.2467  0.4521
34001SOL    HW1 4541   5.992   0.350   9.924  0.0166 -1.4572  0.7718
34001SOL    HW2 4542   6.045   0.324   9.785 -0.0561 -0.6163  0.5856
34002SOL     OW 4543   1.805   3.465   1.863  0.1218 -0.6102 -0.1459
34002SOL    HW1 4544   1.773   3.376   1.850  0.1051 -0.7225  0.6551
34002SOL    HW2 4545   1.725   3.518   1.869  0.0942 -0.7457  0.8066
34003SOL     OW 4546   0.400   5.257   1.214  0.0000 -0.1910  0.6457
34003SOL    HW1 4547   0.314   5.220   1.193  0.2534 -0.2642 -0.2747
34003SOL    HW2 4548   0.394   5.348   1.185  0.3621 -0.2997  0.2203
34004SOL     OW 4549   3.312   7.743   7.949  0.2804  0.3555 -0.2028
34004SOL    HW1 4550   3.290   7.710   7.863  1.8773  1.9040 -1.2537
34004SOL    HW2 4551   3.380   7.809   7.933 -0.3154  1.6099  2.1060
34005SOL     OW 4552   8.701   7.706   3.520 -0.6849 -0.5589  0.0621
34005SOL    HW1 4553   8.747   7.775   3.472 -0.6653 -0.5804  0.0504
34005SOL    HW2 4554   8.746   7.626   3.495 -0.4865 -0.5367  0.3425
34006SOL     OW 4555   1.727   7.521   1.163 -0.0735  0.1931 -0.3736
34006SOL    HW1 4556   1.726   7.560   1.251  1.0091 -0.3739 -0.0986
34006SOL    HW2 4557   1.744   7.594   1.104  0.0458  0.4470 -0.0250
34007SOL     OW 4558   2.897   8.888   1.272 -0.7370  0.2797  0.1104
34007SOL    HW1 4559   2.975   8.942   1.265 -2.6297  2.8909 -1.8112
34007SOL    HW2 4560   2.868   8.899   1.363  1.1942 -0.9107  0.9064
34008SOL     OW 4561   9.794   9.985   4.121  0.0060 -0.7467 -0.2478
34008SOL    HW1 4562   9.822   9.992   4.030  0.6013 -0.3471 -0.0316
34008SOL    HW2 4563   9.715  10.039   4.126 -0.0010 -0.7333 -0.5135
34009SOL     OW 4564   5.368   5.227   2.986  0.1045 -0.3533 -0.1528
34009SOL    HW1 4565   5.341   5.143   2.950  0.2022 -0.0256 -0.9931
34009SOL    HW2 4566   5.425   5.205   3.059 -3.6624 -1.1242  2.7170
34010SOL     OW 4567   0.472   6.777   4.991 -0.2014 -0.4859 -0.3029
34010SOL    HW1 4568   0.549   6.757   4.938  0.1409 -0.8328  0.3223
34010SOL    HW2 4569   0.499   6.756   5.080 -1.2477 -1.2436 -0.1666
34011SOL     OW 4570   4.501   0.586   8.778 -0.2530 -0.4436  0.4134
34011SOL    HW1 4571   4.582   0.636   8.770  0.4729 -1.7385 -0.3394
34011SOL    HW2 4572   4.528   0.501   8.812 -1.2006 -1.1234 -0.5030
34012SOL     OW 4573   4.911   3.447   6.480  0.1812  0.3442 -0.3591
34012SOL    HW1 4574   4.859   3.385   6.531  0.4117 -0.9302 -1.6242
34012SOL    HW2 4575   4.861   3.458   6.399 -0.3711  2.6240  0.2613
34013SOL     OW 4576   5.158   2.268   6.707 -0.9182  0.1156 -0.0782
34013SOL    HW1 4577   5.079   2.319   6.724  0.4475  2.0114  0.7792
34013SOL    HW2 4578   5.187   2.296   6.620 -1.3138 -0.7766 -0.5083
34014SOL     OW 4579   4.753   6.232   3.357  0.6803 -0.0565  0.4353
34014SOL    HW1 4580   4.707   6.211   3.438 -1.0337  3.0164  0.3383
34014SOL    HW2 4581   4.750   6.151   3.306 -1.1378 -1.0548  2.0687
34015SOL     OW 4582   4.690   0.167   5.614 -0.1795  1.1538  0.1508
34015SOL    HW1 4583   4.763   0.198   5.667 -0.2787 -0.6982  1.4136
34015SOL    HW2 4584   4.612   0.200   5.659 -0.2638 -0.4009  1.1603
34016SOL     OW 4585   6.972   3.258   2.748  0.3086  0.7081  0.3262
34016SOL    HW1 4586   7.037   3.285   2.684 -1.0743  0.0840 -1.4003
34016SOL    HW2 4587   6.986   3.164   2.759 -1.0066  0.3407 -0.9384
34017SOL     OW 4588   9.344   4.591  10.180 -0.8333  0.1903  0.3547
34017SOL    HW1 4589   9.306   4.670  10.219 -1.3010 -0.5094  1.3374
34017SOL    HW2 4590   9.419   4.571  10.237  0.3493  0.9041 -0.8966
34018SOL     OW 4591   5.278   2.162   5.862  1.1389  0.5611 -0.3692
34018SOL    HW1 4592   5.309   2.076   5.833 -0.0081 -0.0904  0.3211
34018SOL    HW2 4593   5.355   2.203   5.902  1.4667 -0.4797  0.0603
34019SOL     OW 4594   1.562   8.102   2.439 -0.1523  0.1457 -0.8212
34019SOL    HW1 4595   1.552   8.011   2.468  0.3869  0.1509 -0.6099
34019SOL    HW2 4596   1.612   8.144   2.509 -0.1055  0.5218 -1.0796
34020SOL     OW 4597   6.880   2.152   4.735  0.0188 -0.4260  0.0807
34020SOL    HW1 4598   6.816   2.098   4.781  1.2034 -2.1582 -0.2590
34020SOL    HW2 4599   6.853   2.150   4.643 -1.6880  2.1019  0.4681
34021SOL     OW 4600   0.374   9.731   5.147 -0.0190 -0.4032 -0.2663
34021SOL    HW1 4601   0.294   9.748   5.196  0.2494 -0.0134  0.0358
34021SOL    HW2 4602   0.378   9.635   5.140 -1.7718 -0.3620 -2.3820
34022SOL     OW 4603   0.671   0.677   4.154  0.1421  0.2440  0.1568
34022SOL    HW1 4604   0.628   0.616   4.214  1.1522  0.6041  1.2587
34022SOL    HW2 4605   0.738   0.625   4.110 -1.1696 -0.2391 -1.3330
34023SOL     OW 4606   1.661   7.705   5.008  1.0991  0.1565  0.5367
34023SOL    HW1 4607   1.729   7.654   5.053  2.1307  2.3580  1.5498
34023SOL    HW2 4608   1.666   7.791   5.048 -0.8801  0.9564 -0.8804
34024SOL     OW 4609   1.985   0.431  10.173 -0.0038 -1.2129  0.4991
34024SOL    HW1 4610   1.896   0.419  10.204  0.0425 -2.0397  0.3163
34024SOL    HW2 4611   1.993   0.526  10.159 -1.5857 -1.3740 -1.7094
34025SOL     OW 4612   0.497   0.623   5.221 -0.5600  0.0557 -0.2202
34025SOL    HW1 4613   0.404   0.609   5.204 -0.1040 -1.6630 -1.3540
34025SOL    HW2 4614   0.537   0.538   5.208  1.1068  0.6545  0.8429
34026SOL     OW 4615   8.260   2.106   8.425  0.7539 -0.4183 -0.6429
34026SOL    HW1 4616   8.203   2.154   8.485  0.5779  2.1122 -2.7855
34026SOL    HW2 4617   8.349   2.126   8.455  0.6223 -0.9563  0.1158
34027SOL     OW 4618   8.253   7.183   3.391  0.2718  0.3049  0.0726
34027SOL    HW1 4619   8.344   7.156   3.389  0.2415  0.1342  0.9526
34027SOL    HW2 4620   8.234   7.200   3.483 -0.7622 -0.2767 -0.0170
34028SOL     OW 4621   0.554   7.059   6.572 -0.2059 -0.6085 -0.2617
34028SOL    HW1 4622   0.649   7.067   6.571 -0.1337 -1.3324  0.1291
34028SOL    HW2 4623   0.538   6.974   6.614 -0.9917 -0.9549 -1.2421
34029SOL     OW 4624   3.163   4.011   1.801  0.0069 -0.1231  0.1030
34029SOL    HW1 4625   3.231   4.078   1.797  0.5179 -0.4494  2.4216
34029SOL    HW2 4626   3.136   4.010   1.893 -0.9064 -2.1862 -0.1607
34030SOL     OW 4627   6.120   8.290   5.005 -0.2547 -0.1381 -0.4872
34030SOL    HW1 4628   6.149   8.295   4.914 -2.0414  2.9932 -0.9538
34030SOL    HW2 4629   6.184   8.234   5.048  2.1048  0.4825 -3.0959
34031SOL     OW 4630   3.158   7.121   1.161 -0.4353 -0.0523  0.6129
34031SOL    HW1 4631   3.188   7.038   1.198  0.1252 -0.1346 -0.0091
34031SOL    HW2 4632   3.111   7.164   1.233  0.5399 -0.2541  1.3872
34032SOL     OW 4633   3.554   8.266   9.565 -0.3300  0.2015 -0.3171
34032SOL    HW1 4634   3.601   8.349   9.553 -0.5108  0.4930  0.9114
34032SOL    HW2 4635   3.607   8.202   9.518  1.5196  0.4500  1.3542
34033SOL     OW 4636   6.332   9.249   7.304  0.1242  0.2832  0.3852
34033SOL    HW1 4637   6.415   9.203   7.294  0.9181  1.8783 -0.6478
34033SOL    HW2 4638   6.354   9.328   7.352 -0.6594  1.0583 -0.5070
34034SOL     OW 4639   9.701   1.843   2.286 -0.1874 -0.0085  0.3203
34034SOL    HW1 4640   9.795   1.836   2.298  0.0169  1.8712 -0.0706
34034SOL    HW2 4641   9.683   1.788   2.209  0.5839 -0.3540  0.3820
34035SOL     OW 4642   0.907   4.419   8.266  0.4673 -0.3143 -0.4944
34035SOL    HW1 4643   0.937   4.508   8.251  2.5040 -0.9160 -0.0992
34035SOL    HW2 4644   0.877   4.389   8.180 -0.1777  0.7309 -0.6329
34036SOL     OW 4645   5.578   1.742   2.781  0.0669 -0.1201  0.4760
34036SOL    HW1 4646   5.527   1.689   2.842  1.0637  0.6748  2.0171
34036SOL    HW2 4647   5.515   1.804   2.744 -0.7646 -1.3064 -0.1216
34037SOL     OW 4648   8.763   5.853   9.777  0.2696 -0.3044  0.2463
34037SOL    HW1 4649   8.797   5.874   9.864  1.1047  0.3263 -0.2236
34037SOL    HW2 4650   8.726   5.935   9.745  1.0263 -0.2342 -0.4659
34038SOL     OW 4651   5.276   9.218   7.668  0.2261  0.1349  0.5996
34038SOL    HW1 4652   5.328   9.298   7.660 -0.5792  0.5659 -0.5288
34038SOL    HW2 4653   5.333   9.157   7.715  0.9700  1.2583  1.1800
34039SOL     OW 4654   9.128   5.426   9.131 -0.5649 -0.2410  0.3272
34039SOL    HW1 4655   9.145   5.364   9.060 -0.2927 -0.8218  0.8977
34039SOL    HW2 4656   9.201   5.488   9.127 -0.8971  0.1188 -0.3122
34040SOL     OW 4657   5.798   5.002   3.077  0.4504  0.0358 -0.0906
34040SOL    HW1 4658   5.842   5.067   3.131  0.6059 -0.4527  0.3742
34040SOL    HW2 4659   5.801   4.921   3.129 -1.0398  0.0109 -0.0118
34041SOL     OW 4660   5.307   0.258   5.309 -0.4409 -0.0389  0.2061
34041SOL    HW1 4661   5.326   0.349   5.331 -1.2306 -0.2453  1.7882
34041SOL    HW2 4662   5.341   0.247   5.220 -0.9303  1.9789 -0.2379
34042SOL     OW 4663   4.035   3.464   4.502  0.1140 -0.3589 -0.7293
34042SOL    HW1 4664   3.992   3.380   4.487  1.0753 -0.8592 -0.6944
34042SOL    HW2 4665   4.044   3.502   4.415  0.1702 -0.5289 -0.7972
34043SOL     OW 4666   0.620   9.799   9.486 -0.5371 -0.1634 -0.7670
34043SOL    HW1 4667   0.575   9.832   9.563 -0.0215 -2.0385  0.3665
34043SOL    HW2 4668   0.707   9.839   9.489 -0.7531  0.3063 -0.7560
34044SOL     OW 4669   1.314   4.739   1.516 -0.2056 -0.3885  0.2099
34044SOL    HW1 4670   1.317   4.736   1.421 -0.8214 -0.4990  0.1954
34044SOL    HW2 4671   1.382   4.677   1.544 -1.8095 -2.3401 -0.1490
34045SOL     OW 4672   3.260   7.424   2.877 -0.2860 -0.3609 -0.1312
34045SOL    HW1 4673   3.256   7.513   2.842  0.2258 -0.3020 -0.0450
34045SOL    HW2 4674   3.268   7.435   2.971  0.7452 -0.4751 -0.1948
34046SOL     OW 4675  10.162   4.206   7.663 -0.3404  0.5397 -0.2339
34046SOL    HW1 4676  10.220   4.172   7.731  0.3089 -1.5617 -1.8013
34046SOL    HW2 4677  10.087   4.147   7.664  0.8287 -1.0657 -3.0143
34047SOL     OW 4678   9.732   4.470   7.305  0.0438 -0.0979  0.0257
34047SOL    HW1 4679   9.804   4.486   7.245  1.2999 -2.2059  0.8780
34047SOL    HW2 4680   9.672   4.414   7.256  0.4050 -0.6862  0.2380
34048SOL     OW 4681   9.611   5.140   0.813  0.5578  0.1912  0.2360
34048SOL    HW1 4682   9.538   5.201   0.819  0.3089  0.0555 -1.2993
34048SOL    HW2 4683   9.684   5.192   0.780 -0.2179 -0.7502 -3.1443
34049SOL     OW 4684   8.079   8.389   9.998  0.0082 -0.0939 -0.1160
34049SOL    HW1 4685   8.102   8.329   9.927  1.3219  0.3995 -0.1097
34049SOL    HW2 4686   8.160   8.435  10.018 -0.6510  0.6499  0.8751
34050SOL     OW 4687   4.844   3.557   5.360  0.0051  0.1302  0.2338
34050SOL    HW1 4688   4.815   3.499   5.290  0.5322 -0.0326  0.1461
34050SOL    HW2 4689   4.779   3.627   5.362 -1.4323 -1.2121  1.2991
34051SOL     OW 4690   0.024   8.123   7.485  0.3249 -0.4682 -0.3549
34051SOL    HW1 4691   0.065   8.047   7.527 -0.2041 -0.7952 -0.4203
34051SOL    HW2 4692  -0.031   8.161   7.553  2.8948  1.6680  0.6250
34052SOL     OW 4693   9.945   7.115   5.645  0.2632 -0.3207  0.0662
34052SOL    HW1 4694   9.857   7.103   5.611  0.0981  0.8455  0.0927
34052SOL    HW2 4695   9.997   7.046   5.602 -0.5419 -0.6705 -0.3436
34053SOL     OW 4696   3.778   3.290   4.471 -0.1478  0.0815  1.1791
34053SOL    HW1 4697   3.711   3.357   4.454 -0.3579  0.1486  2.1897
34053SOL    HW2 4698   3.779   3.236   4.392 -0.7654  0.6169  0.7972
34054SOL     OW 4699   2.700   7.261  10.160 -0.2803 -0.0139  0.0065
34054SOL    HW1 4700   2.674   7.325  10.227  2.3315 -0.9737  2.0182
34054SOL    HW2 4701   2.793   7.279  10.145 -0.1576 -1.6515 -1.3075
34055SOL     OW 4702   2.797   5.767   4.119 -0.6775  0.1980  0.1463
34055SOL    HW1 4703   2.838   5.848   4.088 -0.4679 -0.3181 -0.9719
34055SOL    HW2 4704   2.805   5.770   4.214 -0.5519  1.4232  0.0998
34056SOL     OW 4705   3.721   3.320   0.780  0.2735  0.3374 -0.6111
34056SOL    HW1 4706   3.731   3.270   0.699 -2.6124 -1.6624  0.1706
34056SOL    HW2 4707   3.757   3.263   0.848 -1.3662  0.0670  0.0559
34057SOL     OW 4708   7.842   7.446   1.399  0.1120 -0.3876 -0.1610
34057SOL    HW1 4709   7.855   7.532   1.358  1.0026 -0.7300 -0.6013
34057SOL    HW2 4710   7.764   7.411   1.357  1.2250 -0.8908 -1.8379
34058SOL     OW 4711   8.860   2.994  10.067  0.5019 -0.2528 -0.2275
34058SOL    HW1 4712   8.931   3.046  10.030 -0.0130 -0.2663 -1.2362
34058SOL    HW2 4713   8.903   2.937  10.131  1.3337  0.0258 -0.5328
34059SOL     OW 4714   8.710   1.789   9.827 -0.3103  0.0586 -0.5535
34059SOL    HW1 4715   8.624   1.815   9.862  0.1789  0.9455 -0.0130
34059SOL    HW2 4716   8.745   1.730   9.894 -0.2621  0.1136 -0.5309
34060SOL     OW 4717   1.593   2.746   8.694 -0.3596 -0.2398  0.1483
34060SOL    HW1 4718   1.497   2.751   8.699 -0.2954  1.9387 -0.3337
34060SOL    HW2 4719   1.623   2.817   8.750  1.0250 -1.8289  1.4664
34061SOL     OW 4720   7.075   0.566   5.887 -0.7495  0.4592  0.1523
34061SOL    HW1 4721   7.092   0.493   5.947  0.2691 -0.2043 -0.9095
34061SOL    HW2 4722   6.980   0.573   5.884 -0.9557 -2.3365 -1.4795
34062SOL     OW 4723   1.128   7.574   2.684 -0.6660  0.2390 -0.1187
34062SOL    HW1 4724   1.123   7.506   2.752 -1.1807  0.5435  0.1522
34062SOL    HW2 4725   1.058   7.552   2.623 -0.3322  0.0822 -0.4476
34063SOL     OW 4726   5.000   1.123   8.096 -0.0025  0.3489  0.0182
34063SOL    HW1 4727   4.933   1.135   8.164  0.0347 -1.1885  0.3416
34063SOL    HW2 4728   4.989   1.033   8.067  1.7221  0.1704 -0.1442
34064SOL     OW 4729   4.674   2.188   5.177  0.0983  0.8591 -0.5444
34064SOL    HW1 4730   4.584   2.205   5.204 -0.1598 -0.0940 -0.8047
34064SOL    HW2 4731   4.685   2.094   5.187  0.8030  0.8560 -1.3155
34065SOL     OW 4732   9.169   1.049   6.863  0.2189  0.2090  0.0073
34065SOL    HW1 4733   9.263   1.064   6.857  0.0330  1.0189 -1.0952
34065SOL    HW2 4734   9.139   1.048   6.772 -0.9614  0.8309  0.3749
34066SOL     OW 4735   2.624   3.648   2.755  0.2655  0.1714 -0.2564
34066SOL    HW1 4736   2.661   3.719   2.806  0.9577 -0.3770  0.0101
34066SOL    HW2 4737   2.540   3.629   2.797  0.5431  0.1476  0.2843
34067SOL     OW 4738   6.567   7.987   3.450  0.1519 -0.0154 -0.9190
34067SOL    HW1 4739   6.501   8.056   3.448 -0.0988 -0.2620 -1.0996
34067SOL    HW2 4740   6.564   7.948   3.363 -0.4129 -0.9210 -0.4970
34068SOL     OW 4741   6.794   7.019   5.010  0.2883  0.7764  0.3987
34068SOL    HW1 4742   6.751   6.936   4.989  1.8912 -0.1055  0.5494
34068SOL    HW2 4743   6.873   6.994   5.058 -0.7638  2.5185  3.2155
34069SOL     OW 4744   8.996   9.779   5.347  0.1155  0.3354 -0.1366
34069SOL    HW1 4745   8.995   9.738   5.434 -3.5663 -0.2594 -0.3693
34069SOL    HW2 4746   8.955   9.864   5.360 -0.7268  0.1207 -1.3305
34070SOL     OW 4747   3.224   4.883   2.953  0.0818  0.2360 -0.1225
34070SOL    HW1 4748   3.175   4.965   2.963 -3.1698 -1.5329 -0.5942
34070SOL    HW2 4749   3.249   4.859   3.042 -1.3594  0.3921  0.3489
34071SOL     OW 4750   8.109   6.936   5.415 -0.0622 -0.2145  0.1439
34071SOL    HW1 4751   8.029   6.962   5.460 -0.9584 -0.0766 -1.5097
34071SOL    HW2 4752   8.141   7.016   5.375  1.4229 -0.0726  1.5606
34072SOL     OW 4753   1.235   9.517   2.353  0.3451  0.5119  0.1476
34072SOL    HW1 4754   1.175   9.453   2.390  0.2740 -0.6344 -1.8599
34072SOL    HW2 4755   1.179   9.575   2.302  0.6695  0.8313  0.1553
34073SOL     OW 4756   1.919   4.053   5.681 -0.1906  0.1210 -0.4306
34073SOL    HW1 4757   1.945   4.005   5.603 -0.2071 -1.1021  0.3061
34073SOL    HW2 4758   1.988   4.034   5.745  0.2719  1.7971 -0.4120
34074SOL     OW 4759   0.275   3.203   4.441  0.0374  0.6017 -0.1964
34074SOL    HW1 4760   0.220   3.126   4.452  0.7634  0.0209 -0.6025
34074SOL    HW2 4761   0.261   3.229   4.350  0.2341  0.6123 -0.2233
34075SOL     OW 4762   5.716   7.097   1.230  0.2519 -0.2279 -0.1096
34075SOL    HW1 4763   5.758   7.045   1.163  0.1572 -0.3566 -0.0704
34075SOL    HW2 4764   5.785   7.116   1.294  0.1755 -0.7036  0.1144
34076SOL     OW 4765   6.321   3.136  10.183  0.1841 -0.3416  0.0803
34076SOL    HW1 4766   6.370   3.145  10.102  1.1876  0.4977  0.7782
34076SOL    HW2 4767   6.384   3.102  10.246 -0.2480  0.2684  0.8546
34077SOL     OW 4768   1.358   9.557   1.361  0.0342 -0.5561 -0.1219
34077SOL    HW1 4769   1.321   9.478   1.401  0.8912 -1.8985 -1.9008
34077SOL    HW2 4770   1.360   9.537   1.267  0.1641  1.6357 -0.6032
34078SOL     OW 4771   3.669   7.730   8.422 -0.0405 -0.4083  0.4642
34078SOL    HW1 4772   3.681   7.635   8.416  0.8777 -0.2196 -0.9530
34078SOL    HW2 4773   3.606   7.751   8.353  0.5899  0.1422  0.0469
34079SOL     OW 4774   8.528   1.880   5.134 -0.3391 -0.3252 -0.6835
34079SOL    HW1 4775   8.548   1.934   5.057  0.9233 -0.4344 -0.4485
34079SOL    HW2 4776   8.604   1.822   5.142 -0.2308  0.0221  0.9305
34080SOL     OW 4777   1.791   7.690   5.524 -0.2168  0.3338 -0.0331
34080SOL    HW1 4778   1.886   7.696   5.531 -0.1300  0.4456 -1.1366
34080SOL    HW2 4779   1.772   7.596   5.519  0.0875  0.3899 -2.7342
34081SOL     OW 4780   0.050   3.744   7.054 -0.2030  0.8309 -0.0715
34081SOL    HW1 4781   0.139   3.764   7.025 -0.9834  1.2718 -2.2769
34081SOL    HW2 4782   0.004   3.828   7.051 -0.9565  0.4319  0.0701
34082SOL     OW 4783   4.513   6.044   7.163  0.2399 -0.4320  0.8144
34082SOL    HW1 4784   4.558   6.127   7.180  1.7986 -1.4937  1.8581
34082SOL    HW2 4785   4.569   5.998   7.101 -0.3928 -0.9164  0.5936
34083SOL     OW 4786   5.820   2.239   9.080  0.2458  0.4256  0.5192
34083SOL    HW1 4787   5.737   2.196   9.061 -0.3197  1.2327  1.1516
34083SOL    HW2 4788   5.878   2.168   9.110  0.1416 -0.3157 -0.9999
34084SOL     OW 4789   6.766   8.300   8.201 -0.1683  0.7102  0.1178
34084SOL    HW1 4790   6.815   8.350   8.267  0.1853 -0.1587  0.5311
34084SOL    HW2 4791   6.678   8.335   8.204 -1.0066 -1.4480  3.3703
34085SOL     OW 4792   8.215   3.331   6.795  0.4071 -0.0259  0.4555
34085SOL    HW1 4793   8.222   3.245   6.836 -1.0028  0.4451  1.7674
34085SOL    HW2 4794   8.247   3.319   6.706  0.0944 -1.9494  0.5902
34086SOL     OW 4795   6.755   7.427   0.093 -0.1726  0.0147  0.3496
34086SOL    HW1 4796   6.691   7.497   0.080 -0.1993  0.1168  1.0118
34086SOL    HW2 4797   6.836   7.472   0.118  0.0156 -0.1454  0.0279
34087SOL     OW 4798   8.252   8.287   2.322  0.3629  0.0926 -0.0854
34087SOL    HW1 4799   8.328   8.253   2.274  1.1058  0.9901  0.4329
34087SOL    HW2 4800   8.177   8.265   2.267  1.2718  1.7948 -2.0652
34088SOL     OW 4801   0.317   9.797   1.774 -0.5842 -0.4464  0.0840
34088SOL    HW1 4802   0.371   9.842   1.840  0.0555  1.2403 -1.5456
34088SOL    HW2 4803   0.269   9.867   1.730 -1.7606 -1.6470 -0.5883
34089SOL     OW 4804   7.791   3.292   1.681  0.3558  0.3141 -0.1647
34089SOL    HW1 4805   7.748   3.227   1.737  0.7317  1.1580  1.1314
34089SOL    HW2 4806   7.881   3.294   1.713 -0.2477  3.3274  1.5855
34090SOL     OW 4807  10.148   6.336   7.934 -0.5404  0.2573 -0.1695
34090SOL    HW1 4808  10.156   6.269   8.001 -1.7810 -2.1991 -2.3859
34090SOL    HW2 4809  10.178   6.294   7.853 -0.0072  2.8186 -1.3768
34091SOL     OW 4810   7.511   1.188   3.865  0.3238 -0.1840 -0.2384
34091SOL    HW1 4811   7.570   1.256   3.834 -0.9013  0.9045 -0.2316
34091SOL    HW2 4812   7.481   1.218   3.951 -0.9001 -0.2868 -0.6132
34092SOL     OW 4813   5.845   8.457   1.333  0.2846 -0.5108  0.2300
34092SOL    HW1 4814   5.844   8.424   1.423 -0.7754 -0.8310  0.1111
34092SOL    HW2 4815   5.759   8.435   1.299  0.5171  0.0249 -0.7203
34093SOL     OW 4816   3.099   1.869   2.120 -0.6472 -0.4203 -0.3849
34093SOL    HW1 4817   3.127   1.783   2.089  1.0698  0.2738 -0.8165
34093SOL    HW2 4818   3.148   1.882   2.201  2.1731  1.7899 -2.3286
34094SOL     OW 4819   6.697   8.967   0.248  0.0235 -0.0276 -0.5045
34094SOL    HW1 4820   6.606   8.970   0.275 -0.2921 -0.2105 -1.5380
34094SOL    HW2 4821   6.743   9.023   0.311 -1.2791  2.6168 -1.8472
34095SOL     OW 4822  10.057   8.389   5.982 -0.2599  0.1164 -0.1653
34095SOL    HW1 4823   9.968   8.408   6.012 -1.1625  1.0555 -3.2201
34095SOL    HW2 4824  10.066   8.295   5.994 -1.6938 -0.0021  0.1501
34096SOL     OW 4825   2.604   6.451   5.328 -0.1309  0.0468  0.1592
34096SOL    HW1 4826   2.683   6.482   5.373  0.3560  1.3361 -1.4755
34096SOL    HW2 4827   2.609   6.356   5.332  1.0182  0.1286  0.9075
34097SOL     OW 4828   1.176   1.706   7.111 -0.3641  0.8132  0.4595
34097SOL    HW1 4829   1.102   1.764   7.127  0.5587  2.1089  0.1181
34097SOL    HW2 4830   1.252   1.755   7.142  0.6059  0.4441 -1.2487
34098SOL     OW 4831   9.413   9.298   4.924  0.4687 -0.4912  0.4172
34098SOL    HW1 4832   9.355   9.332   4.856  0.9073 -0.7508 -0.0917
34098SOL    HW2 4833   9.491   9.354   4.920  1.0687 -1.3525 -0.2262
34099SOL     OW 4834   0.305   2.050   0.093  0.2040  0.0074 -0.8034
34099SOL    HW1 4835   0.294   1.954   0.094  0.1611 -0.0325  2.3789
34099SOL    HW2 4836   0.399   2.063   0.106  0.1025  0.3707 -0.4039
34100SOL     OW 4837   9.682   3.078   1.704  0.0368 -0.1556 -0.0462
34100SOL    HW1 4838   9.608   3.129   1.735 -0.2245 -0.0314 -0.8489
34100SOL    HW2 4839   9.757   3.114   1.750 -0.5981 -1.3014  1.9214
34101SOL     OW 4840   6.019   8.728   5.324  0.0410 -0.2462 -0.0025
34101SOL    HW1 4841   5.994   8.720   5.416 -0.7027 -0.3521 -0.2097
34101SOL    HW2 4842   5.947   8.687   5.276 -0.5103  1.5123 -0.7338
34102SOL     OW 4843   3.883   1.468   2.747  0.2023 -1.1623 -0.4700
34102SOL    HW1 4844   3.963   1.458   2.798  1.7764 -2.9310 -3.0955
34102SOL    HW2 4845   3.912   1.462   2.656 -2.7783 -0.5920 -1.5293
34103SOL     OW 4846   7.026   6.919   6.767  0.8340  0.3000 -0.1741
34103SOL    HW1 4847   7.053   6.974   6.841 -0.6713 -0.2789  0.8270
34103SOL    HW2 4848   7.061   6.832   6.788  2.8836  0.7645 -1.5684
34104SOL     OW 4849   9.725   9.872   6.927 -0.5516 -0.4359 -0.2992
34104SOL    HW1 4850   9.719   9.863   7.022  0.6561  2.3843  0.0917
34104SOL    HW2 4851   9.786   9.944   6.913 -0.4672 -1.0057 -3.2357
34105SOL     OW 4852   0.796   5.286   7.048 -0.1674  0.1284  0.1767
34105SOL    HW1 4853   0.810   5.378   7.028 -1.8328  0.0652 -1.4296
34105SOL    HW2 4854   0.875   5.242   7.018 -0.2620  0.7756 -1.0414
34106SOL     OW 4855   5.680   5.923   9.878 -0.4944  0.7673 -0.2437
34106SOL    HW1 4856   5.735   5.998   9.899 -2.9710  2.8286 -0.9688
34106SOL    HW2 4857   5.705   5.899   9.789  0.4424  0.5668  0.0628
34107SOL     OW 4858   8.327   1.788   6.321 -0.4323  0.2124  0.1773
34107SOL    HW1 4859   8.350   1.745   6.238  0.1779  0.0160  0.4468
34107SOL    HW2 4860   8.383   1.866   6.324  0.3906 -0.4064  0.9607
34108SOL     OW 4861   7.256   7.802   1.719 -0.0588  0.3883  0.2743
34108SOL    HW1 4862   7.314   7.733   1.684  0.9889  1.5467 -0.3028
34108SOL    HW2 4863   7.171   7.759   1.727  0.7367 -1.1665  0.5426
34109SOL     OW 4864   0.564   1.716   6.690  0.0581 -0.1142 -0.6357
34109SOL    HW1 4865   0.649   1.689   6.725 -0.4808 -1.2142 -0.1726
34109SOL    HW2 4866   0.505   1.714   6.765 -0.4506  0.3375 -1.0215
34110SOL     OW 4867   2.119   0.746   0.270  0.1439  0.1456  0.0081
34110SOL    HW1 4868   2.084   0.788   0.191  0.8494  0.4229 -0.1681
34110SOL    HW2 4869   2.042   0.716   0.317 -0.2026 -2.9357 -2.3513
34111SOL     OW 4870   7.913   8.281   2.873 -0.1017  0.0639 -0.1684
34111SOL    HW1 4871   7.971   8.331   2.930  1.1340 -0.7539 -0.6961
34111SOL    HW2 4872   7.872   8.347   2.817  0.2065  0.6503  0.2895
34112SOL     OW 4873   3.331   5.645   5.606  0.0436 -0.0460  0.2524
34112SOL    HW1 4874   3.391   5.635   5.532 -0.1233 -0.0575  0.1200
34112SOL    HW2 4875   3.369   5.591   5.675 -0.5870 -1.1780 -0.2901
34113SOL     OW 4876   6.466   0.875   3.100  0.4415  0.1442 -0.3538
34113SOL    HW1 4877   6.410   0.816   3.151  0.9598  0.6014  0.7664
34113SOL    HW2 4878   6.524   0.817   3.051  1.2431 -0.3037  1.0768
34114SOL     OW 4879   0.946   7.459   1.070  0.3144  0.4196  0.0279
34114SOL    HW1 4880   1.007   7.494   1.005  0.7601  0.0022  0.2130
34114SOL    HW2 4881   0.954   7.519   1.145  0.1391  0.6400 -0.1295
34115SOL     OW 4882   7.699   2.596   8.625  0.1802  0.0425  0.1780
34115SOL    HW1 4883   7.748   2.597   8.543 -1.0515  0.8680 -0.5801
34115SOL    HW2 4884   7.613   2.560   8.600 -0.4739  1.0581  0.9327
34116SOL     OW 4885   4.629   0.233   8.979  0.7806  0.1311  0.0832
34116SOL    HW1 4886   4.564   0.165   9.000  0.2928  1.1310  1.9716
34116SOL    HW2 4887   4.685   0.193   8.913 -0.4991 -1.5131 -0.0528
34117SOL     OW 4888   8.762   9.783   8.924 -0.5383  0.3864  0.0992
34117SOL    HW1 4889   8.702   9.856   8.911 -1.5207 -0.3397  0.4789
34117SOL    HW2 4890   8.758   9.765   9.018  0.2540  0.3112  0.1221
34118SOL     OW 4891   6.770   0.267   0.190 -0.4571  0.3427 -0.1184
34118SOL    HW1 4892   6.843   0.255   0.130 -0.5448  2.3646 -0.6688
34118SOL    HW2 4893   6.744   0.358   0.178 -1.5564  0.3068  1.7786
34119SOL     OW 4894   4.271   1.918   4.949 -0.2982  0.4225  0.0060
34119SOL    HW1 4895   4.340   1.894   4.887  0.7609  0.5141  1.1292
34119SOL    HW2 4896   4.192   1.880   4.912  0.2347  0.8771 -1.6511
34120SOL     OW 4897   4.733   3.271   0.215  0.7682 -0.1812  0.6300
34120SOL    HW1 4898   4.828   3.274   0.227  1.0159  0.0522 -1.1963
34120SOL    HW2 4899   4.697   3.303   0.297  2.2827  0.0092  1.2366
34121SOL     OW 4900   1.662   3.524   1.457 -0.4161 -0.4636  0.0162
34121SOL    HW1 4901   1.755   3.543   1.466 -0.6866  0.7961  0.2611
34121SOL    HW2 4902   1.657   3.428   1.452  1.1188 -0.4297 -2.7590
34122SOL     OW 4903   3.906   9.402   9.581  0.4438  0.1236  0.0605
34122SOL    HW1 4904   3.818   9.369   9.567  0.3606 -0.2657  1.4282
34122SOL    HW2 4905   3.895   9.496   9.596  0.1107 -0.1420  1.5634
34123SOL     OW 4906   8.200   9.784   6.345  0.2490 -0.3048  0.0135
34123SOL    HW1 4907   8.248   9.751   6.269  0.6928 -1.2231  0.6848
34123SOL    HW2 4908   8.213   9.878   6.342  1.2832 -0.4499 -0.3745
34124SOL     OW 4909   4.949   9.333   4.920  0.2574  0.2415 -0.0825
34124SOL    HW1 4910   5.032   9.309   4.879  0.6643  1.0158  0.2841
34124SOL    HW2 4911   4.919   9.410   4.871 -0.5567 -0.4068 -0.6170
34125SOL     OW 4912   7.871   3.292   7.187  0.0266 -0.1988  0.4157
34125SOL    HW1 4913   7.794   3.320   7.235  0.6993  0.8965  0.8629
34125SOL    HW2 4914   7.863   3.334   7.101 -0.4100 -0.9506  0.0797
34126SOL     OW 4915   6.931   4.191   2.256  0.4069 -0.1553  0.4886
34126SOL    HW1 4916   6.931   4.114   2.312 -0.7519 -0.8977 -0.5058
34126SOL    HW2 4917   6.987   4.168   2.182 -1.1904 -0.6507 -0.5934
34127SOL     OW 4918   7.696   7.433   0.553  0.4058  0.5687 -0.0972
34127SOL    HW1 4919   7.723   7.398   0.638 -0.0911  2.0915  0.6894
34127SOL    HW2 4920   7.607   7.400   0.541  0.8047 -0.4182 -0.4802
34128SOL     OW 4921   3.867   2.610   4.230  0.0172 -0.3606  0.2533
34128SOL    HW1 4922   3.899   2.676   4.292  0.9698  1.2946 -1.9450
34128SOL    HW2 4923   3.821   2.547   4.285  0.6200  1.1828  2.6295
34129SOL     OW 4924   4.667   8.180   0.571  0.0475 -0.3433  0.1707
34129SOL    HW1 4925   4.687   8.249   0.508  0.6575 -1.6232 -1.0735
34129SOL    HW2 4926   4.581   8.203   0.605 -0.3412  0.3162 -1.2265
34130SOL     OW 4927   0.633   7.596   0.980  0.0938  0.0482  0.0677
34130SOL    HW1 4928   0.702   7.661   0.972  1.4671 -1.5325 -1.4738
34130SOL    HW2 4929   0.674   7.523   1.026 -1.1820 -0.0733  1.0433
34131SOL     OW 4930   1.754   5.162   9.210 -0.3087 -0.3937 -0.5294
34131SOL    HW1 4931   1.721   5.251   9.199  3.6622  1.3878  0.9376
34131SOL    HW2 4932   1.752   5.147   9.304 -0.0706 -1.5116 -0.6927
34132SOL     OW 4933   0.126   9.564   8.101 -0.2067 -0.3452  0.5009
34132SOL    HW1 4934   0.061   9.494   8.101 -1.3079  0.6802  0.0765
34132SOL    HW2 4935   0.196   9.531   8.044 -0.5112 -1.2837  0.6589
34133SOL     OW 4936   8.205   3.331   0.818  0.1809  0.3701 -0.3088
34133SOL    HW1 4937   8.233   3.397   0.882  1.3830 -1.6598  1.2870
34133SOL    HW2 4938   8.270   3.262   0.823 -1.3053 -1.1965 -1.6327
34134SOL     OW 4939   5.693   4.890   4.849  0.6391 -0.1885  0.5328
34134SOL    HW1 4940   5.630   4.822   4.825 -0.0875  0.7516 -0.2400
34134SOL    HW2 4941   5.751   4.898   4.773  1.1292 -0.3846  0.8770
34135SOL     OW 4942   4.047   0.470   0.880 -0.0703  0.7017  0.3737
34135SOL    HW1 4943   3.989   0.489   0.806 -0.3501  0.1164  0.4412
34135SOL    HW2 4944   4.011   0.391   0.919  0.1741  0.9156  1.0423
34136SOL     OW 4945   9.324   6.967   8.062  0.3118 -0.4242  0.1015
34136SOL    HW1 4946   9.358   7.054   8.042 -0.5121 -0.0508  0.3122
34136SOL    HW2 4947   9.317   6.966   8.158 -2.1555  0.2283 -0.0476
34137SOL     OW 4948   5.279   1.867   6.648  0.2531  0.3194  0.6392
34137SOL    HW1 4949   5.336   1.866   6.571  0.2159  0.3178  0.6118
34137SOL    HW2 4950   5.338   1.871   6.723  0.2585  1.8535  0.5582
34138SOL     OW 4951   6.828   7.481   7.332 -0.3113 -0.2198 -0.0827
34138SOL    HW1 4952   6.861   7.571   7.331  0.7613 -0.6031  0.0715
34138SOL    HW2 4953   6.743   7.486   7.288  0.0762  0.7336 -0.7336
34139SOL     OW 4954   0.590   5.574   1.302 -0.0289 -0.4572  0.8251
34139SOL    HW1 4955   0.533   5.590   1.378 -1.2449  1.6466 -0.4804
34139SOL    HW2 4956   0.530   5.564   1.229  1.1940 -1.2398 -0.0881
34140SOL     OW 4957   5.564   3.996   5.197  0.1383  0.4154  1.1276
34140SOL    HW1 4958   5.517   4.043   5.128  0.5500 -0.2673  0.3666
34140SOL    HW2 4959   5.622   3.937   5.149 -1.5449 -2.0581  2.0173
34141SOL     OW 4960   2.594   6.931   1.276 -0.3368 -0.4166 -0.1473
34141SOL    HW1 4961   2.639   6.858   1.319 -1.9548 -0.8388  0.8907
34141SOL    HW2 4962   2.509   6.894   1.250 -1.6385  1.3888  1.4071
34142SOL     OW 4963   6.879   7.773   2.661  0.4625  0.0980  0.2921
34142SOL    HW1 4964   6.896   7.723   2.581  1.5812  1.3817 -0.2991
34142SOL    HW2 4965   6.815   7.839   2.635 -0.2098 -0.3332  0.8127
34143SOL     OW 4966   6.127   2.176   2.877  0.8169  0.2131 -0.0530
34143SOL    HW1 4967   6.165   2.089   2.876 -0.4232 -0.3627  0.9464
34143SOL    HW2 4968   6.045   2.167   2.828  0.4938  0.7101  0.3874
34144SOL     OW 4969   8.487   6.308   0.191  0.6657  0.1499 -0.0423
34144SOL    HW1 4970   8.417   6.257   0.151  1.9568  0.2172 -2.4529
34144SOL    HW2 4971   8.541   6.242   0.235  0.0908 -0.0968  0.3019
34145SOL     OW 4972   2.840   6.812   2.307 -0.1292 -0.3794  0.5552
34145SOL    HW1 4973   2.790   6.889   2.284  0.2737  0.5756  2.7388
34145SOL    HW2 4974   2.784   6.738   2.284 -1.1289  0.6001 -0.1457
34146SOL     OW 4975   6.791   7.810   9.865 -0.2750  0.0540  0.1239
34146SOL    HW1 4976   6.766   7.849   9.949  1.1187 -0.7489  0.9165
34146SOL    HW2 4977   6.771   7.717   9.875  1.7066 -0.3632  0.2574
34147SOL     OW 4978   7.391   2.333   0.699 -0.1006  0.0231  0.1183
34147SOL    HW1 4979   7.437   2.356   0.780  1.8401 -0.6485 -0.7570
34147SOL    HW2 4980   7.455   2.282   0.649 -0.6641  1.8786 -2.5970
34148SOL     OW 4981   4.370   9.407   6.955 -0.1461 -0.1872 -0.4253
34148SOL    HW1 4982   4.402   9.326   6.915  0.4131 -0.3659  0.3650
34148SOL    HW2 4983   4.447   9.463   6.958 -0.3011  0.0055 -0.0521
34149SOL     OW 4984   8.695   3.264   8.060  0.1373 -0.3132 -0.2757
34149SOL    HW1 4985   8.726   3.234   7.975  0.5413 -1.9159  0.4067
34149SOL    HW2 4986   8.724   3.195   8.121  0.2319  1.0104  1.2060
34150SOL     OW 4987   8.796   5.293   2.479 -0.4348 -0.1913 -0.2484
34150SOL    HW1 4988   8.806   5.197   2.474 -0.2597 -0.1739 -0.2558
34150SOL    HW2 4989   8.866   5.321   2.538 -0.2049 -0.0241 -0.5943
34151SOL     OW 4990   0.878   6.195   3.978 -0.0372  0.4902  0.6034
34151SOL    HW1 4991   0.789   6.227   3.994 -1.0474 -0.9911 -1.8397
34151SOL    HW2 4992   0.913   6.255   3.912  0.1566  0.0054  0.2676
34152SOL     OW 4993   7.931   7.725   0.041  0.3915  0.0721 -0.2060
34152SOL    HW1 4994   8.022   7.742   0.016  0.4789 -0.9182 -0.6183
34152SOL    HW2 4995   7.916   7.635   0.011 -1.2859  0.8371 -1.7606
34153SOL     OW 4996   1.014   0.642   3.250  0.3634  0.0336  0.6897
34153SOL    HW1 4997   1.067   0.676   3.323 -0.5111  1.0201  0.8768
34153SOL    HW2 4998   1.024   0.547   3.256  1.7174  0.1749  1.0252
34154SOL     OW 4999   7.850   4.492   6.373  0.2283 -0.6235  0.4958
34154SOL    HW1 5000   7.788   4.494   6.299 -0.8750 -0.5916  1.4055
34154SOL    HW2 5001   7.823   4.565   6.429  1.2810 -0.4320  0.7614
34155SOL     OW 5002   3.260   8.870   4.422  0.5857  0.7373 -0.3614
34155SOL    HW1 5003   3.289   8.785   4.456  0.2888 -0.0462 -2.0323
34155SOL    HW2 5004   3.328   8.932   4.452  0.7674 -0.0578  0.9152
34156SOL     OW 5005   4.004   5.785   7.304 -0.0672 -0.4073  0.3866
34156SOL    HW1 5006   3.976   5.835   7.380 -0.9030  1.1380 -0.9226
34156SOL    HW2 5007   4.099   5.799   7.299  0.4292 -2.5893  2.5975
34157SOL     OW 5008   8.270   7.041   0.739  0.0862  0.2899 -0.3961
34157SOL    HW1 5009   8.193   7.091   0.765 -0.2704 -0.4907  0.0769
34157SOL    HW2 5010   8.268   7.041   0.643 -1.0369 -0.5352 -0.3787
34158SOL     OW 5011   1.168   8.216  10.146  0.2582 -0.5755 -0.5294
34158SOL    HW1 5012   1.096   8.177  10.195 -0.3518  0.3170 -0.7020
34158SOL    HW2 5013   1.234   8.147  10.141  0.7110 -0.3933  2.3144
34159SOL     OW 5014   2.088   1.386   3.750  0.4043 -0.3640  0.3426
34159SOL    HW1 5015   2.005   1.381   3.798 -1.1171  2.8129 -1.7161
34159SOL    HW2 5016   2.144   1.442   3.803  0.3705 -0.5424  0.5668
34160SOL     OW 5017   6.379   0.414   4.093  0.4827  0.1518 -0.0212
34160SOL    HW1 5018   6.451   0.388   4.036  0.3284  0.0803 -0.1816
34160SOL    HW2 5019   6.372   0.343   4.156 -0.7878 -0.8329 -1.2429
34161SOL     OW 5020   0.644   9.548   0.195 -0.0843  0.0282 -0.1923
34161SOL    HW1 5021   0.646   9.467   0.247 -0.7911  0.0493 -0.1291
34161SOL    HW2 5022   0.713   9.603   0.233 -0.4030 -0.0756  0.5311
34162SOL     OW 5023   3.239   0.987   4.328 -0.6385  0.2478  0.1601
34162SOL    HW1 5024   3.275   1.075   4.322  1.5101 -0.5800  0.3231
34162SOL    HW2 5025   3.259   0.947   4.243 -0.2455 -0.5729  0.6327
34163SOL     OW 5026   7.409   6.493   2.687 -0.0524  0.4115  0.3401
34163SOL    HW1 5027   7.389   6.587   2.688 -0.4731  0.3223  0.1779
34163SOL    HW2 5028   7.477   6.483   2.754 -0.9806  0.6159  1.3248
34164SOL     OW 5029   3.255   4.697   5.656  0.0809 -0.0288  0.2509
34164SOL    HW1 5030   3.176   4.750   5.642 -0.3335 -0.4415  0.9936
34164SOL    HW2 5031   3.321   4.736   5.599 -0.1158  1.5127  1.0450
34165SOL     OW 5032   4.761   0.067   4.251  0.2984 -0.1360  0.4435
34165SOL    HW1 5033   4.728   0.056   4.162 -0.0581  0.1431  0.5391
34165SOL    HW2 5034   4.757   0.162   4.267  2.3788  0.0467 -0.0155
34166SOL     OW 5035   2.984   7.772   7.372 -0.4449 -0.0585  0.0502
34166SOL    HW1 5036   3.023   7.693   7.410  1.4561 -0.4306 -2.5913
34166SOL    HW2 5037   2.955   7.823   7.448 -0.6693 -2.7446  1.8362
34167SOL     OW 5038   7.430   7.613   0.045  0.6068 -0.2963  0.1024
34167SOL    HW1 5039   7.491   7.674   0.085  0.7692 -0.5454  0.2364
34167SOL    HW2 5040   7.345   7.636   0.081  0.4484  0.7728 -0.9298
34168SOL     OW 5041   2.745   5.366   5.332 -0.0448 -0.4006 -0.6566
34168SOL    HW1 5042   2.731   5.430   5.401  1.4830 -0.9576  0.1999
34168SOL    HW2 5043   2.816   5.403   5.279  1.0298 -1.4790 -0.0015
34169SOL     OW 5044   7.309   7.657   5.279  0.4989 -0.8326  0.1761
34169SOL    HW1 5045   7.293   7.600   5.354 -0.8591 -1.2242 -0.4219
34169SOL    HW2 5046   7.378   7.716   5.310 -0.6964 -0.3775  2.0779
34170SOL     OW 5047   7.285   5.455  10.147 -0.5695 -0.0872 -0.5545
34170SOL    HW1 5048   7.333   5.448  10.230 -0.9221  0.1914 -0.3231
34170SOL    HW2 5049   7.332   5.397  10.087 -0.9359 -1.1023  0.1295
34171SOL     OW 5050   4.832   3.038   9.822  0.4245  0.3954  0.4222
34171SOL    HW1 5051   4.829   2.954   9.776  2.0177 -0.7838  2.3865
34171SOL    HW2 5052   4.753   3.040   9.875 -0.3992  0.8590 -0.7972
34172SOL     OW 5053   6.852   0.367   3.404 -0.2472  0.3138 -0.0114
34172SOL    HW1 5054   6.840   0.308   3.478 -0.5806  0.7170  0.2551
34172SOL    HW2 5055   6.776   0.425   3.406 -0.7577 -0.2844 -1.2319
34173SOL     OW 5056   8.861   7.622   3.305 -0.4454  1.2564 -0.2400
34173SOL    HW1 5057   8.953   7.604   3.283 -0.1063  1.0417  1.2765
34173SOL    HW2 5058   8.824   7.656   3.224  1.1325  1.9068 -0.7239
34174SOL     OW 5059   8.137   9.030   1.101  0.5375  0.0356 -0.0825
34174SOL    HW1 5060   8.199   9.081   1.154  0.1830 -0.5498  0.9008
34174SOL    HW2 5061   8.180   8.946   1.088  0.3099 -0.0778 -0.1023
34175SOL     OW 5062   3.406   8.485   9.339 -0.2882 -0.3939  0.3701
34175SOL    HW1 5063   3.448   8.421   9.281 -0.1984 -0.8920  0.9804
34175SOL    HW2 5064   3.475   8.546   9.362 -0.4952  0.2447 -0.6373
34176SOL     OW 5065   1.180   8.307   7.644 -0.0295 -0.3801 -0.3987
34176SOL    HW1 5066   1.111   8.257   7.601  0.0512  0.4486 -1.5048
34176SOL    HW2 5067   1.189   8.386   7.591 -0.5532  1.0836  1.6662
34177SOL     OW 5068   6.966   4.059   4.282  0.1701  0.1096 -0.0352
34177SOL    HW1 5069   6.997   4.143   4.313 -2.4334  0.8939  0.6210
34177SOL    HW2 5070   6.951   4.072   4.188  1.9505 -0.3280 -0.3880
34178SOL     OW 5071   0.442   2.563   7.966  0.2811 -0.2367  0.4156
34178SOL    HW1 5072   0.397   2.593   8.045  2.5853  0.0364  1.6477
34178SOL    HW2 5073   0.425   2.469   7.963 -1.6982  0.1129 -0.0251
34179SOL     OW 5074   6.919   9.274   8.230 -0.6110  0.8456 -0.6038
34179SOL    HW1 5075   6.893   9.361   8.261 -0.3097  1.2830 -1.5760
34179SOL    HW2 5076   6.837   9.226   8.222 -0.6210  0.3106  2.0596
34180SOL     OW 5077   7.460   3.314   2.673  0.4068  0.3281  0.7337
34180SOL    HW1 5078   7.500   3.307   2.586  0.7755 -3.5443  1.1355
34180SOL    HW2 5079   7.519   3.265   2.730 -2.2206 -1.0559  2.3233
34181SOL     OW 5080   8.324   4.645   2.346  0.0908 -0.2128  0.5983
34181SOL    HW1 5081   8.390   4.687   2.292  0.1171 -2.1543 -0.9255
34181SOL    HW2 5082   8.245   4.699   2.333  0.8855  1.0627  1.0106
34182SOL     OW 5083   8.189   1.042   0.926  0.6482 -0.3119  0.2399
34182SOL    HW1 5084   8.125   0.999   0.983 -0.0715 -0.7568 -0.8917
34182SOL    HW2 5085   8.182   1.135   0.949 -0.6484 -0.3133 -0.1137
34183SOL     OW 5086   9.592   8.250   7.129 -0.1077  0.4537 -0.3909
34183SOL    HW1 5087   9.601   8.290   7.042  0.2723  0.4353 -0.3625
34183SOL    HW2 5088   9.511   8.200   7.125  1.0336 -1.3594 -1.4494
34184SOL     OW 5089  10.057   5.789   1.456 -0.2798  0.2585  0.2923
34184SOL    HW1 5090  10.002   5.835   1.519 -3.1377 -0.4712 -1.5487
34184SOL    HW2 5091  10.051   5.697   1.482  1.3233  0.3243  0.9573
34185SOL     OW 5092   0.919   0.410   8.674  0.2488  0.2451 -0.1875
34185SOL    HW1 5093   0.900   0.410   8.768  0.9183 -3.8650  0.0229
34185SOL    HW2 5094   0.996   0.467   8.666  0.3652  0.4290  1.8022
34186SOL     OW 5095   8.107   6.435   0.240  0.9017  0.2524  0.2768
34186SOL    HW1 5096   8.087   6.390   0.158  1.0854 -0.3487  0.5659
34186SOL    HW2 5097   8.065   6.521   0.230 -0.2039 -0.3013  0.0930
34187SOL     OW 5098   6.063   9.604   5.509 -0.3553  0.0261 -0.0511
34187SOL    HW1 5099   6.148   9.646   5.504 -0.8459  1.0621  0.2745
34187SOL    HW2 5100   6.069   9.531   5.447  0.7910  0.0324  0.0374
34188SOL     OW 5101   4.811   1.915   6.775  0.0470  0.5788  0.3670
34188SOL    HW1 5102   4.894   1.958   6.754  1.7071 -2.2334  0.9371
34188SOL    HW2 5103   4.800   1.850   6.706 -0.4806 -0.6215  1.5570
34189SOL     OW 5104   1.330   7.065   3.354 -0.6714  0.4616 -0.1258
34189SOL    HW1 5105   1.314   7.142   3.300 -2.6677  1.1198  1.3821
34189SOL    HW2 5106   1.331   7.097   3.444 -0.2103 -1.0653  0.4394
34190SOL     OW 5107   4.566   2.929   8.344 -0.0981 -0.0876 -0.2113
34190SOL    HW1 5108   4.519   3.008   8.317  0.8847  0.2614 -0.9074
34190SOL    HW2 5109   4.658   2.952   8.337  0.2200 -1.6098 -1.3768
34191SOL     OW 5110   0.824   1.364   8.488  0.8131 -0.1925 -0.3051
34191SOL    HW1 5111   0.731   1.383   8.496  0.7897 -1.3181  2.7614
34191SOL    HW2 5112   0.833   1.324   8.402 -1.4100  0.5346 -0.9043
34192SOL     OW 5113   0.641   0.926   6.261 -0.1140  0.2306 -0.4797
34192SOL    HW1 5114   0.728   0.961   6.278 -1.0135  1.7714  1.2698
34192SOL    HW2 5115   0.620   0.875   6.340 -1.1459  0.6433 -0.4809
34193SOL     OW 5116   7.418   4.055   7.625  0.6143 -0.0169  0.0185
34193SOL    HW1 5117   7.510   4.035   7.611  0.3940 -0.4196 -0.9091
34193SOL    HW2 5118   7.379   3.972   7.655  0.0592 -0.5628 -2.0839
34194SOL     OW 5119   5.012   7.171   9.840 -0.0787  0.3902 -0.1806
34194SOL    HW1 5120   4.981   7.134   9.922  0.6034  1.9485  0.8201
34194SOL    HW2 5121   5.011   7.266   9.855  2.1649  0.6038 -1.1955
34195SOL     OW 5122   7.831   1.480   4.354 -0.2389 -0.1915  0.0617
34195SOL    HW1 5123   7.774   1.413   4.317 -1.5082  1.0179 -0.2333
34195SOL    HW2 5124   7.811   1.480   4.448 -0.0350 -0.3968  0.1077
34196SOL     OW 5125   0.656   8.799   9.114  0.1944 -0.3179 -0.7107
34196SOL    HW1 5126   0.636   8.740   9.187  0.3527  1.1784  0.5697
34196SOL    HW2 5127   0.622   8.884   9.142 -0.0179  0.2149 -2.5184
34197SOL     OW 5128   5.952   9.138   1.208  0.0874 -0.0731  0.3563
34197SOL    HW1 5129   6.046   9.153   1.215  0.5383 -2.1227 -0.8752
34197SOL    HW2 5130   5.933   9.079   1.281 -0.8596  2.8010  2.5187
34198SOL     OW 5131   8.612   3.679   4.140 -0.1471  0.0382  0.5484
34198SOL    HW1 5132   8.680   3.715   4.196  0.8366 -2.5040  1.0817
34198SOL    HW2 5133   8.530   3.718   4.172  1.0386  3.1509 -0.1356
34199SOL     OW 5134   9.795   9.525   4.117  0.2993 -0.5057  0.4995
34199SOL    HW1 5135   9.833   9.438   4.131  1.7191 -0.0446 -0.3483
34199SOL    HW2 5136   9.739   9.540   4.194  0.9498 -1.6855  1.2148
34200SOL     OW 5137   7.569   5.754   4.104  0.0869  0.3666 -0.5136
34200SOL    HW1 5138   7.651   5.799   4.124  0.1797  0.0800 -0.2548
34200SOL    HW2 5139   7.530   5.735   4.189  1.0590 -1.9332 -0.5413
34201SOL     OW 5140   3.120   6.850   9.686 -0.4840  0.2046  0.2191
34201SOL    HW1 5141   3.174   6.925   9.708  0.0586 -0.1872  0.2353
34201SOL    HW2 5142   3.115   6.851   9.591 -2.2889  1.5194  0.3074
34202SOL     OW 5143   3.289   6.674   2.178  0.1363  0.1652  0.2172
34202SOL    HW1 5144   3.324   6.762   2.193 -0.6875  0.4836  0.3381
34202SOL    HW2 5145   3.210   6.671   2.232  0.2196 -0.6897  0.2903
34203SOL     OW 5146   5.283   7.733   5.989  0.1821 -0.2240 -0.2046
34203SOL    HW1 5147   5.211   7.781   5.948 -0.6287 -1.1925  0.0843
34203SOL    HW2 5148   5.325   7.686   5.917  0.8862  0.7723 -0.4655
34204SOL     OW 5149   2.007   7.768   5.913  0.9984 -0.7003  0.4631
34204SOL    HW1 5150   1.986   7.697   5.852  1.2551 -1.5105  1.2969
34204SOL    HW2 5151   1.964   7.742   5.995  0.5754  0.4176  0.6077
34205SOL     OW 5152   5.830   5.575   3.884  0.5306  0.6140 -0.8920
34205SOL    HW1 5153   5.794   5.533   3.806  0.2289  0.1102 -0.4811
34205SOL    HW2 5154   5.833   5.506   3.950 -0.4800  1.3568 -0.0462
34206SOL     OW 5155   3.682   2.785   2.654  0.3971 -0.0854  0.0826
34206SOL    HW1 5156   3.695   2.837   2.733 -0.6786 -0.9457  0.8521
34206SOL    HW2 5157   3.615   2.833   2.604  1.8572  1.0277 -0.8489
34207SOL     OW 5158   7.180   8.682   6.121  0.1101  0.2596  0.0680
34207SOL    HW1 5159   7.173   8.699   6.215  1.2460  0.3639  0.1441
34207SOL    HW2 5160   7.156   8.590   6.112 -2.8796  0.9915  0.0683
34208SOL     OW 5161   2.848   2.436   1.985 -0.0431  0.3175 -0.1413
34208SOL    HW1 5162   2.830   2.405   1.896 -0.6645  3.0100 -1.0227
34208SOL    HW2 5163   2.770   2.486   2.009  1.0197  1.4719  1.0348
34209SOL     OW 5164   6.813   1.996   7.248  0.0711 -0.3705  0.1640
34209SOL    HW1 5165   6.817   2.084   7.209 -0.2661 -0.5517 -0.2900
34209SOL    HW2 5166   6.719   1.979   7.257  0.1441 -0.4487  0.8005
34210SOL     OW 5167   5.827   3.100   6.668 -0.2442 -0.1850 -0.3139
34210SOL    HW1 5168   5.914   3.137   6.680  0.0607 -0.9313 -0.1670
34210SOL    HW2 5169   5.787   3.105   6.755 -0.0614 -0.5337 -0.2054
34211SOL     OW 5170   2.152   8.297   7.437 -0.0922 -0.2976  0.5641
34211SOL    HW1 5171   2.214   8.224   7.446  0.0862 -0.2321 -0.1453
34211SOL    HW2 5172   2.174   8.356   7.510 -0.3199 -1.0081  1.2199
34212SOL     OW 5173   1.201   5.591   4.593  0.4457 -0.3207 -0.6880
34212SOL    HW1 5174   1.277   5.639   4.625  1.0128 -1.9620  0.4415
34212SOL    HW2 5175   1.189   5.624   4.504  1.2486  1.3975 -0.1893
34213SOL     OW 5176   1.906   7.272   6.394  0.0946  0.3485  0.0163
34213SOL    HW1 5177   1.827   7.323   6.415 -0.4152 -0.0381 -0.8908
34213SOL    HW2 5178   1.936   7.239   6.478 -0.9554  0.1631  0.3328
34214SOL     OW 5179   6.430   7.126   8.647  0.2997 -0.3813  0.1998
34214SOL    HW1 5180   6.427   7.068   8.571  0.4416  0.5727 -0.5452
34214SOL    HW2 5181   6.465   7.209   8.613  1.5213 -0.3140  1.5430
34215SOL     OW 5182   4.422   0.409   3.011 -0.8522 -0.6495 -0.3410
34215SOL    HW1 5183   4.431   0.392   3.105 -0.7248 -1.8916 -0.5642
34215SOL    HW2 5184   4.378   0.494   3.005  0.4657  0.1231  0.8302
34216SOL     OW 5185   2.458   2.680   2.624 -0.0018  0.3370 -0.1959
34216SOL    HW1 5186   2.541   2.711   2.660 -0.2319 -1.0262  1.5534
34216SOL    HW2 5187   2.454   2.588   2.649 -1.9514  0.3414 -0.4481
34217SOL     OW 5188   0.889   9.536   8.297  0.1942 -0.4223 -0.3883
34217SOL    HW1 5189   0.809   9.494   8.266  1.0853 -1.4011 -1.4389
34217SOL    HW2 5190   0.865   9.575   8.380 -1.2999 -0.9608 -0.5460
34218SOL     OW 5191   2.110  10.108  10.014  0.0237 -0.1502  0.3287
34218SOL    HW1 5192   2.049  10.051  10.061 -1.7902  0.4388 -1.2467
34218SOL    HW2 5193   2.082  10.197  10.036  0.2913  0.1253 -0.4235
34219SOL     OW 5194   6.703   8.370   9.611  0.1561  0.6252  0.1196
34219SOL    HW1 5195   6.747   8.446   9.649 -0.5173  0.8601  0.4368
34219SOL    HW2 5196   6.650   8.335   9.682 -0.0094  0.2164 -0.2019
34220SOL     OW 5197   2.892   3.755   2.485  0.7180 -0.5077  0.5445
34220SOL    HW1 5198   2.823   3.811   2.521 -0.5203 -0.6190 -1.6051
34220SOL    HW2 5199   2.964   3.764   2.548 -0.6347  0.9035  1.9630
34221SOL     OW 5200   0.403   9.404   5.788  0.3569  0.2087  0.4125
34221SOL    HW1 5201   0.490   9.382   5.752 -0.0716  1.0184 -1.1858
34221SOL    HW2 5202   0.341   9.363   5.727 -0.3975  1.8094  0.0841
34222SOL     OW 5203   2.992   9.773   5.542 -0.3781 -0.3348  0.5622
34222SOL    HW1 5204   3.071   9.766   5.489 -0.9705 -0.6492 -0.3121
34222SOL    HW2 5205   2.932   9.825   5.488 -0.5726  0.3882  1.4583
34223SOL     OW 5206   5.367   5.382   7.860  0.2062  0.8189 -0.2186
34223SOL    HW1 5207   5.433   5.445   7.830  0.8061  0.2885 -0.0240
34223SOL    HW2 5208   5.290   5.401   7.806  0.9176  0.6149 -1.3185
34224SOL     OW 5209   8.437   9.551   3.920  0.1533  0.1289 -1.1190
34224SOL    HW1 5210   8.487   9.617   3.967  1.0630 -1.3545  0.0166
34224SOL    HW2 5211   8.378   9.602   3.864  0.9423  1.8965 -0.3889
34225SOL     OW 5212   0.956   3.933   6.029 -0.5856 -0.5981  0.0583
34225SOL    HW1 5213   1.016   3.869   6.067  0.2995 -0.0917 -0.4525
34225SOL    HW2 5214   1.013   3.990   5.977 -1.4975 -0.0157 -0.3065
34226SOL     OW 5215   7.421   6.452   4.060 -0.1354  0.5966 -0.1718
34226SOL    HW1 5216   7.431   6.464   4.154  0.9458 -1.6972  0.0445
34226SOL    HW2 5217   7.327   6.464   4.044 -0.2758  1.3261  1.1363
34227SOL     OW 5218   3.048   0.159   3.294 -0.7189  0.3810  0.6162
34227SOL    HW1 5219   3.096   0.149   3.212 -0.0253  0.6156  0.9886
34227SOL    HW2 5220   3.026   0.252   3.298 -0.5875  0.4043  0.7875
34228SOL     OW 5221   4.781   7.770   1.277  0.8028  0.4499  0.4491
34228SOL    HW1 5222   4.858   7.738   1.324  0.9088  0.7393  0.4773
34228SOL    HW2 5223   4.807   7.769   1.185  1.4283  2.1122  0.5918
34229SOL     OW 5224   3.173   8.590   9.717  0.1726 -0.3602 -0.5680
34229SOL    HW1 5225   3.115   8.576   9.792 -0.7046 -0.8594 -1.3302
34229SOL    HW2 5226   3.240   8.522   9.727 -1.1281 -1.7907 -1.3773
34230SOL     OW 5227   7.609   3.672   4.986  0.4228  0.6400 -0.3110
34230SOL    HW1 5228   7.623   3.577   4.984  0.2149  0.6267 -1.5074
34230SOL    HW2 5229   7.644   3.700   5.071  0.5150 -0.4992  0.0343
34231SOL     OW 5230   2.845   8.864   2.465 -0.0658 -0.1252  0.1609
34231SOL    HW1 5231   2.922   8.918   2.452  0.1469 -0.4565  0.0366
34231SOL    HW2 5232   2.848   8.839   2.557  0.4063 -0.7936 -0.0319
34232SOL     OW 5233   4.032   4.323   2.436  0.3257  0.5967  0.2217
34232SOL    HW1 5234   3.945   4.354   2.407  0.8933  0.7330 -1.4107
34232SOL    HW2 5235   4.013   4.263   2.508 -1.2108 -0.2408 -0.8407
34233SOL     OW 5236   2.661   5.828   9.462  0.0468 -0.1181  0.3396
34233SOL    HW1 5237   2.757   5.829   9.458  0.0489  1.1313  0.4945
34233SOL    HW2 5238   2.637   5.738   9.439  1.2179 -0.2046 -0.6070
34234SOL     OW 5239   3.681   5.936   6.139 -0.4540 -0.1139  0.0892
34234SOL    HW1 5240   3.740   5.864   6.160  1.0402  0.8940 -0.5542
34234SOL    HW2 5241   3.706   6.006   6.199 -1.1350  0.2612 -0.0555
34235SOL     OW 5242   5.405   7.448   7.376 -0.1305  0.3369  0.0015
34235SOL    HW1 5243   5.356   7.394   7.314  0.4430  0.1078 -0.2528
34235SOL    HW2 5244   5.492   7.408   7.380  0.2091  1.0634  0.0387
34236SOL     OW 5245   9.279   5.276   4.983  0.9596  0.2619  0.6924
34236SOL    HW1 5246   9.309   5.185   4.977 -0.5265 -0.2134  0.2341
34236SOL    HW2 5247   9.213   5.275   5.052 -1.6364  0.2457 -1.6917
34237SOL     OW 5248   3.069   1.082   8.923  0.1867  0.3089  0.1732
34237SOL    HW1 5249   3.069   1.164   8.972 -0.0643  1.1232 -1.1778
34237SOL    HW2 5250   3.040   1.106   8.835  0.9168 -1.0863 -0.4677
34238SOL     OW 5251   9.174   0.992   0.938  0.1443 -0.5164 -0.0469
34238SOL    HW1 5252   9.245   0.932   0.962  0.7739  1.3047  2.9084
34238SOL    HW2 5253   9.204   1.078   0.967 -3.1933  0.3235  1.1843
34239SOL     OW 5254   1.668   6.028   5.632  0.4448  0.5227  0.5537
34239SOL    HW1 5255   1.734   6.046   5.566  0.9957  0.6263  1.1255
34239SOL    HW2 5256   1.589   6.072   5.601  0.4466 -0.1893 -0.4788
34240SOL     OW 5257   1.223   1.367   5.973  0.3522  0.3369 -0.1813
34240SOL    HW1 5258   1.144   1.395   6.020 -0.8717 -1.1898 -1.2488
34240SOL    HW2 5259   1.268   1.448   5.951 -1.4229  1.2973 -0.3697
34241SOL     OW 5260   3.167   0.642   9.774 -0.0866  0.2880  0.2055
34241SOL    HW1 5261   3.081   0.642   9.816 -0.4158 -2.9317 -0.3094
34241SOL    HW2 5262   3.148   0.648   9.680  0.2472  0.1088  0.1227
34242SOL     OW 5263   9.059   2.798   4.978 -0.0408 -0.3876  0.9276
34242SOL    HW1 5264   9.111   2.765   5.051 -0.1262  0.4237  1.3603
34242SOL    HW2 5265   8.985   2.737   4.973 -0.3396 -0.1235  1.8878
34243SOL     OW 5266   6.370   7.199   4.198 -0.4233  0.0893  0.3109
34243SOL    HW1 5267   6.357   7.269   4.134 -2.9258  0.3327  1.0210
34243SOL    HW2 5268   6.283   7.159   4.208  0.4898 -1.6607  1.5862
34244SOL     OW 5269   8.099   5.123   4.446 -0.5334  0.6348 -0.0635
34244SOL    HW1 5270   8.145   5.047   4.482 -1.1926  0.6889  0.9030
34244SOL    HW2 5271   8.134   5.197   4.495  2.1733  1.3436 -2.9015
34245SOL     OW 5272   0.622   0.658   4.909 -0.0550  0.2890  0.3987
34245SOL    HW1 5273   0.555   0.701   4.856 -0.3675  1.5716  1.8140
34245SOL    HW2 5274   0.574   0.594   4.961  0.1391 -0.3856 -0.2443
34246SOL     OW 5275   3.454   2.265   9.981 -0.0722 -0.3698 -0.5673
34246SOL    HW1 5276   3.520   2.326  10.014  0.1815  0.0915 -1.8952
34246SOL    HW2 5277   3.504   2.185   9.961  0.0423 -0.1182 -1.2999
34247SOL     OW 5278   7.002   9.815   5.362 -0.3442 -0.5051 -0.8065
34247SOL    HW1 5279   7.074   9.753   5.373 -0.0326 -0.4198 -2.2599
34247SOL    HW2 5280   7.044   9.898   5.338 -0.5336  1.0971  3.8089
34248SOL     OW 5281   3.243   8.832   7.878  0.4747  0.0315 -0.1831
34248SOL    HW1 5282   3.255   8.926   7.892 -0.6537  0.3163 -1.0150
34248SOL    HW2 5283   3.303   8.811   7.807  0.5655  0.1778 -0.1507
34249NA      NA 5284   7.766   7.817   2.555 -0.3308 -0.0714 -0.0984
34250NA      NA 5285   9.282   1.044   7.887  0.6150 -0.0787  0.1467
34251NA      NA 5286   7.926   9.691   8.485 -0.4248  0.0784 -0.4319
34252NA      NA 5287   0.052   7.125   4.381  0.2439 -0.0071  0.8394
34253NA      NA 5288   1.553   6.291   3.056  0.0332 -0.6648  0.1118
34254NA      NA 5289   9.204   5.626   7.429  0.1168  0.1141 -0.2205
34255NA      NA 5290   1.584   2.238   3.887 -0.4474 -0.1060 -0.3847
34256NA      NA 5291   0.464   4.396   5.199  0.1337  0.1820  0.2471
34257NA      NA 5292   9.552   7.040   7.371 -0.2465  0.5026  0.6269
34258NA      NA 5293   3.444   1.750   5.762  0.4151  0.1683  0.1741
34259NA      NA 5294   6.811   4.516   3.082 -0.2745 -0.1490 -0.0577
34260NA      NA 5295   0.194   6.169   7.491  0.0667  0.1072  0.5528
34261NA      NA 5296   1.747   6.493   2.366  0.4065 -0.0948 -0.0561
34262NA      NA 5297   2.187   3.821   3.210  0.0013 -0.1960 -0.5079
34263NA      NA 5298   2.414   7.583   2.943  0.0180 -0.1178  0.4623
34264NA      NA 5299   0.717   4.108   1.068  0.4514 -0.5806 -0.4184
34265NA      NA 5300   3.943   6.725   8.952 -0.6217 -0.1916 -0.1251
34266NA      NA 5301   2.563   0.307   6.144 -0.1517  0.2413 -0.0219
34267NA      NA 5302   2.983   4.578   7.910  0.1248  0.1565 -0.0181
34268NA      NA 5303   2.847   5.551   4.055 -0.2989  0.0894  0.4000
34269NA      NA 5304   9.310   6.053   5.289 -0.1316  0.2289 -0.3423
34270NA      NA 5305   7.166   4.646   0.501  0.3674 -0.0447  0.6166
34271NA      NA 5306   7.676  10.023   1.941 -0.1396 -0.7688 -0.3535
34272NA      NA 5307   2.334   7.462   9.045 -0.0849  0.3973 -0.2716
34273NA      NA 5308   7.342   1.711   2.513  0.0135  0.2298  0.1395
34274NA      NA 5309   9.937   4.496   4.222 -0.3723  0.0642  0.4071
34275NA      NA 5310   5.359   5.767   0.432  0.1051 -0.2950  0.0259
34276NA      NA 5311   7.373   9.603   2.316  0.0409  0.1593  0.4108
34277NA      NA 5312   9.755   5.030   1.223 -0.3951 -0.1139 -0.4799
34278NA      NA 5313   7.907   5.171   4.348  0.0918  0.2310 -0.1991
34279NA      NA 5314   0.292   2.497   7.536  0.1472  0.1441  0.1518
34280NA      NA 5315   1.597   8.098   4.698  0.3084  0.2533  0.2680
34281NA      NA 5316   6.903   8.368   1.716 -0.1341 -0.5192 -0.3988
34282NA      NA 5317   9.520   3.265   7.220  0.0765  0.0589 -0.2349
34283NA      NA 5318   2.560   8.552   2.062  0.3792 -0.2746  0.0661
34284NA      NA 5319   5.950   0.159   0.433  0.0458 -0.2146  0.1024
34285NA      NA 5320   4.905   6.298   6.127 -0.4356  0.1112 -0.0919
34286NA      NA 5321   2.124   0.129   6.672 -0.2735 -0.5607  0.1676
34287NA      NA 5322   2.562   7.071   3.947  0.2148 -0.3696 -0.3798
34288NA      NA 5323   2.660   9.025   4.130 -0.6595  0.1266  0.0781
34289NA      NA 5324   3.138   9.156   9.635 -0.3420 -0.3789 -0.2893
34290NA      NA 5325   2.140   4.389   3.989  0.0160 -0.2310 -0.7643
34291NA      NA 5326   9.430   0.001   6.759  0.0972  0.6199 -0.2085
34292NA      NA 5327   9.074   8.700   4.526  0.5661 -0.2320 -0.2592
34293NA      NA 5328   9.947   1.243   2.669  0.3045  0.1948 -0.2272
34294NA      NA 5329   6.576   1.440   2.625 -0.0716  0.2994 -0.1740
34295NA      NA 5330   6.063   6.630   4.019 -0.5621  0.7660  0.3361
34296NA      NA 5331   2.769   0.722   8.266  0.4906 -0.6282  0.3505
34297NA      NA 5332   6.286   5.972   1.896  0.0237 -0.0480 -0.5316
34298NA      NA 5333   2.215   2.205   4.213  0.2358 -0.1556  0.2193
34299NA      NA 5334   2.200   6.412   8.298 -0.0138  0.1197  0.3638
34300NA      NA 5335   5.016   9.484   2.148  0.0136  0.1016  0.0221
34301NA      NA 5336   3.557   5.261   0.792 -0.5903  0.0987  0.0864
34302NA      NA 5337   5.274   1.652   2.293  0.1693 -0.7710  0.0374
34303NA      NA 5338   1.019   1.823   6.439  0.1970  0.3375  0.1576
34304NA      NA 5339   8.373   2.644   4.419  0.2857  0.4163  0.5908
34305NA      NA 5340   3.055   2.182   2.624  0.0476 -0.0118 -0.5820
34306NA      NA 5341   6.711   1.199   1.425 -0.3959  0.3523  0.0435
34307NA      NA 5342   8.011   0.295   8.540  0.5560  0.1786 -0.3183
34308NA      NA 5343   9.244   6.835   7.922  0.2037 -0.1558 -0.0897
34309NA      NA 5344   6.917   1.285   6.278 -0.2946  0.2534  0.0335
34310NA      NA 5345   5.953   3.521   5.203  0.0688  0.1944 -0.2872
34311NA      NA 5346   7.817   7.368   6.539  0.1087  0.0762  0.3145
34312NA      NA 5347   8.137   7.142   8.332 -0.2080  0.1264  0.2391
34313NA      NA 5348   9.469   9.589   4.203  0.0261  0.1111  0.0787
34314NA      NA 5349   2.797   7.595   5.997 -0.3348 -0.2808 -0.4598
34315NA      NA 5350   8.025   0.115   5.674  0.2278  0.3365  0.0274
34316NA      NA 5351   4.249   8.062   3.849 -0.0370  0.0583 -0.1124
34317NA      NA 5352   1.583   1.748   7.883 -0.0883  0.1174 -0.2492
34318NA      NA 5353   1.755   4.489   5.937 -0.0931  0.3412 -0.3945
34319NA      NA 5354   9.323   5.740   5.970  0.1317  0.6849  1.0084
34320NA      NA 5355   0.227   3.110   6.660  0.4341 -0.1915 -0.4611
34321NA      NA 5356   5.163  10.188   7.484 -0.7681 -0.2339 -0.1166
34322NA      NA 5357   6.820   8.407   7.226 -0.0170  0.3881  0.5826
34323NA      NA 5358  10.157   9.087   7.615  0.5006 -0.3001 -0.0349
34324NA      NA 5359   2.945   9.773   1.507 -0.0079 -0.3279 -0.0973
34325NA      NA 5360   6.091   6.188   2.954  0.3983 -0.0885  0.0343
34326NA      NA 5361   2.379   8.542   6.974  0.3587  0.1612 -0.9264
34327NA      NA 5362   5.981   3.613   2.159  0.4477  0.0218 -0.5672
34328NA      NA 5363   2.182   8.793   2.442  0.0977 -0.3924 -0.1404
34329NA      NA 5364   9.493   4.581   5.868 -0.4351  0.2278  0.0434
34330NA      NA 5365   9.858   6.747   2.857  0.0659  0.1771 -0.4680
34331NA      NA 5366   0.681   6.897   3.900 -0.2978 -0.2815 -0.0856
34332NA      NA 5367   5.207   4.178   5.361  0.0557 -0.3337 -0.0766
34333NA      NA 5368   5.976   8.696   8.053  0.8131 -0.1306  0.7032
34334NA      NA 5369   1.535   8.158   7.409 -0.5453 -0.2667 -0.0903
34335NA      NA 5370   0.642   6.940   8.429  0.1278 -0.2319 -0.1715
34336NA      NA 5371   1.433   4.448   2.744  0.3193 -0.2230 -0.1936
34337NA      NA 5372   6.301   9.967   5.754  0.6177 -0.6466 -0.5489
34338NA      NA 5373   1.353   0.886   2.766  0.1860  0.3525  0.1906
34339NA      NA 5374   8.843   3.130   5.850  0.3991  0.0142 -0.3934
34340NA      NA 5375   6.662   6.983   0.088  0.4431 -0.3149 -0.0488
34341NA      NA 5376   5.495   1.961   3.496  0.2461 -0.3182  0.2515
34342NA      NA 5377   8.362   1.850   6.960  0.3952  0.1913  0.6373
34343NA      NA 5378   6.705   9.145   4.969  0.1662 -0.2591 -0.8019
34344NA      NA 5379   8.102   1.548   8.661  0.4174 -0.1925 -0.1835
34345NA      NA 5380   6.323   8.972   5.331  0.4790  0.2830 -0.0791
34346NA      NA 5381   9.345   5.654   1.561 -0.0291 -0.1599  0.1572
34347CL      CL 5382   8.419   2.880   7.425 -0.4993  0.1750 -0.3103
34348CL      CL 5383   8.346   1.165   5.910 -0.0513  0.1472  0.2705
34349CL      CL 5384   6.827   0.831   6.422  0.0647 -0.1025  0.0626
34350CL      CL 5385   9.885   1.491   2.277  0.2508 -0.3122  0.1723
34351CL      CL 5386   2.619   0.515   8.328 -0.4927  0.0244  0.4328
34352CL      CL 5387  10.072   5.475   6.967  0.0489  0.1521 -0.4674
34353CL      CL 5388   1.625   6.444   2.876  0.0832  0.2694  0.1443
34354CL      CL 5389   3.683   4.191   7.768 -0.1518  0.0996  0.3434
34355CL      CL 5390   1.374   4.371   4.916  0.3378  0.3507 -0.0295
34356CL      CL 5391   6.421   3.270   5.324 -0.7796 -0.0632 -0.2235
34357CL      CL 5392   6.809   0.195   3.672 -0.1613  0.4765  0.1203
34358CL      CL 5393   6.590   7.785   0.399 -0.5300  0.2885 -0.3004
34359CL      CL 5394   6.297   9.371   4.771 -0.8091  0.0502  0.0060
34360CL      CL 5395   6.325   6.531  10.162 -0.1395  0.3701  0.3402
34361CL      CL 5396   4.119   7.078   5.980 -0.1315 -0.0990 -0.0128
34362CL      CL 5397   6.418   7.583   2.478  0.2298 -0.0520  0.4302
34363CL      CL 5398   7.513   8.065   2.326 -0.1013 -0.2419  0.0482
34364CL      CL 5399   8.350   8.603   6.796  0.1531 -0.0472 -0.0767
34365CL      CL 5400   0.028   1.232   4.252 -0.2290 -0.3730  0.3264
34366CL      CL 5401  10.063   3.476   5.894  0.1878 -0.2659 -0.1727
34367CL      CL 5402   5.312   1.426   3.864 -0.0455  0.2186 -0.1450
34368CL      CL 5403   7.493   2.203   7.729 -0.2502 -0.1559 -0.2765
34369CL      CL 5404   0.113   3.373   4.975  0.0779  0.1348 -0.1444
34370CL      CL 5405   6.257   7.555   3.737  0.0126  0.4487  0.2324
34371CL      CL 5406   7.961   0.306   2.953  0.0943  0.1663 -0.2298
34372CL      CL 5407   0.892   1.208   3.806  0.1795 -0.0713 -0.1661
34373CL      CL 5408   9.407   0.788   7.346  0.0967 -0.2124 -0.0426
34374CL      CL 5409   3.104   4.762   8.001 -0.2438 -0.2149 -0.1840
34375CL      CL 5410   0.880   6.528   0.468  0.5773  0.2653  0.3126
34376CL      CL 5411   6.767   9.198   1.700 -0.1887  0.0466  0.0087
34377CL      CL 5412   5.028   9.149   3.690  0.1424  0.3934  0.0900
34378CL      CL 5413   8.731   9.939   4.262 -0.0896  0.2707  0.0242
34379CL      CL 5414   1.359   4.681   4.050  0.0843  0.2501  0.0271
34380CL      CL 5415   5.515   1.906   6.147 -0.0179  0.4579  0.0239
34381CL      CL 5416   7.640   1.265   8.558  0.2667 -0.2349  0.2489
34382CL      CL 5417   2.615   8.768   4.536  0.2469  0.3824  0.4346
34383CL      CL 5418   1.155   7.688   3.881 -0.2650 -0.1265 -0.2265
34384CL      CL 5419   7.060   9.334   5.495  0.2942  0.4039  0.0295
34385CL      CL 5420   0.028   0.535   9.320 -0.3482  0.4029 -0.3279
34386CL      CL 5421   2.329   1.642   9.640 -0.4026 -0.2282 -0.0398
34387CL      CL 5422   1.139   8.163   6.328 -0.2159 -0.0810 -0.0871
34388CL      CL 5423   5.164   4.596   4.566  0.1412 -0.1596 -0.1767
34389CL      CL 5424   7.389   9.845   7.641 -0.0999 -0.1371  0.2164
34390CL      CL 5425   1.784   2.324   7.161  0.1588 -0.2472 -0.4656
34391CL      CL 5426   0.236   3.663   1.514 -0.0297  0.0667 -0.1915
34392CL      CL 5427   2.606   2.751   4.048 -0.3619 -0.1118  0.0034
34393CL      CL 5428   2.587   4.902   2.322 -0.3696  0.0489 -0.3228
34394CL      CL 5429   4.388   6.622   6.621  0.3105 -0.1647 -0.0625
34395CL      CL 5430   2.345   6.255   7.406 -0.1138 -0.0671  0.0357
34396CL      CL 5431   4.340   8.837   9.176 -0.3778 -0.1635  0.2080
34397CL      CL 5432   6.470   5.266   2.632  0.3549 -0.3334  0.2312
34398CL      CL 5433   1.281   7.121   5.156  0.1554 -0.1580  0.3416
34399CL      CL 5434   3.322   5.188   3.256 -0.0164  0.0625 -0.1907
34400CL      CL 5435   7.510  10.199   1.165  0.0140  0.2728  0.3318
34401CL      CL 5436   6.728   6.431   4.145 -0.2375  0.2678 -0.3301
34402CL      CL 5437   8.033   7.139   7.869 -0.2949 -0.6213 -0.2389
34403CL      CL 5438   3.562   3.787   5.041 -0.5036 -0.1659 -0.2847
34404CL      CL 5439   9.726   2.468   3.316 -0.1562  0.0418  0.1893
34405CL      CL 5440   0.290   4.402   3.775 -0.4123  0.1116  0.0327
34406CL      CL 5441   6.507   7.042   8.119  0.4259 -0.0113  0.1944
34407CL      CL 5442   1.741   9.532   0.193  0.2521 -0.2619 -0.0179
34408CL      CL 5443   2.801   7.451   3.734  0.3237 -0.0550 -0.4347
34409CL      CL 5444   1.257   9.685   0.076  0.0225  0.2061  0.2011
34410CL      CL 5445   1.300   1.281   3.094  0.0955 -0.3442  0.4073
34411CL      CL 5446   2.320   8.778   2.873  0.2278  0.0162 -0.2487
34412CL      CL 5447   7.522   3.244   2.362  0.2870 -0.4673  0.2744
34413CL      CL 5448   1.491   5.694   7.976 -0.0235 -0.3318 -0.1220
34414CL      CL 5449   8.225   5.324   5.386 -0.0989 -0.6800  0.1300
34415CL      CL 5450   6.640   6.300   5.668  0.0327  0.2039 -0.0435
34416CL      CL 5451   4.579   4.888   6.579 -0.1252  0.0770 -0.2106
34417CL      CL 5452   9.619   4.372   5.858  0.1058 -0.8843  0.3279
34418CL      CL 5453   7.869   6.911   9.637 -0.2057  0.1896  0.1061
34419CL      CL 5454   9.024   1.370  10.190 -0.0131 -0.3317 -0.1760
34420CL      CL 5455   1.163   4.605   7.905 -0.1817  0.0044 -0.2976
34421CL      CL 5456   1.752   7.922   8.105  0.4959  0.2045  0.0517
34422CL      CL 5457   5.911   3.096   5.019 -0.0378  0.0339 -0.1006
34423CL      CL 5458   1.736   7.400   5.456  0.3418 -0.4985  0.2341
34424CL      CL 5459   5.834   4.765   3.292 -0.1733 -0.1406 -0.1601
34425CL      CL 5460   7.604   0.237   9.027  0.2218 -0.5461  0.0390
34426CL      CL 5461   0.303   6.810   2.204  0.0112 -0.5665 -0.0661
34427CL      CL 5462   9.812   2.732   0.832 -0.5425  0.1637  0.0950
34428CL      CL 5463   1.295   6.669   3.594  0.1171 -0.2736 -0.5754
34429CL      CL 5464   4.039   3.423   3.446 -0.1507  0.2707  0.1589
34430CL      CL 5465   8.588   4.405   5.269 -0.4232  0.5608  0.0860
34431CL      CL 5466   6.230   8.191   4.134 -0.1434 -0.0996  0.4704
34432CL      CL 5467   1.070   6.757   9.077 -0.1321  0.0704 -0.1647
34433CL      CL 5468   6.005   0.151   7.619 -0.1923 -0.0682 -0.0815
34434CL      CL 5469   6.398   1.116   1.803  0.0268  0.1792 -0.1507
34435CL      CL 5470   7.499   6.622   1.741 -0.5382 -0.4550  0.0962
34436CL      CL 5471   5.019   8.843   8.657 -0.3089 -0.0136  0.0493
34437CL      CL 5472   0.790   2.865   7.335 -0.1939 -0.2227  0.2454
34438CL      CL 5473   1.007   9.111   3.854  0.0260  0.0839  0.3763
34439CL      CL 5474   5.860   0.313   0.278  0.3307 -0.0709 -0.0855
34440CL      CL 5475   1.811   2.619   5.890  0.0819  0.5021  0.2488
34441CL      CL 5476   8.464   9.897   7.388 -0.0496 -0.3332  0.0925
34442CL      CL 5477   9.900   5.441   8.163 -0.2075 -0.0947  0.1833
34443CL      CL 5478   3.789   7.015   3.067 -0.2799  0.2328 -0.0170
34444CL      CL 5479   8.168   2.737   2.134 -0.0355  0.0574 -0.3343
  10.20362  10.20362  10.20362
